   * xtb version 6.7.1 (edcfbbe) compiled by 'albert@albert-system' on 2024-07-22

   ID    Z sym.   atoms
    1    8 O      1, 3, 15, 16
    2    7 N      2, 14, 19, 32
    3    6 C      4-13, 17, 18, 20-31, 33-46
    4    1 H      47-70

          program call               : xtb data2507/gas/DCBNPE/DCBNPE.xyz --gfn 2 --ohess vtight --parallel 40 --molden --ceasefiles --namespace data2507/gas/DCBNPE/DCBNPE_gas_S0_preOpt
          :  Hamiltonian                  GFN2-xTB          :
 * total energy  :  -121.4148212 Eh     change       -0.1449408E-08 Eh
 * total energy  :  -121.4328874 Eh     change       -0.1806613E-01 Eh
 * total energy  :  -121.4377764 Eh     change       -0.4889067E-02 Eh
 * total energy  :  -121.4392619 Eh     change       -0.1485467E-02 Eh
 * total energy  :  -121.4401116 Eh     change       -0.8497354E-03 Eh
 * total energy  :  -121.4408169 Eh     change       -0.7053032E-03 Eh
 * total energy  :  -121.4412972 Eh     change       -0.4802478E-03 Eh
 * total energy  :  -121.4417372 Eh     change       -0.4399846E-03 Eh
 * total energy  :  -121.4421262 Eh     change       -0.3890165E-03 Eh
 * total energy  :  -121.4424819 Eh     change       -0.3557174E-03 Eh
 * total energy  :  -121.4441012 Eh     change       -0.5037315E-06 Eh
 * total energy  :  -121.4441016 Eh     change       -0.4503602E-06 Eh
 * total energy  :  -121.4441020 Eh     change       -0.4073154E-06 Eh
 * total energy  :  -121.4441023 Eh     change       -0.2725759E-06 Eh
 * total energy  :  -121.4441025 Eh     change       -0.2263757E-06 Eh
 * total energy  :  -121.4441029 Eh     change       -0.3255579E-06 Eh
 * total energy  :  -121.4441033 Eh     change       -0.4625124E-06 Eh
 * total energy  :  -121.4441036 Eh     change       -0.3040515E-06 Eh
 * total energy  :  -121.4441036 Eh     change       -0.8223822E-08 Eh
   *** GEOMETRY OPTIMIZATION CONVERGED AFTER 44 ITERATIONS ***

 final structure:
================
70
 xtb: 6.7.1 (edcfbbe)
O           -4.31257097400331       -4.97816662620403       -1.08092984601890
N           -3.33342462593725       -5.07557171336613       -0.37141585285499
O           -3.06244578391633       -6.04726180001619        0.30246226096320
C           -2.42851041721957       -3.95761896355482       -0.32506579553062
C           -2.69528448782535       -2.82809996448684       -1.09167046317580
C           -1.83678165592678       -1.75298855043541       -1.03418212079603
C           -0.70849031892224       -1.79009720603145       -0.20854150946379
C            0.20852230959900       -0.64844575431385       -0.11748939732624
C           -0.20841346796775        0.64856108818105       -0.11752206131200
C            0.70852516426482        1.79025705140886       -0.20859540216833
C            0.44175586649241        2.94667044544031        0.53121059777041
C            1.29726182673480        4.02482276379194        0.48028854824786
C            2.42838995765230        3.95789898636228       -0.32518462976312
N            3.33321061178654        5.07591731996524       -0.37154089008070
O            4.31245252871001        4.97852701566716       -1.08095960866353
O            3.06202006465528        6.04770944897003        0.30207898408722
C            2.69536859372670        2.82829115575264       -1.09158111512558
C            1.83694089739660        1.75312129324273       -1.03406439911446
N           -1.55911249291725        0.96142372623960        0.04898686691640
C           -2.41630909557350        0.42847563771442        0.99895394527583
C           -2.13775304997323       -0.40120263077453        2.07397498460426
C           -3.18761696369463       -0.76797410800302        2.89432586059524
C           -4.48359275799683       -0.31480565015387        2.66203514134574
C           -4.75948429933750        0.54051812352776        1.61391578836381
C           -3.71978413816525        0.92306656068497        0.77718781911522
C           -3.64090320647353        1.79867974882441       -0.36102136332581
C           -4.57842074979270        2.55688144024802       -1.04886603866740
C           -4.15897172514058        3.29753059168783       -2.13661764048140
C           -2.82834126103112        3.28032739209189       -2.54643561836513
C           -1.87741523230986        2.53058987511138       -1.87907279585569
C           -2.29142981558509        1.80084688455105       -0.77575327344938
N            1.55918639304975       -0.96138732959166        0.04909123176843
C            2.41645547565778       -0.42835110385400        0.99895242438692
C            2.13802015281830        0.40156427550676        2.07382249583105
C            3.18794213593829        0.76836857369894        2.89408560437735
C            4.48385646254973        0.31498099492119        2.66187943643575
C            4.75962118675918       -0.54059734805377        1.61393531467333
C            3.71986467644386       -0.92316112284715        0.77728555095811
C            3.64088182326911       -1.79896429608350       -0.36076914425868
C            4.57831460845279       -2.55740774811477       -1.04846116009846
C            4.15877840003635       -3.29824699601181       -2.13604937409403
C            2.82814679464223       -3.28098130668504       -2.54585966665091
C            1.87730972843772       -2.53098939614465       -1.87865636941717
C            2.29140485095728       -1.80106760617397       -0.77548416370268
C           -0.44192036569090       -2.94642321058206        0.53146799046889
C           -1.29751032856467       -4.02450927597020        0.48059291392108
H           -3.57156972472086       -2.81299444120586       -1.72115501332025
H           -2.02990642540207       -0.88557325450913       -1.64630434491428
H           -0.43421776995789        2.98648595090791        1.16136454863136
H            1.11169725419505        4.91825617377899        1.05630171414614
H            3.57178214239034        2.81313986082790       -1.72088261450989
H            2.03023842983969        0.88562222617420       -1.64600982928818
H           -1.13526810378636       -0.74627832131600        2.27650106533597
H           -2.99652060141970       -1.41795887955655        3.73477287904081
H           -5.27817450887200       -0.62977695318657        3.32097601512387
H           -5.75923155633461        0.91057350836910        1.44706269754701
H           -5.61176132884533        2.56183579725261       -0.73817862546595
H           -4.87114001041048        3.89602611609632       -2.68397444428028
H           -2.53163201105718        3.86224941361796       -3.40588088988752
H           -0.84996774841760        2.51710091386637       -2.21034636582429
H            1.13557776764797        0.74677304836979        2.27632795833218
H            2.99693351773842        1.41852813319018        3.73441702065418
H            5.27849407818265        0.63001741610586        3.32072143626008
H            5.75932696631372       -0.91077601180670        1.44710870244055
H            5.61164204342415       -2.56246480749261       -0.73773205935509
H            4.87086591293143       -3.89698073478497       -2.68325032458014
H            2.53136686067477       -3.86303564144996       -3.40519078206653
H            0.84987672867966       -2.51741875276480       -2.20996893181144
H            0.43395746761410       -2.98621547966816        1.16175818921440
H           -1.11211767647701       -4.91784596695214        1.05681593823491

          :  Hamiltonian                  GFN2-xTB          :
         :: gradient norm              0.000068736754 Eh/a0 ::
         :: HOMO-LUMO gap              1.105751461195 eV    ::
         :: SCC energy              -123.426635870392 Eh    ::
         :: -> dispersion             -0.110783626496 Eh    ::
         :: repulsion energy           1.982532227131 Eh    ::

    * Orbital Energies and Occupations

         #    Occupation            Energy/Eh            Energy/eV
      -------------------------------------------------------------
         1        2.0000           -0.7756282             -21.1059
       ...           ...                  ...                  ...
        98        2.0000           -0.4420906             -12.0299
        99        2.0000           -0.4417161             -12.0197
       100        2.0000           -0.4389583             -11.9447
       101        2.0000           -0.4377537             -11.9119
       102        2.0000           -0.4372194             -11.8973
       103        2.0000           -0.4366158             -11.8809
       104        2.0000           -0.4245231             -11.5519
       105        2.0000           -0.4237992             -11.5322
       106        2.0000           -0.4210946             -11.4586
       107        2.0000           -0.3982264             -10.8363
       108        2.0000           -0.3982180             -10.8361
       109        2.0000           -0.3956701             -10.7667
       110        2.0000           -0.3772581             -10.2657 (HOMO)
       111                         -0.3366224              -9.1600 (LUMO)
       112                         -0.3241933              -8.8217
       113                         -0.2871680              -7.8142
       114                         -0.2689309              -7.3180
       115                         -0.2687932              -7.3142
       116                         -0.2640553              -7.1853
       117                         -0.2634494              -7.1688
       118                         -0.2441491              -6.6436
       119                         -0.2409801              -6.5574
       120                         -0.2405484              -6.5457
       121                         -0.2280113              -6.2045
       ...                                ...                  ...
       208                          0.7272063              19.7883
      -------------------------------------------------------------
                  HL-Gap            0.0406356 Eh            1.1058 eV

     #   Z          covCN         q      C6AA      α(0)
     1   8 O        0.930    -0.386    21.376     6.201
     2   7 N        2.760     0.543    13.552     5.468
     3   8 O        0.930    -0.386    21.372     6.200
     4   6 C        2.918     0.004    27.936     8.667
     5   6 C        2.917    -0.021    28.520     8.757
     6   6 C        2.923    -0.027    28.668     8.781
     7   6 C        2.976     0.024    27.471     8.597
     8   6 C        2.900     0.040    27.109     8.537
     9   6 C        2.900     0.040    27.109     8.537
    10   6 C        2.976     0.024    27.471     8.597
    11   6 C        2.925    -0.023    28.591     8.769
    12   6 C        2.916    -0.020    28.508     8.756
    13   6 C        2.918     0.004    27.936     8.667
    14   7 N        2.760     0.543    13.552     5.468
    15   8 O        0.930    -0.386    21.376     6.201
    16   8 O        0.930    -0.386    21.372     6.200
    17   6 C        2.917    -0.021    28.520     8.757
    18   6 C        2.923    -0.027    28.669     8.781
    19   7 N        2.803    -0.043    22.071     6.978
    20   6 C        3.068     0.042    26.988     8.518
    21   6 C        2.910    -0.052    29.293     8.875
    22   6 C        2.925    -0.032    28.802     8.801
    23   6 C        2.920    -0.038    28.933     8.821
    24   6 C        2.913    -0.031    28.774     8.796
    25   6 C        3.067    -0.014    28.303     8.724
    26   6 C        3.066    -0.014    28.302     8.723
    27   6 C        2.913    -0.031    28.769     8.795
    28   6 C        2.920    -0.037    28.923     8.819
    29   6 C        2.925    -0.031    28.773     8.797
    30   6 C        2.910    -0.050    29.253     8.869
    31   6 C        3.070     0.044    26.942     8.511
    32   7 N        2.803    -0.043    22.071     6.977
    33   6 C        3.068     0.042    26.988     8.518
    34   6 C        2.910    -0.052    29.293     8.875
    35   6 C        2.925    -0.032    28.802     8.801
    36   6 C        2.920    -0.038    28.933     8.821
    37   6 C        2.913    -0.031    28.774     8.796
    38   6 C        3.067    -0.014    28.303     8.724
    39   6 C        3.066    -0.014    28.302     8.723
    40   6 C        2.913    -0.031    28.769     8.795
    41   6 C        2.920    -0.037    28.922     8.819
    42   6 C        2.925    -0.031    28.773     8.797
    43   6 C        2.910    -0.050    29.253     8.869
    44   6 C        3.070     0.044    26.942     8.511
    45   6 C        2.925    -0.023    28.591     8.769
    46   6 C        2.916    -0.020    28.508     8.756
    47   1 H        0.926     0.081     1.965     2.192
    48   1 H        0.926     0.053     2.282     2.362
    49   1 H        0.926     0.055     2.259     2.350
    50   1 H        0.926     0.082     1.960     2.189
    51   1 H        0.926     0.081     1.965     2.192
    52   1 H        0.926     0.053     2.282     2.362
    53   1 H        0.926     0.023     2.691     2.565
    54   1 H        0.926     0.036     2.507     2.476
    55   1 H        0.926     0.037     2.484     2.465
    56   1 H        0.926     0.039     2.458     2.452
    57   1 H        0.926     0.038     2.470     2.458
    58   1 H        0.926     0.036     2.497     2.471
    59   1 H        0.926     0.036     2.503     2.474
    60   1 H        0.926     0.023     2.681     2.560
    61   1 H        0.926     0.023     2.691     2.565
    62   1 H        0.926     0.036     2.507     2.476
    63   1 H        0.926     0.037     2.484     2.465
    64   1 H        0.926     0.039     2.458     2.452
    65   1 H        0.926     0.038     2.470     2.458
    66   1 H        0.926     0.036     2.497     2.471
    67   1 H        0.926     0.036     2.503     2.474
    68   1 H        0.926     0.023     2.681     2.560
    69   1 H        0.926     0.055     2.259     2.350
    70   1 H        0.926     0.082     1.960     2.189

molecular dipole:
                 x           y           z       tot (Debye)
 q only:        0.000      -0.000       0.146
   full:        0.000      -0.000       0.164       0.416

 projected vibrational frequencies (cm⁻¹)
eigval :       -0.00    -0.00     0.00     0.00     0.00     0.00
eigval :       13.32    14.21    22.13    24.01    28.84    30.42
eigval :       32.40    36.85    37.07    71.96    76.26    80.08
eigval :       99.47   105.42   107.09   109.81   130.49   146.14
eigval :      147.92   160.58   160.82   171.74   175.39   177.56
eigval :      224.59   256.89   260.19   263.28   273.83   274.42
eigval :      296.70   316.58   330.51   354.77   373.67   375.12
eigval :      395.41   396.06   406.16   420.78   424.82   434.45
eigval :      437.85   444.77   450.54   471.52   508.10   516.77
eigval :      518.95   525.75   537.33   537.59   540.86   541.01
eigval :      542.38   547.00   584.19   588.22   591.06   599.20
eigval :      611.03   614.52   640.63   647.75   657.00   668.51
eigval :      672.51   673.28   678.39   703.12   707.11   709.09
eigval :      734.50   738.67   752.56   755.33   768.87   769.58
eigval :      780.33   781.70   781.83   804.63   828.29   840.00
eigval :      840.75   869.63   870.27   871.55   872.26   872.85
eigval :      876.28   878.49   890.73   903.85   904.18   904.93
eigval :      906.20   907.63   909.33   923.26   923.63   923.86
eigval :      924.66   925.64   925.71   934.16   934.67   999.61
eigval :     1008.53  1011.99  1014.45  1070.57  1071.66  1072.29
eigval :     1072.50  1077.65  1079.91  1130.46  1131.48  1134.11
eigval :     1134.79  1148.49  1151.77  1153.53  1166.68  1180.11
eigval :     1180.38  1180.91  1182.60  1197.55  1201.37  1216.26
eigval :     1232.82  1234.36  1235.09  1255.65  1261.41  1265.45
eigval :     1267.14  1296.01  1296.68  1297.88  1299.52  1323.51
eigval :     1329.97  1338.59  1341.07  1355.46  1356.53  1358.86
eigval :     1359.78  1363.85  1366.87  1408.35  1408.75  1421.18
eigval :     1426.41  1426.46  1429.59  1453.69  1458.97  1473.04
eigval :     1473.79  1486.09  1486.18  1549.78  1570.26  1571.61
eigval :     1576.37  1576.37  1579.41  1589.28  1590.16  1596.42
eigval :     1599.14  1599.78  1611.74  1613.27  1657.45  1657.50
eigval :     3082.42  3082.85  3083.05  3083.26  3087.85  3087.87
eigval :     3088.83  3089.04  3091.56  3091.66  3094.49  3094.56
eigval :     3096.14  3096.28  3098.39  3098.75  3102.55  3102.58
eigval :     3103.89  3104.08  3107.46  3107.51  3109.40  3109.44

   temp. (K)  partition function   enthalpy   heat capacity  entropy
                                   cal/mol     cal/K/mol   cal/K/mol   J/K/mol
 298.15  VIB  0.747E+17            21083.975    130.337    131.360
         ROT  0.259E+08              888.752      2.981     36.899
         INT  0.193E+25            21972.727    133.318    168.259
         TR   0.142E+29             1481.254      4.968     45.042
         TOT                       23453.9813   138.2857   213.3006   892.4497

       T/K    H(0)-H(T)+PV         H(T)/Eh          T*S/Eh         G(T)/Eh
   ------------------------------------------------------------------------
    298.15    0.373763E-01    0.553897E+00    0.101346E+00    0.452551E+00
   ------------------------------------------------------------------------

         :::::::::::::::::::::::::::::::::::::::::::::::::::::
         ::                  THERMODYNAMIC                  ::
         :::::::::::::::::::::::::::::::::::::::::::::::::::::
         :: total free energy        -120.991553014330 Eh   ::
         ::.................................................::
         :: total energy             -121.444103643255 Eh   ::
         :: zero point energy           0.516520327613 Eh   ::
         :: G(RRHO) w/o ZPVE           -0.063969698688 Eh   ::
         :: G(RRHO) contrib.            0.452550628925 Eh   ::
         :::::::::::::::::::::::::::::::::::::::::::::::::::::

           -------------------------------------------------
          | TOTAL ENERGY             -121.444103643255 Eh   |
          | TOTAL ENTHALPY           -120.890207017397 Eh   |
          | TOTAL FREE ENERGY        -120.991553014330 Eh   |
          | GRADIENT NORM               0.000068701730 Eh/α |
          | HOMO-LUMO GAP               1.105751453239 eV   |
           -------------------------------------------------

 * finished run on 2025/09/04 at 20:13:18.464
