   * xtb version 6.7.1 (edcfbbe) compiled by 'albert@albert-system' on 2024-07-22

   ID    Z sym.   atoms
    1    6 C      1-26
    2    1 H      27-44

          program call               : xtb data2507/gas/DPA/DPA_gas_T1_crest.xyz --gfn 2 --spinpol --tblite --uhf 2 --ohess vtight --parallel 40 --molden --ceasefiles --namespace data2507/gas/DPA/DPA_gas_T1_finalOpt
 * total energy  :   -64.7721252 Eh     change       -0.6670049E-08 Eh
 * total energy  :   -64.7721577 Eh     change       -0.3252506E-04 Eh
 * total energy  :   -64.7721668 Eh     change       -0.9095201E-05 Eh
 * total energy  :   -64.7721713 Eh     change       -0.4495700E-05 Eh
 * total energy  :   -64.7721756 Eh     change       -0.4323339E-05 Eh
 * total energy  :   -64.7721801 Eh     change       -0.4406939E-05 Eh
 * total energy  :   -64.7721842 Eh     change       -0.4192116E-05 Eh
 * total energy  :   -64.7721882 Eh     change       -0.3945917E-05 Eh
 * total energy  :   -64.7721917 Eh     change       -0.3537464E-05 Eh
 * total energy  :   -64.7721946 Eh     change       -0.2859564E-05 Eh
 * total energy  :   -64.7722005 Eh     change       -0.1125243E-05 Eh
 * total energy  :   -64.7722016 Eh     change       -0.1106917E-05 Eh
 * total energy  :   -64.7722028 Eh     change       -0.1128864E-05 Eh
 * total energy  :   -64.7722039 Eh     change       -0.1102105E-05 Eh
 * total energy  :   -64.7722049 Eh     change       -0.9833795E-06 Eh
 * total energy  :   -64.7722056 Eh     change       -0.7602840E-06 Eh
 * total energy  :   -64.7722062 Eh     change       -0.5524019E-06 Eh
 * total energy  :   -64.7722065 Eh     change       -0.3719055E-06 Eh
 * total energy  :   -64.7722066 Eh     change       -0.2518979E-07 Eh
   *** GEOMETRY OPTIMIZATION CONVERGED AFTER 22 ITERATIONS ***

 final structure:
================
44
 xtb: 6.7.1 (edcfbbe)
C           -5.67992668106676        0.00076281500310       -0.00096311465856
C           -4.98270812591759        0.65586756112916       -1.00349608697233
C           -3.60140907418607        0.66101524894774       -1.00260909508710
C           -2.88632084691809       -0.00045296688949       -0.00127178515850
C           -1.42306131347895       -0.00042919766037       -0.00113322133234
C           -0.71260227299338       -1.24136710862052       -0.02797320238644
C           -1.37622012265507       -2.46542261665658       -0.12752796442510
C           -0.68298031225456       -3.67538492188490       -0.07891730651977
C            0.68436278926834       -3.67516964269842        0.07534134584697
C            1.37715704041766       -2.46497693068045        0.12447059805353
C            0.71308199369122       -1.24112202278535        0.02544912249062
C            1.42303957622618        0.00009160439237       -0.00082917494396
C            2.88631466229056        0.00079703382203        0.00037444671099
C            3.60014269977305        0.66204772861675        1.00275131789825
C            4.98143819587927        0.65755370216538        1.00494177219892
C            5.67989974052203        0.00340414617143        0.00264866952461
C            4.98426508950249       -0.65212823240252       -1.00069885134598
C            3.60294602007503       -0.65923351457414       -1.00078115922165
C            0.71258221288694        1.24102017474851       -0.02778421464581
C            1.37622355155980        2.46506033543486       -0.12737903533103
C            0.68304124418890        3.67503473337527       -0.07850779465399
C           -0.68425491027972        3.67481841741059        0.07618226542958
C           -1.37706269899111        2.46463384537783        0.12524064996517
C           -0.71307197133564        1.24078167900986        0.02566259606210
C           -3.60172729723077       -0.66146967287273        1.00012962176134
C           -4.98304244291104       -0.65507054753057        1.00132393929644
H           -6.75981462799979        0.00132373549027       -0.00077462446945
H           -5.51973665018574        1.16389265621643       -1.79155005440445
H           -3.06010934405984        1.15736337208142       -1.79540193132294
H           -2.44856057113249       -2.48038384475012       -0.24867636489880
H           -1.22901527682566       -4.60420752121842       -0.15088399565202
H            1.23072744625340       -4.60382422770263        0.14696977670014
H            2.44950318652806       -2.47958560742706        0.24560398388345
H            3.05783886290138        1.15771988456124        1.79527909284698
H            5.51748538698224        1.16539774534939        1.79377873083974
H            6.75978605859952        0.00452717762819        0.00344010056473
H            5.52253979096813       -1.15887133176101       -1.78871556300160
H            3.06290966232514       -1.15579928077899       -1.79428400125144
H            2.44853575832675        2.48000432224663       -0.24878395884478
H            1.22907658079050        4.60384293524764       -0.15056778583697
H           -1.23058121787690        4.60346180066714        0.14817284206319
H           -2.44935888723214        2.47929401950631        0.24680443794975
H           -3.06071587806768       -1.15826300904323        1.79282526349326
H           -5.52033112985754       -1.16263391516223        1.78948422298480

 projected vibrational frequencies (cm⁻¹)
eigval :       -0.00    -0.00     0.00     0.00     0.00     0.00
eigval :       20.59    45.96    51.82    66.08    69.34    74.31
eigval :       89.76   125.76   190.13   193.79   199.59   234.79
eigval :      237.45   239.63   259.49   358.80   368.78   373.33
eigval :      378.30   395.34   396.10   403.46   418.56   455.82
eigval :      470.42   485.81   564.24   573.46   575.01   580.21
eigval :      588.51   592.99   606.63   614.74   663.30   670.12
eigval :      673.08   677.69   713.15   726.08   745.99   754.00
eigval :      755.76   762.09   841.80   841.88   875.90   882.09
eigval :      884.55   890.80   891.81   902.26   904.73   906.53
eigval :      906.62   909.03   910.65   930.67   930.98   933.89
eigval :      933.99   944.69   989.14   995.99  1082.54  1083.15
eigval :     1099.76  1102.43  1111.36  1119.77  1119.98  1125.25
eigval :     1180.64  1180.67  1181.14  1182.28  1182.65  1188.96
eigval :     1198.53  1200.45  1230.44  1252.59  1253.29  1279.97
eigval :     1280.88  1294.72  1297.22  1312.88  1313.94  1337.44
eigval :     1368.61  1375.26  1378.42  1407.30  1425.14  1426.31
eigval :     1428.93  1460.09  1464.43  1479.78  1481.07  1514.21
eigval :     1531.46  1561.57  1564.17  1564.19  1585.17  1585.91
eigval :     3070.42  3070.45  3071.25  3071.28  3076.63  3076.77
eigval :     3080.10  3080.20  3083.56  3084.18  3085.62  3085.64
eigval :     3092.09  3092.54  3095.17  3095.71  3097.84  3098.93

   temp. (K)  partition function   enthalpy   heat capacity  entropy
                                   cal/mol     cal/K/mol   cal/K/mol   J/K/mol
 298.15  VIB  0.217E+08            10945.361     74.829     66.159
         ROT  0.267E+07              888.752      2.981     32.388
         INT  0.580E+14            11834.113     77.809     98.547
         TR   0.581E+28             1481.254      4.968     43.261
         TOT                       13315.3670    82.7776   141.8075   593.3227

       T/K    H(0)-H(T)+PV         H(T)/Eh          T*S/Eh         G(T)/Eh
   ------------------------------------------------------------------------
    298.15    0.212194E-01    0.362834E+00    0.673773E-01    0.295457E+00
   ------------------------------------------------------------------------

         :::::::::::::::::::::::::::::::::::::::::::::::::::::
         ::                  THERMODYNAMIC                  ::
         :::::::::::::::::::::::::::::::::::::::::::::::::::::
         :: total free energy         -64.476749671065 Eh   ::
         ::.................................................::
         :: total energy              -64.772206566862 Eh   ::
         :: zero point energy           0.341614837853 Eh   ::
         :: G(RRHO) w/o ZPVE           -0.046157942056 Eh   ::
         :: G(RRHO) contrib.            0.295456895797 Eh   ::
         :::::::::::::::::::::::::::::::::::::::::::::::::::::

           -------------------------------------------------
          | TOTAL ENERGY              -64.772206566862 Eh   |
          | TOTAL ENTHALPY            -64.409372341076 Eh   |
          | TOTAL FREE ENERGY         -64.476749671065 Eh   |
          | GRADIENT NORM               0.000040450079 Eh/α |
           -------------------------------------------------

 * finished run on 2025/09/12 at 05:51:22.770
