   * xtb version 6.7.1 (edcfbbe) compiled by 'albert@albert-system' on 2024-07-22

   ID    Z sym.   atoms
    1    6 C      1-26
    2    1 H      27-44

          program call               : xtb data2507/gas/DPA/DPA_gas_S0_crest.xyz --gfn 2 --ohess vtight --parallel 40 --molden --ceasefiles --namespace data2507/gas/DPA/DPA_gas_S0_finalOpt
          :  Hamiltonian                  GFN2-xTB          :
 * total energy  :   -64.8361522 Eh     change       -0.1496304E-08 Eh
 * total energy  :   -64.8361534 Eh     change       -0.1171997E-05 Eh
 * total energy  :   -64.8361540 Eh     change       -0.6461151E-06 Eh
 * total energy  :   -64.8361547 Eh     change       -0.6624278E-06 Eh
 * total energy  :   -64.8361553 Eh     change       -0.6064240E-06 Eh
 * total energy  :   -64.8361557 Eh     change       -0.4370502E-06 Eh
 * total energy  :   -64.8361559 Eh     change       -0.2167214E-06 Eh
 * total energy  :   -64.8361561 Eh     change       -0.2183681E-06 Eh
 * total energy  :   -64.8361565 Eh     change       -0.3655365E-06 Eh
 * total energy  :   -64.8361570 Eh     change       -0.4875540E-06 Eh
 * total energy  :   -64.8361573 Eh     change       -0.3455809E-06 Eh
 * total energy  :   -64.8361575 Eh     change       -0.1829069E-06 Eh
 * total energy  :   -64.8361577 Eh     change       -0.1329271E-06 Eh
 * total energy  :   -64.8361578 Eh     change       -0.1225951E-06 Eh
 * total energy  :   -64.8361579 Eh     change       -0.7642286E-07 Eh
   *** GEOMETRY OPTIMIZATION CONVERGED AFTER 15 ITERATIONS ***

 final structure:
================
44
 xtb: 6.7.1 (edcfbbe)
C           -5.67419360785051        0.00199502483012       -0.00038525964270
C           -4.97931374057473        0.39714798835432       -1.13124680214628
C           -3.59614937951819        0.39894497816057       -1.13165311947556
C           -2.89104619394157        0.00028912943665       -0.00040279045185
C           -1.41219413890660       -0.00019475101319       -0.00039238504511
C           -0.71521913421612       -1.21641303072767       -0.00306366004769
C           -1.39123152300719       -2.46467344973673       -0.03449297680711
C           -0.70492111358264       -3.63938969642398       -0.01629989374085
C            0.70334491441649       -3.63949352293870        0.03880561351057
C            1.39006467298486       -2.46493264706435        0.04950129431466
C            0.71445577708786       -1.21667823642545        0.01024383182573
C            1.41194713738011       -0.00084034529932       -0.00029022841851
C            2.89084269836836       -0.00105010085809       -0.00000542591411
C            3.59588663974229        0.40150601610124        1.12987874780662
C            4.97905162782028        0.39902286358160        1.12972842698732
C            5.67394097937733       -0.00061725997318        0.00045070289865
C            4.97954124041410       -0.40056297127798       -1.12901200255992
C            3.59636787726030       -0.40347659264060       -1.12962224253973
C            0.71500413736053        1.21532576565560       -0.01102347872665
C            1.39118684052375        2.46326066611160       -0.05051045122180
C            0.70501130497558        3.63814569530544       -0.04015048360296
C           -0.70324651857190        3.63869860593830        0.01496778921922
C           -1.39009253070014        2.46429784279471        0.03343631221838
C           -0.71466208333424        1.21571955282919        0.00220426805196
C           -3.59659792444248       -0.39761749176742        1.13081717723606
C           -4.97976815188418       -0.39410913172680        1.13041852437237
H           -6.75428676682947        0.00282775625016       -0.00029884854996
H           -5.51691527658275        0.70580815022948       -2.01613134537687
H           -3.05128404123109        0.70499337199876       -2.01347193961735
H           -2.47045734624133       -2.46481618199765       -0.07593708037227
H           -1.23359222842490       -4.58112854079384       -0.04074659015889
H            1.23165667744764       -4.58125954757192        0.06916049024986
H            2.46930431638557       -2.46510290165048        0.09070310709872
H            3.05098584019887        0.71116614921972        2.01041081719780
H            5.51664714182814        0.71057190620100        2.01360148337552
H            6.75403451559613       -0.00041160061668        0.00061651874969
H            5.51751485650021       -0.71196999935730       -2.01270472695168
H            3.05187231241794       -0.71323958587316       -2.01036874511362
H            2.47042659112146        2.46295502194973       -0.09165390280191
H            1.23376778725137        4.57965462532623       -0.07074172371396
H           -1.23149651742474        4.58067902359691        0.03915269149453
H           -2.46931600403555        2.46497298951591        0.07486165055128
H           -3.05212133556735       -0.70434584741935        2.01263819246286
H           -5.51772656769152       -0.70199496533330        2.01535519147543

          :  Hamiltonian                  GFN2-xTB          :
         :: gradient norm              0.000027265050 Eh/a0 ::
         :: HOMO-LUMO gap              2.138389064947 eV    ::
         :: SCC energy               -66.120664837027 Eh    ::
         :: -> dispersion             -0.058358529509 Eh    ::
         :: repulsion energy           1.284506981548 Eh    ::

    * Orbital Energies and Occupations

         #    Occupation            Energy/Eh            Energy/eV
      -------------------------------------------------------------
         1        2.0000           -0.6522554             -17.7488
       ...           ...                  ...                  ...
        49        2.0000           -0.4253483             -11.5743
        50        2.0000           -0.4233975             -11.5212
        51        2.0000           -0.4215349             -11.4705
        52        2.0000           -0.4188952             -11.3987
        53        2.0000           -0.4165876             -11.3359
        54        2.0000           -0.4055111             -11.0345
        55        2.0000           -0.4042687             -11.0007
        56        2.0000           -0.4037089             -10.9855
        57        2.0000           -0.3988141             -10.8523
        58        2.0000           -0.3978156             -10.8251
        59        2.0000           -0.3964504             -10.7880
        60        2.0000           -0.3935530             -10.7091
        61        2.0000           -0.3557473              -9.6804 (HOMO)
        62                         -0.2771629              -7.5420 (LUMO)
        63                         -0.2286774              -6.2226
        64                         -0.2231130              -6.0712
        65                         -0.2229200              -6.0660
        66                         -0.2226649              -6.0590
        67                         -0.2221498              -6.0450
        68                         -0.2172983              -5.9130
        69                         -0.1724833              -4.6935
        70                         -0.1694577              -4.6112
        71                         -0.0961401              -2.6161
        72                         -0.0932676              -2.5379
       ...                                ...                  ...
       122                          0.7182222              19.5438
      -------------------------------------------------------------
                  HL-Gap            0.0785844 Eh            2.1384 eV

     #   Z          covCN         q      C6AA      α(0)
     1   6 C        2.920    -0.032    28.793     8.799
     2   6 C        2.919    -0.030    28.745     8.792
     3   6 C        2.924    -0.032    28.799     8.801
     4   6 C        2.977     0.016    27.646     8.625
     5   6 C        2.977    -0.007    28.185     8.708
     6   6 C        2.984     0.006    27.879     8.661
     7   6 C        2.917    -0.035    28.860     8.809
     8   6 C        2.914    -0.030    28.758     8.794
     9   6 C        2.914    -0.030    28.758     8.794
    10   6 C        2.917    -0.035    28.860     8.809
    11   6 C        2.984     0.006    27.879     8.661
    12   6 C        2.977    -0.007    28.185     8.708
    13   6 C        2.977     0.016    27.646     8.625
    14   6 C        2.924    -0.032    28.799     8.801
    15   6 C        2.919    -0.030    28.745     8.792
    16   6 C        2.920    -0.032    28.793     8.799
    17   6 C        2.919    -0.030    28.745     8.792
    18   6 C        2.924    -0.032    28.799     8.801
    19   6 C        2.984     0.006    27.879     8.661
    20   6 C        2.917    -0.035    28.860     8.809
    21   6 C        2.914    -0.030    28.758     8.794
    22   6 C        2.914    -0.030    28.758     8.794
    23   6 C        2.917    -0.035    28.860     8.809
    24   6 C        2.984     0.006    27.879     8.661
    25   6 C        2.924    -0.032    28.799     8.801
    26   6 C        2.919    -0.030    28.745     8.792
    27   1 H        0.926     0.029     2.604     2.524
    28   1 H        0.926     0.029     2.595     2.519
    29   1 H        0.926     0.029     2.595     2.519
    30   1 H        0.926     0.031     2.572     2.508
    31   1 H        0.926     0.028     2.616     2.529
    32   1 H        0.926     0.028     2.616     2.529
    33   1 H        0.926     0.031     2.572     2.508
    34   1 H        0.926     0.029     2.595     2.519
    35   1 H        0.926     0.029     2.595     2.519
    36   1 H        0.926     0.029     2.604     2.524
    37   1 H        0.926     0.029     2.595     2.519
    38   1 H        0.926     0.029     2.595     2.519
    39   1 H        0.926     0.031     2.572     2.508
    40   1 H        0.926     0.028     2.616     2.529
    41   1 H        0.926     0.028     2.616     2.529
    42   1 H        0.926     0.031     2.572     2.508
    43   1 H        0.926     0.029     2.595     2.519
    44   1 H        0.926     0.029     2.595     2.519

molecular dipole:
                 x           y           z       tot (Debye)
 q only:       -0.000       0.000       0.000
   full:       -0.000       0.000      -0.000       0.000

 projected vibrational frequencies (cm⁻¹)
eigval :       -0.00    -0.00    -0.00     0.00     0.00     0.00
eigval :       24.75    31.42    36.68    54.65    72.61    77.44
eigval :       81.97   110.26   186.81   198.59   201.86   216.24
eigval :      231.98   241.59   248.03   368.12   369.08   381.03
eigval :      385.29   400.22   401.04   436.14   447.02   458.41
eigval :      458.88   493.84   577.23   581.99   584.85   585.55
eigval :      592.83   602.49   613.99   630.32   670.46   672.70
eigval :      679.09   693.16   727.90   737.40   755.55   762.28
eigval :      774.78   776.12   874.09   875.03   880.48   881.55
eigval :      894.82   901.69   905.92   909.28   913.39   918.32
eigval :      918.59   927.44   927.66   931.03   931.38   932.14
eigval :      932.88   933.96   991.95  1000.85  1081.12  1081.90
eigval :     1083.11  1083.62  1118.36  1118.42  1135.15  1146.15
eigval :     1181.29  1182.05  1182.07  1184.80  1195.31  1196.07
eigval :     1214.25  1223.00  1228.72  1258.48  1263.70  1280.61
eigval :     1281.90  1312.19  1312.47  1325.27  1350.45  1372.28
eigval :     1384.95  1419.08  1427.85  1428.43  1431.30  1442.95
eigval :     1466.04  1485.61  1494.35  1527.12  1531.30  1543.02
eigval :     1580.32  1580.66  1599.64  1599.76  1608.69  1622.95
eigval :     3070.58  3070.67  3071.64  3071.71  3072.80  3072.81
eigval :     3078.69  3079.05  3079.32  3080.02  3083.74  3083.92
eigval :     3089.07  3089.51  3091.49  3091.66  3093.07  3094.17

   temp. (K)  partition function   enthalpy   heat capacity  entropy
                                   cal/mol     cal/K/mol   cal/K/mol   J/K/mol
 298.15  VIB  0.431E+08            10896.446     73.123     66.004
         ROT  0.265E+07              888.752      2.981     32.371
         INT  0.114E+15            11785.199     76.104     98.374
         TR   0.581E+28             1481.254      4.968     43.261
         TOT                       13266.4527    81.0720   141.6351   592.6013

       T/K    H(0)-H(T)+PV         H(T)/Eh          T*S/Eh         G(T)/Eh
   ------------------------------------------------------------------------
    298.15    0.211414E-01    0.365249E+00    0.672954E-01    0.297954E+00
   ------------------------------------------------------------------------

         :::::::::::::::::::::::::::::::::::::::::::::::::::::
         ::                  THERMODYNAMIC                  ::
         :::::::::::::::::::::::::::::::::::::::::::::::::::::
         :: total free energy         -64.538204208556 Eh   ::
         ::.................................................::
         :: total energy              -64.836157855473 Eh   ::
         :: zero point energy           0.344107621103 Eh   ::
         :: G(RRHO) w/o ZPVE           -0.046153974186 Eh   ::
         :: G(RRHO) contrib.            0.297953646917 Eh   ::
         :::::::::::::::::::::::::::::::::::::::::::::::::::::

           -------------------------------------------------
          | TOTAL ENERGY              -64.836157855473 Eh   |
          | TOTAL ENTHALPY            -64.470908796330 Eh   |
          | TOTAL FREE ENERGY         -64.538204208556 Eh   |
          | GRADIENT NORM               0.000027267488 Eh/α |
          | HOMO-LUMO GAP               2.138389041182 eV   |
           -------------------------------------------------

 * finished run on 2025/09/12 at 05:50:25.775
