   * xtb version 6.7.1 (edcfbbe) compiled by 'albert@albert-system' on 2024-07-22

   ID    Z sym.   atoms
    1    6 C      1-26
    2    1 H      27-44

          program call               : xtb data2507/gas/DPA/DPA_gas_S0_finalOpt.xtbopt.xyz --gfn 2 --spinpol --tblite --uhf 2 --ohess vtight --parallel 40 --molden --ceasefiles --namespace data2507/gas/DPA/DPA_gas_T1_preOpt
 * total energy  :   -64.7630345 Eh     change       -0.1979674E-07 Eh
 * total energy  :   -64.7695677 Eh     change       -0.6533245E-02 Eh
 * total energy  :   -64.7710038 Eh     change       -0.1436032E-02 Eh
 * total energy  :   -64.7711138 Eh     change       -0.1100840E-03 Eh
 * total energy  :   -64.7712072 Eh     change       -0.9339490E-04 Eh
 * total energy  :   -64.7712592 Eh     change       -0.5196384E-04 Eh
 * total energy  :   -64.7713112 Eh     change       -0.5200507E-04 Eh
 * total energy  :   -64.7713719 Eh     change       -0.6064667E-04 Eh
 * total energy  :   -64.7714320 Eh     change       -0.6017730E-04 Eh
 * total energy  :   -64.7715012 Eh     change       -0.6916827E-04 Eh
 * total energy  :   -64.7722013 Eh     change       -0.6754890E-06 Eh
 * total energy  :   -64.7722020 Eh     change       -0.6425994E-06 Eh
 * total energy  :   -64.7722025 Eh     change       -0.5851216E-06 Eh
 * total energy  :   -64.7722031 Eh     change       -0.5356784E-06 Eh
 * total energy  :   -64.7722036 Eh     change       -0.4921493E-06 Eh
 * total energy  :   -64.7722040 Eh     change       -0.4409716E-06 Eh
 * total energy  :   -64.7722044 Eh     change       -0.4079899E-06 Eh
 * total energy  :   -64.7722048 Eh     change       -0.3596013E-06 Eh
 * total energy  :   -64.7722048 Eh     change       -0.2401829E-07 Eh
   *** GEOMETRY OPTIMIZATION CONVERGED AFTER 68 ITERATIONS ***

 final structure:
================
44
 xtb: 6.7.1 (edcfbbe)
C           -5.67948887395359        0.00123533748820       -0.00074887759064
C           -4.98233882655104        0.63429209053820       -1.01733772732345
C           -3.60094334575643        0.64025228478997       -1.01594427520494
C           -2.88650178189695        0.00053895934086       -0.00052945451385
C           -1.42264359070727        0.00018513718173       -0.00040982755925
C           -0.71330491210974       -1.24127258752167       -0.01999889759357
C           -1.37849915637768       -2.46534001223223       -0.10754904178721
C           -0.68531579580829       -3.67551008160922       -0.05949408955527
C            0.68342188117074       -3.67541079704807        0.08112770382081
C            1.37718417893283       -2.46530568192600        0.12186006356236
C            0.71257871701873       -1.24147152526545        0.02689848520760
C            1.42251057787567       -0.00049305047780       -0.00020426366120
C            2.88636766154774       -0.00083816763512       -0.00009266908065
C            3.60112306141038        0.64469574658390        1.01141147029466
C            4.98251618310139        0.63808410319404        1.01283414779316
C            5.67935608280815       -0.00147700268158        0.00011124857268
C            4.98237144402923       -0.64072115093460       -1.01271244271481
C            3.60097526177332       -0.64670096792816       -1.01149075617295
C            0.71317383586984        1.24082602659589       -0.02740931275594
C            1.37837427740112        2.46434072697465       -0.12227799671206
C            0.68518539012473        3.67477146293442       -0.08164070962924
C           -0.68357097233870        3.67552123079831        0.05878881660146
C           -1.37733430070372        2.46568949174599        0.10674559224917
C           -0.71271564317630        1.24130706865170        0.01928650345062
C           -3.60142070741261       -0.63881974325261        1.01477324780389
C           -4.98281508408561       -0.63217029212782        1.01594935955955
H           -6.75938325721498        0.00150578704305       -0.00083219449174
H           -5.51935257731717        1.12442927098485       -1.81663392167933
H           -3.05926548241239        1.12034066913475       -1.81843783957097
H           -2.45193947191216       -2.48011003544121       -0.21869211064783
H           -1.23245922688655       -4.60434329322495       -0.12226185478369
H            1.23011976552993       -4.60411093050234        0.14951611147197
H            2.45061807998759       -2.47991783217720        0.23309615157633
H            3.05968208697223        1.12991104520653        1.81097501469929
H            5.51976898273453        1.13281682725847        1.80913205372600
H            6.75925056832258       -0.00172321657637        0.00018934896079
H            5.51951431582740       -1.13569909053029       -1.80893265440063
H            3.05942853707084       -1.13166996930090       -1.81113297264600
H            2.45183209226197        2.47844020951019       -0.23336996275516
H            1.23233597830742        4.60321272740842       -0.14995101599607
H           -1.23027874377460        4.60462065915923        0.12148029246021
H           -2.45078683652989        2.48096919377740        0.21774223906821
H           -3.06010954454046       -1.11917762205141        1.81735189970928
H           -5.52019714754208       -1.12203828920099        1.81516186778480

 projected vibrational frequencies (cm⁻¹)
eigval :       -0.00    -0.00    -0.00     0.00     0.00     0.00
eigval :       20.57    44.96    51.79    63.66    68.58    74.05
eigval :       89.24   123.33   188.51   194.68   199.31   233.13
eigval :      236.64   239.57   258.44   358.74   368.25   372.78
eigval :      378.55   395.26   395.47   404.06   417.14   455.55
eigval :      470.18   486.11   564.05   573.18   575.04   580.16
eigval :      588.46   593.06   606.65   614.71   663.18   669.99
eigval :      672.88   677.63   713.07   726.16   745.55   753.76
eigval :      755.84   761.61   840.90   841.18   875.95   881.72
eigval :      884.26   890.06   891.73   902.19   904.62   906.28
eigval :      906.40   908.60   910.62   930.57   930.82   933.45
eigval :      933.52   944.57   989.33   996.13  1082.52  1083.12
eigval :     1099.54  1102.42  1111.25  1119.54  1120.09  1125.32
eigval :     1180.60  1180.62  1181.31  1182.47  1182.77  1188.68
eigval :     1198.32  1200.20  1230.24  1252.47  1253.31  1279.83
eigval :     1280.68  1294.55  1297.52  1312.64  1313.66  1337.81
eigval :     1369.13  1375.14  1379.05  1407.32  1425.21  1426.12
eigval :     1429.22  1460.13  1464.92  1480.01  1480.70  1513.80
eigval :     1531.52  1561.92  1564.78  1564.78  1585.67  1586.36
eigval :     3070.32  3071.21  3071.24  3071.30  3076.67  3076.80
eigval :     3080.00  3080.27  3083.32  3083.50  3085.43  3085.65
eigval :     3092.10  3092.54  3095.09  3095.63  3097.78  3098.89

   temp. (K)  partition function   enthalpy   heat capacity  entropy
                                   cal/mol     cal/K/mol   cal/K/mol   J/K/mol
 298.15  VIB  0.240E+08            10961.650     74.794     66.311
         ROT  0.267E+07              888.752      2.981     32.388
         INT  0.640E+14            11850.403     77.775     98.698
         TR   0.581E+28             1481.254      4.968     43.261
         TOT                       13331.6567    82.7429   141.9591   593.9569

       T/K    H(0)-H(T)+PV         H(T)/Eh          T*S/Eh         G(T)/Eh
   ------------------------------------------------------------------------
    298.15    0.212453E-01    0.362814E+00    0.674494E-01    0.295365E+00
   ------------------------------------------------------------------------

         :::::::::::::::::::::::::::::::::::::::::::::::::::::
         ::                  THERMODYNAMIC                  ::
         :::::::::::::::::::::::::::::::::::::::::::::::::::::
         :: total free energy         -64.476839844577 Eh   ::
         ::.................................................::
         :: total energy              -64.772204798685 Eh   ::
         :: zero point energy           0.341568960292 Eh   ::
         :: G(RRHO) w/o ZPVE           -0.046204006184 Eh   ::
         :: G(RRHO) contrib.            0.295364954108 Eh   ::
         :::::::::::::::::::::::::::::::::::::::::::::::::::::

           -------------------------------------------------
          | TOTAL ENERGY              -64.772204798685 Eh   |
          | TOTAL ENTHALPY            -64.409390491075 Eh   |
          | TOTAL FREE ENERGY         -64.476839844577 Eh   |
          | GRADIENT NORM               0.000046755261 Eh/α |
           -------------------------------------------------

 * finished run on 2025/09/12 at 05:50:29.163
