   * xtb version 6.7.1 (edcfbbe) compiled by 'albert@albert-system' on 2024-07-22

   ID    Z sym.   atoms
    1    6 C      1-6, 8-13, 15-23, 25-30, 32-41, 43-47, 49, 51-54, 56,
                  58-60, 62
    2    8 O      7, 31
    3    7 N      14, 24, 42, 48, 50, 55, 57, 61
    4    1 H      63-92

          program call               : xtb data2507/toluene/DPIBPZ-DPXZ/DPIBPZ-DPXZ_toluene_T1_crest.xyz --gfn 2 --uhf 2 --gbsa toluene --ohess vtight --parallel 40 --molden --ceasefiles --namespace data2507/toluene/DPIBPZ-DPXZ/DPIBPZ-DPXZ_toluene_T1_finalOpt
      * Solvation model:               GBSA
        Solvent                        toluene
        Solvent mass                       9.2140E+01 g/mol
          :  Hamiltonian                  GFN2-xTB          :
 * total energy  :  -158.2836463 Eh     change       -0.1589916E-07 Eh
 * total energy  :  -158.2837677 Eh     change       -0.1213948E-03 Eh
 * total energy  :  -158.2838257 Eh     change       -0.5800597E-04 Eh
 * total energy  :  -158.2838317 Eh     change       -0.5955543E-05 Eh
 * total energy  :  -158.2838355 Eh     change       -0.3816474E-05 Eh
 * total energy  :  -158.2838380 Eh     change       -0.2510305E-05 Eh
 * total energy  :  -158.2838449 Eh     change       -0.6913175E-05 Eh
 * total energy  :  -158.2838500 Eh     change       -0.5034765E-05 Eh
 * total energy  :  -158.2838541 Eh     change       -0.4118415E-05 Eh
 * total energy  :  -158.2838587 Eh     change       -0.4613381E-05 Eh
 * total energy  :  -158.2838979 Eh     change       -0.2632105E-06 Eh
 * total energy  :  -158.2838981 Eh     change       -0.1886539E-06 Eh
 * total energy  :  -158.2838982 Eh     change       -0.1764418E-06 Eh
 * total energy  :  -158.2838985 Eh     change       -0.2172628E-06 Eh
 * total energy  :  -158.2838988 Eh     change       -0.3050081E-06 Eh
 * total energy  :  -158.2838991 Eh     change       -0.3644497E-06 Eh
 * total energy  :  -158.2838994 Eh     change       -0.2572069E-06 Eh
 * total energy  :  -158.2838995 Eh     change       -0.1496952E-06 Eh
 * total energy  :  -158.2838995 Eh     change       -0.1918295E-08 Eh
   *** GEOMETRY OPTIMIZATION CONVERGED AFTER 38 ITERATIONS ***

 final structure:
================
92
 xtb: 6.7.1 (edcfbbe)
C           -4.31442039391194       -6.23441639867670       -3.22508270306650
C           -3.18494051401357       -5.43809042120590       -3.30194610809825
C           -2.87504300478304       -4.55826193018283       -2.27930084754149
C           -3.68778320144871       -4.46559042035610       -1.15221872927966
C           -4.84788701845875       -5.25564217859520       -1.09890214658241
C           -5.15017225942538       -6.13555388252223       -2.12433336809460
O           -5.72820200956229       -5.18767454031736       -0.05206340022361
C           -5.45174566355167       -4.30428327264365        0.95769931475783
C           -6.36142883909350       -4.23492724945836        1.99955609264540
C           -6.13523664039857       -3.38050780108626        3.06636526062636
C           -4.98712828011670       -2.60829261143295        3.09255533345762
C           -4.07282882581615       -2.67305732235444        2.05528183412703
C           -4.29517954800620       -3.50637247431296        0.96163879988868
N           -3.40449245465778       -3.59607545374342       -0.10424661939782
C           -2.19366148378486       -2.85981813740547       -0.09776681522665
C           -0.96894409811513       -3.54054114425527       -0.02283135246301
C            0.19537030594481       -2.82186635136064       -0.00588464696761
C            0.18500264772211       -1.41730447483674       -0.04214616344823
C           -1.04766092426749       -0.72275961451157       -0.11035021417241
C           -2.22483379681286       -1.48229108641382       -0.15193625840655
C           -1.04902102667569        0.72014103762527       -0.11644976482574
C           -2.22821801412792        1.47680080023999       -0.15145577461042
C           -2.19958525471565        2.85486676980389       -0.11073651769953
N           -3.41263742027018        3.58752041967608       -0.10378070109677
C           -4.28432460129597        3.50468077964027        0.97837356588167
C           -4.03916200882378        2.68333510676172        2.07618971217299
C           -4.93459751382208        2.62534016827556        3.13017588865780
C           -6.08616079308285        3.39267797992002        3.11674075038693
C           -6.33479839264911        4.23536659272113        2.04560516829435
C           -5.44410703816064        4.29785415402891        0.98702487567222
O           -5.74215504296081        5.16993321980494       -0.02646870611813
C           -4.87875669411847        5.23356028782195       -1.08757031163919
C           -5.20110230443820        6.10429924420694       -2.11472240916414
C           -4.38313489373179        6.19857375135491       -3.22914720274483
C           -3.25148234925806        5.40658305139584       -3.31789239910917
C           -2.92176025654613        4.53568640190408       -2.29380993374408
C           -3.71626529027439        4.44797213877448       -1.15343549540323
C           -0.97543736391788        3.53890806286506       -0.05994443749158
C            0.19048869199604        2.82273580244346       -0.04690566782616
C            0.18277799907852        1.41773914223401       -0.06445263310268
C            1.42596040725339        0.71116083576372       -0.01763710209905
N            2.57552811226409        1.38537216568087        0.01865717496413
C            3.73610498959590        0.72351509320456        0.05692303682342
C            4.95873946454213        1.39623732587387        0.07598505612529
C            6.16633044704291        0.70995991647372        0.11897673099026
C            7.41498004266136        1.46666208899898        0.04587520904438
C            8.44765656106847        1.13601390360779       -0.83866671733658
N            9.57540258588307        1.81868902384446       -0.90636436927810
C            9.69216547852412        2.86077320212136       -0.10036711088298
N            8.77686870900191        3.29680472487767        0.74699470267157
C            7.65130890821079        2.60846337184774        0.81737830356564
C            6.16626578927416       -0.69871675760046        0.16647626804233
C            7.41049148287285       -1.45286366406983        0.30752699011695
C            8.39888331520142       -1.11510722996959        1.23893362057799
N            9.52279972751649       -1.79560619532900        1.36557784579540
C            9.67983035043468       -2.84289211128671        0.57326173124224
N            8.80742210790912       -3.28555660784285       -0.31497522167104
C            7.68595874974700       -2.59914606507722       -0.44435583085963
C            4.95908466587387       -1.38672280985280        0.13730925301045
C            3.73691388389497       -0.71593832845916        0.07622531599105
N            2.57699612975908       -1.37981362204460        0.05049490502724
C            1.42690323616997       -0.70795133786271       -0.00261796620396
H           -4.55393486562659       -6.92371092682625       -4.01900116879763
H           -2.53729133700327       -5.49507694711944       -4.16296570047836
H           -1.99813521368722       -3.93508336348396       -2.35333841701649
H           -6.04601750014787       -6.73005014677735       -2.04086379113140
H           -7.23686179969430       -4.86314567731548        1.95535568599490
H           -6.84920344048999       -3.33000753048717        3.87286336137829
H           -4.79235583432525       -1.95145279799614        3.92585395653179
H           -3.17338234631035       -2.08008440117111        2.09665463971257
H           -0.95850952896584       -4.61872382644126        0.02612942666848
H            1.15481180818944       -3.31241503375353        0.05096081699379
H           -3.18614120295735       -0.99941949499605       -0.22395365153640
H           -3.18942112754722        0.99119204006037       -0.20405038630189
H           -3.13668901181537        2.09436423527540        2.10758414976875
H           -4.72208572935624        1.97800052215106        3.96657989775919
H           -6.78563068924240        3.34755108270876        3.93614432611031
H           -7.21341272891948        4.85972160344077        2.01100883257850
H           -6.09821140427030        6.69546689330958       -2.02169261444552
H           -4.63813198634522        6.88093586951576       -4.02422472523467
H           -2.61755068662025        5.46007075348715       -4.18928766408008
H           -2.04357784694862        3.91547290612062       -2.37691143306213
H           -0.96662991842400        4.61760904674762       -0.02364921005588
H            1.14938353185115        3.31588480601053       -0.00544069833177
H            4.94843990059276        2.47421346710892        0.01842058597681
H            8.35396083561235        0.30473071057476       -1.52746460866163
H           10.62034161886523        3.41458725236396       -0.14896067614724
H            6.91519395932427        2.96874430770024        1.52557986230699
H            8.27106094668764       -0.28008607183972        1.91761424974068
H           10.60554139024345       -3.39448553402557        0.67002523903937
H            6.98566678198478       -2.96514794527568       -1.18514768035380
H            4.94660418860088       -2.46476165339024        0.19224912949473

          :  Hamiltonian                  GFN2-xTB          :
         :: gradient norm              0.000128441553 Eh/a0 ::
         :: HOMO-LUMO gap              0.693812060328 eV    ::
         :: SCC energy              -160.969769605263 Eh    ::
         :: -> dispersion             -0.137392857648 Eh    ::
         :: -> Gsolv                  -0.071856214920 Eh    ::
         :: repulsion energy           2.685870076997 Eh    ::

    * Orbital Energies and Occupations

         #    Occupation            Energy/Eh            Energy/eV
      -------------------------------------------------------------
         1        2.0000           -0.7466354             -20.3170
       ...           ...                  ...                  ...
       134        2.0000           -0.4159812             -11.3194
       135        2.0000           -0.4126639             -11.2292
       136        2.0000           -0.4065135             -11.0618
       137        2.0000           -0.4046738             -11.0117
       138        2.0000           -0.4038561             -10.9895
       139        2.0000           -0.3983183             -10.8388
       140        2.0000           -0.3934134             -10.7053
       141        2.0000           -0.3779457             -10.2844
       142        2.0000           -0.3768245             -10.2539
       143        1.8307           -0.3570696              -9.7164
       144        1.8257           -0.3570365              -9.7155
       145        1.3436           -0.3549437              -9.6585
       146        1.0000           -0.3087788              -8.4023 (HOMO)
       147        0.0000           -0.2832818              -7.7085 (LUMO)
       148        0.0000           -0.2808276              -7.6417
       149                         -0.2737696              -7.4497
       150                         -0.2671065              -7.2683
       151                         -0.2665973              -7.2545
       152                         -0.2607198              -7.0945
       153                         -0.2528431              -6.8802
       154                         -0.2528126              -6.8794
       155                         -0.2421630              -6.5896
       156                         -0.2420617              -6.5868
       157                         -0.2342190              -6.3734
       ...                                ...                  ...
       278                          0.7011268              19.0786
      -------------------------------------------------------------
                  HL-Gap            0.0254971 Eh            0.6938 eV

     #   Z          covCN         q      C6AA      α(0)
     1   6 C        2.919    -0.034    28.836     8.806
     2   6 C        2.918    -0.033    28.825     8.804
     3   6 C        2.922    -0.054    29.343     8.883
     4   6 C        2.924     0.044    27.011     8.523
     5   6 C        2.884     0.128    25.204     8.231
     6   6 C        2.918    -0.054    29.336     8.882
     7   8 O        1.709    -0.245    18.064     5.738
     8   6 C        2.884     0.128    25.203     8.230
     9   6 C        2.918    -0.054    29.331     8.881
    10   6 C        2.919    -0.034    28.840     8.806
    11   6 C        2.918    -0.033    28.827     8.804
    12   6 C        2.922    -0.055    29.378     8.888
    13   6 C        2.922     0.044    27.024     8.525
    14   7 N        2.752    -0.043    22.072     6.978
    15   6 C        2.920     0.056    26.739     8.480
    16   6 C        2.917    -0.042    29.043     8.837
    17   6 C        2.923    -0.027    28.684     8.783
    18   6 C        2.987    -0.010    28.247     8.718
    19   6 C        2.977     0.001    28.003     8.680
    20   6 C        2.922    -0.046    29.148     8.854
    21   6 C        2.977     0.001    28.003     8.680
    22   6 C        2.923    -0.046    29.148     8.854
    23   6 C        2.920     0.056    26.740     8.480
    24   7 N        2.752    -0.043    22.072     6.978
    25   6 C        2.922     0.044    27.024     8.525
    26   6 C        2.922    -0.055    29.376     8.888
    27   6 C        2.918    -0.033    28.826     8.804
    28   6 C        2.919    -0.034    28.839     8.806
    29   6 C        2.918    -0.054    29.330     8.881
    30   6 C        2.884     0.128    25.203     8.230
    31   8 O        1.709    -0.245    18.064     5.738
    32   6 C        2.884     0.128    25.205     8.231
    33   6 C        2.918    -0.054    29.336     8.882
    34   6 C        2.919    -0.034    28.837     8.806
    35   6 C        2.918    -0.033    28.826     8.804
    36   6 C        2.922    -0.054    29.344     8.883
    37   6 C        2.923     0.044    27.011     8.523
    38   6 C        2.917    -0.042    29.043     8.837
    39   6 C        2.923    -0.027    28.684     8.783
    40   6 C        2.987    -0.010    28.247     8.718
    41   6 C        2.947     0.078    26.253     8.404
    42   7 N        1.848    -0.265    27.742     7.806
    43   6 C        2.945     0.086    26.086     8.377
    44   6 C        2.924    -0.068    29.689     8.935
    45   6 C        2.973    -0.010    28.263     8.720
    46   6 C        2.965    -0.007    28.184     8.708
    47   6 C        2.938     0.078    26.264     8.405
    48   7 N        1.832    -0.250    27.361     7.751
    49   6 C        2.925     0.149    24.757     8.160
    50   7 N        1.833    -0.244    27.222     7.732
    51   6 C        2.938     0.073    26.361     8.420
    52   6 C        2.973    -0.010    28.264     8.721
    53   6 C        2.965    -0.007    28.189     8.709
    54   6 C        2.938     0.078    26.264     8.405
    55   7 N        1.832    -0.250    27.367     7.752
    56   6 C        2.925     0.149    24.758     8.160
    57   7 N        1.833    -0.244    27.227     7.732
    58   6 C        2.938     0.073    26.361     8.421
    59   6 C        2.924    -0.068    29.690     8.936
    60   6 C        2.945     0.086    26.089     8.377
    61   7 N        1.848    -0.265    27.742     7.806
    62   6 C        2.947     0.078    26.251     8.403
    63   1 H        0.926     0.052     2.292     2.367
    64   1 H        0.926     0.050     2.315     2.379
    65   1 H        0.926     0.049     2.337     2.391
    66   1 H        0.926     0.058     2.219     2.330
    67   1 H        0.926     0.058     2.220     2.330
    68   1 H        0.926     0.053     2.283     2.363
    69   1 H        0.926     0.052     2.296     2.370
    70   1 H        0.926     0.050     2.325     2.384
    71   1 H        0.926     0.048     2.345     2.395
    72   1 H        0.926     0.056     2.246     2.344
    73   1 H        0.926     0.052     2.290     2.367
    74   1 H        0.926     0.052     2.290     2.367
    75   1 H        0.926     0.050     2.326     2.385
    76   1 H        0.926     0.052     2.297     2.370
    77   1 H        0.926     0.053     2.283     2.363
    78   1 H        0.926     0.058     2.220     2.330
    79   1 H        0.926     0.058     2.219     2.330
    80   1 H        0.926     0.052     2.293     2.368
    81   1 H        0.926     0.050     2.316     2.380
    82   1 H        0.926     0.049     2.337     2.390
    83   1 H        0.926     0.048     2.345     2.395
    84   1 H        0.926     0.056     2.247     2.344
    85   1 H        0.926     0.040     2.447     2.446
    86   1 H        0.925     0.031     2.565     2.505
    87   1 H        0.925     0.046     2.365     2.405
    88   1 H        0.925     0.048     2.351     2.398
    89   1 H        0.925     0.031     2.568     2.506
    90   1 H        0.925     0.046     2.367     2.406
    91   1 H        0.925     0.047     2.352     2.398
    92   1 H        0.926     0.040     2.446     2.446

molecular dipole:
                 x           y           z       tot (Debye)
 q only:       -7.257      -0.004      -0.160
   full:       -7.531      -0.004      -0.187      19.147

 projected vibrational frequencies (cm⁻¹)
eigval :       -0.00    -0.00     0.00     0.00     0.00     0.00
eigval :        5.47    12.01    13.74    17.28    19.38    24.73
eigval :       29.56    38.37    41.88    43.32    49.68    57.43
eigval :       60.48    65.58    81.93    82.87    89.21    92.47
eigval :      106.69   108.92   114.71   121.49   126.29   142.80
eigval :      151.54   184.98   186.81   203.08   215.58   220.45
eigval :      234.12   238.47   240.03   245.89   248.12   264.46
eigval :      268.28   288.01   290.95   292.47   302.43   311.26
eigval :      337.69   349.99   371.14   375.15   377.07   379.16
eigval :      383.49   391.46   396.43   416.77   418.66   419.64
eigval :      429.28   430.46   435.28   436.35   442.55   446.72
eigval :      453.53   470.90   474.16   486.01   502.33   503.08
eigval :      504.18   512.48   517.26   526.00   528.23   536.69
eigval :      560.14   566.79   570.59   577.08   585.76   586.49
eigval :      596.64   607.39   611.57   616.51   623.21   626.38
eigval :      628.31   637.76   658.99   662.76   663.92   665.45
eigval :      666.65   668.25   669.85   682.75   697.36   703.00
eigval :      704.00   708.47   710.58   724.86   742.22   749.51
eigval :      764.74   774.40   778.67   780.63   780.91   799.27
eigval :      812.62   817.05   820.66   823.50   824.66   828.41
eigval :      833.34   854.49   854.67   856.63   858.78   864.27
eigval :      869.57   870.10   870.37   879.27   899.26   901.11
eigval :      903.38   903.96   904.32   911.94   913.07   913.31
eigval :      914.96   915.39   916.80   917.04   917.11   920.47
eigval :      920.99   924.32   927.56   954.75   961.14   997.58
eigval :     1016.31  1030.84  1038.71  1064.43  1083.09  1084.94
eigval :     1085.22  1085.80  1086.57  1110.61  1111.10  1115.65
eigval :     1121.56  1136.73  1139.52  1144.45  1146.65  1164.46
eigval :     1165.76  1171.11  1172.20  1176.34  1178.05  1179.76
eigval :     1182.61  1194.37  1200.00  1200.16  1203.22  1204.18
eigval :     1222.24  1227.16  1230.01  1234.38  1237.91  1238.55
eigval :     1243.93  1248.64  1250.81  1253.30  1253.78  1254.91
eigval :     1255.66  1262.25  1283.35  1289.80  1295.34  1296.87
eigval :     1307.21  1307.61  1309.34  1311.82  1318.15  1320.24
eigval :     1334.66  1338.01  1343.71  1347.70  1351.13  1378.76
eigval :     1382.33  1394.26  1396.19  1403.74  1415.75  1417.51
eigval :     1418.72  1431.61  1432.05  1440.10  1441.02  1451.47
eigval :     1452.04  1455.47  1466.89  1470.42  1472.31  1486.44
eigval :     1495.71  1511.80  1512.68  1527.49  1529.65  1530.56
eigval :     1542.42  1551.79  1559.15  1559.24  1564.47  1566.73
eigval :     1566.91  1572.07  1576.49  1577.27  1587.37  1590.00
eigval :     3037.56  3038.38  3045.52  3046.05  3062.29  3062.52
eigval :     3087.57  3088.13  3090.91  3091.02  3093.61  3093.84
eigval :     3094.42  3095.14  3101.05  3101.87  3102.05  3102.15
eigval :     3102.39  3103.51  3103.73  3109.49  3109.52  3109.96
eigval :     3110.43  3111.56  3113.66  3113.81  3113.93  3114.65

   temp. (K)  partition function   enthalpy   heat capacity  entropy
                                   cal/mol     cal/K/mol   cal/K/mol   J/K/mol
 298.15  VIB  0.256E+23            27925.311    175.537    174.539
         ROT  0.226E+09              888.752      2.981     41.204
         INT  0.578E+31            28814.063    178.518    215.743
         TR   0.218E+29             1481.254      4.968     45.891
         TOT                       30295.3170   183.4864   261.6343  1094.6778

       T/K    H(0)-H(T)+PV         H(T)/Eh          T*S/Eh         G(T)/Eh
   ------------------------------------------------------------------------
    298.15    0.482787E-01    0.718872E+00    0.124311E+00    0.594561E+00
   ------------------------------------------------------------------------

         :::::::::::::::::::::::::::::::::::::::::::::::::::::
         ::                  THERMODYNAMIC                  ::
         :::::::::::::::::::::::::::::::::::::::::::::::::::::
         :: total free energy        -157.689338279942 Eh   ::
         ::.................................................::
         :: total energy             -158.283899532203 Eh   ::
         :: zero point energy           0.670593482500 Eh   ::
         :: G(RRHO) w/o ZPVE           -0.076032230239 Eh   ::
         :: G(RRHO) contrib.            0.594561252261 Eh   ::
         :::::::::::::::::::::::::::::::::::::::::::::::::::::

           -------------------------------------------------
          | TOTAL ENERGY             -158.283899532203 Eh   |
          | TOTAL ENTHALPY           -157.565027389068 Eh   |
          | TOTAL FREE ENERGY        -157.689338279942 Eh   |
          | GRADIENT NORM               0.000129848302 Eh/α |
          | HOMO-LUMO GAP               0.693810532952 eV   |
           -------------------------------------------------

 * finished run on 2025/08/22 at 18:20:57.661
