   * xtb version 6.7.1 (edcfbbe) compiled by 'albert@albert-system' on 2024-07-22

   ID    Z sym.   atoms
    1    6 C      1-6, 8-13, 15-23, 25-30, 32-41, 43-47, 49, 51-54, 56,
                  58-60, 62
    2    8 O      7, 31
    3    7 N      14, 24, 42, 48, 50, 55, 57, 61
    4    1 H      63-92

          program call               : xtb data2507/toluene/DPIBPZ-DPXZ/DPIBPZ-DPXZ_toluene_S0_finalOpt.xtbopt.xyz --gfn 2 --uhf 2 --gbsa toluene --ohess vtight --parallel 40 --molden --ceasefiles --namespace data2507/toluene/DPIBPZ-DPXZ/DPIBPZ-DPXZ_toluene_T1_preOpt
      * Solvation model:               GBSA
        Solvent                        toluene
        Solvent mass                       9.2140E+01 g/mol
          :  Hamiltonian                  GFN2-xTB          :
 * total energy  :  -158.2808132 Eh     change       -0.3745865E-07 Eh
 * total energy  :  -158.2829128 Eh     change       -0.2099601E-02 Eh
 * total energy  :  -158.2835412 Eh     change       -0.6283959E-03 Eh
 * total energy  :  -158.2836212 Eh     change       -0.7999505E-04 Eh
 * total energy  :  -158.2836853 Eh     change       -0.6408820E-04 Eh
 * total energy  :  -158.2837073 Eh     change       -0.2204965E-04 Eh
 * total energy  :  -158.2837341 Eh     change       -0.2677244E-04 Eh
 * total energy  :  -158.2837495 Eh     change       -0.1539320E-04 Eh
 * total energy  :  -158.2837617 Eh     change       -0.1217440E-04 Eh
 * total energy  :  -158.2837688 Eh     change       -0.7145713E-05 Eh
 * total energy  :  -158.2838800 Eh     change       -0.8661392E-06 Eh
 * total energy  :  -158.2838809 Eh     change       -0.9502473E-06 Eh
 * total energy  :  -158.2838821 Eh     change       -0.1209260E-05 Eh
 * total energy  :  -158.2838836 Eh     change       -0.1472663E-05 Eh
 * total energy  :  -158.2838851 Eh     change       -0.1514009E-05 Eh
 * total energy  :  -158.2838863 Eh     change       -0.1162425E-05 Eh
 * total energy  :  -158.2838870 Eh     change       -0.7811759E-06 Eh
 * total energy  :  -158.2838876 Eh     change       -0.5874097E-06 Eh
 * total energy  :  -158.2838876 Eh     change       -0.1727955E-08 Eh
   *** GEOMETRY OPTIMIZATION CONVERGED AFTER 44 ITERATIONS ***

 final structure:
================
92
 xtb: 6.7.1 (edcfbbe)
C           -6.15936012177084       -3.39121718821879       -3.02346952045201
C           -5.01233477511626       -2.61774883419980       -3.05843134365799
C           -4.09290326582758       -2.67713008467286       -2.02538247680134
C           -4.30879935344917       -3.50616172070305       -0.92721013688704
C           -5.46444635642354       -4.30529154530256       -0.91430893834283
C           -6.37929656123619       -4.24138707588348       -1.95199198934403
O           -5.73507840634601       -5.18479308464454        0.10042348908974
C           -4.85008276220798       -5.24682133391461        1.14364057889206
C           -5.14689929580083       -6.12218209685124        2.17454839105310
C           -4.30629842899583       -6.21478972386320        3.27213648004855
C           -3.17747590197284       -5.41672935948135        3.34033402568825
C           -2.87294759148299       -4.54155999639916        2.31208552434159
C           -3.69060951909430       -4.45531384667358        1.18805207581900
N           -3.41268159352935       -3.59060693390750        0.13466388227196
C           -2.20082288678317       -2.85628175442504        0.11733227623353
C           -0.97755660897318       -3.53942573708344        0.04012701735399
C            0.18768732349636       -2.82272860692575        0.01017958968817
C            0.17973057257378       -1.41786809598123        0.03522417966218
C           -1.05143103799936       -0.72094924032629        0.10769104080259
C           -2.22944578227224       -1.47835120038145        0.16235424213750
C           -1.05075011504619        0.72195497217473        0.10331705465187
C           -2.22810156408042        1.48089864052303        0.15161107347246
C           -2.19769221913400        2.85851200570729        0.09979637497696
N           -3.40843798843934        3.59486912512446        0.11505370190815
C           -3.68499558985831        4.46101802821703        1.16760375490423
C           -2.86645141852456        4.54794824558041        2.29093649865572
C           -3.16926675711435        5.42498151357522        3.31807994227060
C           -4.29716875844606        6.22430387643715        3.24938794921637
C           -5.13871457882151        6.13094368433617        2.15257402661447
C           -4.84372857896800        5.25356231293177        1.12285482627853
O           -5.72971954052550        5.19048861394428        0.08050726956061
C           -5.46035775232264        4.30956481043042       -0.93334012390832
C           -6.37609009160229        4.24455797919036       -1.97015501337332
C           -6.15698190332301        3.39324858546229       -3.04092375622595
C           -5.00998207042418        2.61972035310868       -3.07607875708893
C           -4.08985960902701        2.67981189133189       -2.04366471117907
C           -4.30499002578100        3.50998443846013       -0.94622315066279
C           -0.97364385655892        3.53989175337013        0.01997412843992
C            0.19086984213009        2.82178029059514       -0.00436761581787
C            0.18124258728218        1.41715939540568        0.02930851163442
C            1.42315796247111        0.70842290939322       -0.02003019949607
N            2.57314165027335        1.38080977052041       -0.06864353107148
C            3.73294431452644        0.71720807602419       -0.10586319736254
C            4.95527507324350        1.38855553689473       -0.15688453503748
C            6.16217879486220        0.70075120748844       -0.19931879475153
C            7.40679802244002        1.45689511587372       -0.32571200744751
C            8.39510625933810        1.13755808180953       -1.26364723909084
N            9.51927587080410        1.82013676154191       -1.37648328028952
C            9.67678242313013        2.85090785999683       -0.56291587479559
N            8.80476121248616        3.27553564338638        0.33446612835741
C            7.68295215638754        2.58720936041980        0.44971610314520
C            6.16179941169502       -0.70853790353626       -0.17827698606642
C            7.41016161077407       -1.46707308564798       -0.12059817734476
C            8.44300047298733       -1.15460095793743        0.77034460654901
N            9.56996661033799       -1.83971609017310        0.82511286573146
C            9.68584037769985       -2.86599183510011       -0.00104521744245
N            8.77040110317335       -3.28444474790344       -0.85705781782111
C            7.64548178217342       -2.59382873509823       -0.91417541370156
C            4.95406609787752       -1.39508180004824       -0.14536196550578
C            3.73179924841239       -0.72235642928217       -0.10983929083895
N            2.57132083781258       -1.38452956468103       -0.07438454585604
C            1.42221570814355       -0.71076139823644       -0.02007733841081
H           -6.87723565251988       -3.34497186312720       -3.82674290916741
H           -4.82242927567354       -1.96414535064981       -3.89539818707638
H           -3.19442774853768       -2.08325477373318       -2.07365773857882
H           -7.25367962039996       -4.87053467389187       -1.90079892032718
H           -6.04238694409997       -6.71812003639215        2.09771726457012
H           -4.54152852737600       -6.90061838607157        4.07033283428070
H           -2.52609670550656       -5.46880535635778        4.19886119191864
H           -1.99643817379889       -3.91701194447136        2.37925926525059
H           -0.96899497821438       -4.61796095679949       -0.00087404834202
H            1.14597039908942       -3.31523614080005       -0.04919802753599
H           -3.18954609918558       -0.99340096382171        0.23649862012385
H           -3.18894145286934        0.99746874729347        0.22610324895896
H           -1.99058230063667        3.92255334564868        2.35839489449544
H           -2.51729774274244        5.47747717725264        4.17612327549797
H           -4.53098016446509        6.91167578483466        4.04666817010685
H           -6.03355950601379        6.72780891952388        2.07550621641766
H           -7.25045977610244        4.87372955863134       -1.91892157458875
H           -6.87552198768737        3.34620522243213       -3.84356682821732
H           -4.82072816684577        1.96553329916084       -3.91273959698435
H           -3.19148268390236        2.08571749441052       -2.09166919674692
H           -0.96394563224715        4.61816388053758       -0.02719095056150
H            1.14975418131251        3.31285909497146       -0.06580564638502
H            4.94307119253539        2.46741222571207       -0.19269066999884
H            8.26727420503947        0.31620185886151       -1.95880482844415
H           10.60262272745098        3.40413630676391       -0.64855976654863
H            6.98308295929815        2.93784270897143        1.19830562633292
H            8.34985505563601       -0.33675030043251        1.47512400897566
H           10.61366390982586       -3.42127020922895        0.03662208341030
H            6.90891703376227       -2.93970326779719       -1.62906925906458
H            4.94343704013324       -2.47391048844696       -0.10697716674457

          :  Hamiltonian                  GFN2-xTB          :
         :: gradient norm              0.000046450198 Eh/a0 ::
         :: HOMO-LUMO gap              0.694388343972 eV    ::
         :: SCC energy              -160.969758816806 Eh    ::
         :: -> dispersion             -0.137394585498 Eh    ::
         :: -> Gsolv                  -0.071848574168 Eh    ::
         :: repulsion energy           2.685871185115 Eh    ::

    * Orbital Energies and Occupations

         #    Occupation            Energy/Eh            Energy/eV
      -------------------------------------------------------------
         1        2.0000           -0.7466329             -20.3169
       ...           ...                  ...                  ...
       134        2.0000           -0.4159832             -11.3195
       135        2.0000           -0.4126761             -11.2295
       136        2.0000           -0.4065125             -11.0618
       137        2.0000           -0.4046735             -11.0117
       138        2.0000           -0.4038551             -10.9895
       139        2.0000           -0.3983237             -10.8389
       140        2.0000           -0.3934143             -10.7053
       141        2.0000           -0.3779561             -10.2847
       142        2.0000           -0.3768328             -10.2541
       143        1.8306           -0.3570674              -9.7163
       144        1.8253           -0.3570322              -9.7153
       145        1.3440           -0.3549436              -9.6585
       146        1.0000           -0.3087762              -8.4022 (HOMO)
       147        0.0000           -0.2832576              -7.7078 (LUMO)
       148        0.0000           -0.2808284              -7.6417
       149                         -0.2737954              -7.4504
       150                         -0.2671107              -7.2685
       151                         -0.2665862              -7.2542
       152                         -0.2607264              -7.0947
       153                         -0.2528387              -6.8801
       154                         -0.2528091              -6.8793
       155                         -0.2421606              -6.5895
       156                         -0.2420587              -6.5868
       157                         -0.2342171              -6.3734
       ...                                ...                  ...
       278                          0.7011155              19.0783
      -------------------------------------------------------------
                  HL-Gap            0.0255186 Eh            0.6944 eV

     #   Z          covCN         q      C6AA      α(0)
     1   6 C        2.919    -0.034    28.839     8.806
     2   6 C        2.918    -0.033    28.827     8.804
     3   6 C        2.922    -0.055    29.378     8.888
     4   6 C        2.922     0.044    27.024     8.525
     5   6 C        2.884     0.128    25.203     8.230
     6   6 C        2.918    -0.054    29.330     8.881
     7   8 O        1.709    -0.245    18.064     5.738
     8   6 C        2.884     0.128    25.204     8.231
     9   6 C        2.918    -0.054    29.336     8.882
    10   6 C        2.919    -0.034    28.836     8.806
    11   6 C        2.918    -0.033    28.826     8.804
    12   6 C        2.922    -0.054    29.343     8.883
    13   6 C        2.924     0.044    27.011     8.523
    14   7 N        2.752    -0.043    22.072     6.978
    15   6 C        2.920     0.056    26.740     8.480
    16   6 C        2.917    -0.042    29.043     8.837
    17   6 C        2.923    -0.027    28.684     8.783
    18   6 C        2.987    -0.010    28.248     8.718
    19   6 C        2.977     0.001    28.003     8.680
    20   6 C        2.922    -0.046    29.149     8.854
    21   6 C        2.977     0.001    28.003     8.680
    22   6 C        2.922    -0.046    29.148     8.854
    23   6 C        2.920     0.056    26.739     8.480
    24   7 N        2.752    -0.043    22.072     6.978
    25   6 C        2.924     0.044    27.011     8.523
    26   6 C        2.922    -0.054    29.343     8.883
    27   6 C        2.918    -0.033    28.825     8.804
    28   6 C        2.919    -0.034    28.836     8.806
    29   6 C        2.918    -0.054    29.336     8.882
    30   6 C        2.884     0.128    25.204     8.231
    31   8 O        1.709    -0.245    18.064     5.738
    32   6 C        2.884     0.128    25.204     8.230
    33   6 C        2.918    -0.054    29.330     8.881
    34   6 C        2.919    -0.034    28.840     8.806
    35   6 C        2.918    -0.033    28.827     8.804
    36   6 C        2.922    -0.055    29.377     8.888
    37   6 C        2.922     0.044    27.024     8.525
    38   6 C        2.917    -0.042    29.043     8.837
    39   6 C        2.923    -0.027    28.684     8.783
    40   6 C        2.987    -0.010    28.247     8.718
    41   6 C        2.947     0.078    26.251     8.403
    42   7 N        1.848    -0.265    27.743     7.806
    43   6 C        2.945     0.086    26.089     8.377
    44   6 C        2.924    -0.068    29.690     8.936
    45   6 C        2.973    -0.010    28.264     8.721
    46   6 C        2.965    -0.007    28.189     8.709
    47   6 C        2.938     0.078    26.265     8.405
    48   7 N        1.832    -0.250    27.366     7.752
    49   6 C        2.925     0.149    24.758     8.160
    50   7 N        1.833    -0.244    27.227     7.732
    51   6 C        2.938     0.073    26.361     8.421
    52   6 C        2.973    -0.010    28.263     8.720
    53   6 C        2.966    -0.007    28.184     8.708
    54   6 C        2.938     0.078    26.264     8.405
    55   7 N        1.832    -0.250    27.360     7.751
    56   6 C        2.925     0.149    24.757     8.160
    57   7 N        1.833    -0.244    27.221     7.732
    58   6 C        2.938     0.073    26.361     8.420
    59   6 C        2.924    -0.068    29.689     8.935
    60   6 C        2.945     0.086    26.086     8.377
    61   7 N        1.848    -0.265    27.742     7.806
    62   6 C        2.947     0.078    26.253     8.404
    63   1 H        0.926     0.053     2.283     2.363
    64   1 H        0.926     0.052     2.296     2.370
    65   1 H        0.926     0.050     2.324     2.384
    66   1 H        0.926     0.058     2.220     2.330
    67   1 H        0.926     0.058     2.219     2.329
    68   1 H        0.926     0.052     2.292     2.368
    69   1 H        0.926     0.050     2.317     2.380
    70   1 H        0.926     0.049     2.338     2.391
    71   1 H        0.926     0.048     2.346     2.395
    72   1 H        0.926     0.056     2.247     2.344
    73   1 H        0.926     0.052     2.290     2.366
    74   1 H        0.926     0.052     2.290     2.366
    75   1 H        0.926     0.049     2.337     2.391
    76   1 H        0.926     0.050     2.315     2.379
    77   1 H        0.926     0.052     2.292     2.367
    78   1 H        0.926     0.058     2.219     2.330
    79   1 H        0.926     0.058     2.221     2.330
    80   1 H        0.926     0.053     2.284     2.363
    81   1 H        0.926     0.052     2.297     2.370
    82   1 H        0.926     0.050     2.325     2.385
    83   1 H        0.926     0.048     2.346     2.395
    84   1 H        0.926     0.056     2.247     2.344
    85   1 H        0.926     0.040     2.446     2.446
    86   1 H        0.925     0.031     2.567     2.506
    87   1 H        0.925     0.046     2.367     2.406
    88   1 H        0.925     0.047     2.352     2.398
    89   1 H        0.925     0.031     2.565     2.505
    90   1 H        0.925     0.046     2.365     2.405
    91   1 H        0.925     0.048     2.351     2.398
    92   1 H        0.926     0.040     2.448     2.447

molecular dipole:
                 x           y           z       tot (Debye)
 q only:       -7.256       0.004       0.207
   full:       -7.529       0.003       0.232      19.146

 projected vibrational frequencies (cm⁻¹)
eigval :       -0.00    -0.00     0.00     0.00     0.00     0.00
eigval :        2.66    10.87    12.05    16.91    19.68    24.82
eigval :       30.30    38.79    41.74    43.52    48.53    57.34
eigval :       60.05    65.54    82.65    83.86    89.73    93.17
eigval :      106.98   108.49   114.60   122.41   126.64   142.31
eigval :      152.03   184.69   186.39   203.19   215.66   220.23
eigval :      234.27   238.45   240.12   245.74   247.63   263.89
eigval :      268.54   287.22   291.04   292.65   302.68   311.66
eigval :      337.31   350.84   371.07   375.63   376.77   379.13
eigval :      384.88   391.48   396.11   416.89   418.48   419.84
eigval :      429.12   429.91   435.31   436.22   442.52   445.98
eigval :      453.50   470.68   474.08   486.20   502.46   502.92
eigval :      504.17   512.46   517.19   526.06   528.32   536.47
eigval :      560.02   566.95   570.56   577.14   585.71   586.30
eigval :      596.87   607.33   611.57   616.46   623.22   626.56
eigval :      628.41   637.83   658.85   662.73   663.81   665.40
eigval :      666.46   668.15   669.87   683.46   697.14   702.97
eigval :      704.13   708.60   709.95   725.79   742.23   749.61
eigval :      764.73   773.47   776.79   780.64   781.02   799.24
eigval :      812.06   816.57   820.68   823.55   824.76   828.23
eigval :      833.02   854.46   854.65   856.43   858.86   863.40
eigval :      868.93   870.28   870.36   879.31   899.25   900.52
eigval :      902.69   903.99   904.10   911.97   912.61   912.64
eigval :      915.04   915.26   915.50   917.29   917.76   921.22
eigval :      921.54   923.97   927.63   954.70   961.16   997.69
eigval :     1016.29  1030.89  1038.76  1064.28  1083.03  1085.35
eigval :     1085.57  1086.55  1087.13  1110.56  1110.97  1115.91
eigval :     1121.67  1136.79  1139.78  1144.84  1147.08  1164.71
eigval :     1165.99  1171.15  1172.34  1176.54  1178.36  1179.62
eigval :     1182.51  1194.40  1200.09  1200.22  1203.73  1204.27
eigval :     1222.20  1227.23  1230.03  1234.44  1238.44  1238.75
eigval :     1243.70  1248.97  1250.65  1253.80  1254.54  1255.39
eigval :     1255.99  1262.31  1283.66  1289.80  1295.36  1296.93
eigval :     1307.30  1307.72  1309.30  1312.00  1318.18  1320.27
eigval :     1334.65  1338.03  1343.66  1347.71  1351.21  1378.91
eigval :     1382.55  1394.36  1396.30  1403.85  1415.75  1417.41
eigval :     1418.64  1431.64  1432.13  1439.98  1440.88  1451.61
eigval :     1452.15  1455.54  1466.46  1470.40  1472.57  1486.48
eigval :     1495.79  1511.84  1512.78  1527.57  1529.77  1530.67
eigval :     1542.47  1551.77  1559.18  1559.23  1564.65  1566.67
eigval :     1566.84  1572.10  1576.58  1577.29  1587.44  1589.94
eigval :     3037.52  3038.50  3045.52  3046.07  3062.10  3062.13
eigval :     3087.38  3087.93  3090.96  3090.98  3093.63  3093.75
eigval :     3094.27  3095.00  3101.19  3101.98  3102.03  3102.12
eigval :     3102.22  3103.54  3103.77  3109.29  3109.40  3110.07
eigval :     3110.24  3111.69  3113.71  3113.78  3113.86  3114.49

   temp. (K)  partition function   enthalpy   heat capacity  entropy
                                   cal/mol     cal/K/mol   cal/K/mol   J/K/mol
 298.15  VIB  0.632E+23            27930.831    175.540    175.422
         ROT  0.226E+09              888.752      2.981     41.205
         INT  0.143E+32            28819.583    178.521    216.627
         TR   0.218E+29             1481.254      4.968     45.891
         TOT                       30300.8371   183.4890   262.5186  1098.3780

       T/K    H(0)-H(T)+PV         H(T)/Eh          T*S/Eh         G(T)/Eh
   ------------------------------------------------------------------------
    298.15    0.482875E-01    0.718877E+00    0.124731E+00    0.594146E+00
   ------------------------------------------------------------------------

         :::::::::::::::::::::::::::::::::::::::::::::::::::::
         ::                  THERMODYNAMIC                  ::
         :::::::::::::::::::::::::::::::::::::::::::::::::::::
         :: total free energy        -157.689741941061 Eh   ::
         ::.................................................::
         :: total energy             -158.283887625896 Eh   ::
         :: zero point energy           0.670589304358 Eh   ::
         :: G(RRHO) w/o ZPVE           -0.076443619523 Eh   ::
         :: G(RRHO) contrib.            0.594145684835 Eh   ::
         :::::::::::::::::::::::::::::::::::::::::::::::::::::

           -------------------------------------------------
          | TOTAL ENERGY             -158.283887625896 Eh   |
          | TOTAL ENTHALPY           -157.565010863949 Eh   |
          | TOTAL FREE ENERGY        -157.689741941061 Eh   |
          | GRADIENT NORM               0.000050434000 Eh/α |
          | HOMO-LUMO GAP               0.694396292437 eV   |
           -------------------------------------------------

 * finished run on 2025/08/22 at 18:12:40.327
