   * xtb version 6.7.1 (edcfbbe) compiled by 'albert@albert-system' on 2024-07-22

   ID    Z sym.   atoms
    1    6 C      1-6, 8-13, 15-23, 25-30, 32-41, 43-47, 49, 51-54, 56,
                  58-60, 62
    2    8 O      7, 31
    3    7 N      14, 24, 42, 48, 50, 55, 57, 61
    4    1 H      63-92

          program call               : xtb data2507/toluene/DPIBPZ-DPXZ/DPIBPZ-DPXZ.xyz --gfn 2 --gbsa toluene --ohess vtight --parallel 40 --molden --ceasefiles --namespace data2507/toluene/DPIBPZ-DPXZ/DPIBPZ-DPXZ_toluene_S0_preOpt
      * Solvation model:               GBSA
        Solvent                        toluene
        Solvent mass                       9.2140E+01 g/mol
          :  Hamiltonian                  GFN2-xTB          :
 * total energy  :  -158.2870216 Eh     change       -0.4683756E-08 Eh
 * total energy  :  -158.3086889 Eh     change       -0.2166726E-01 Eh
 * total energy  :  -158.3152263 Eh     change       -0.6537403E-02 Eh
 * total energy  :  -158.3171596 Eh     change       -0.1933304E-02 Eh
 * total energy  :  -158.3187179 Eh     change       -0.1558343E-02 Eh
 * total energy  :  -158.3193353 Eh     change       -0.6173397E-03 Eh
 * total energy  :  -158.3195988 Eh     change       -0.2634757E-03 Eh
 * total energy  :  -158.3197753 Eh     change       -0.1765575E-03 Eh
 * total energy  :  -158.3199757 Eh     change       -0.2003675E-03 Eh
 * total energy  :  -158.3201848 Eh     change       -0.2091222E-03 Eh
 * total energy  :  -158.3232485 Eh     change       -0.5932646E-06 Eh
 * total energy  :  -158.3232491 Eh     change       -0.5664509E-06 Eh
 * total energy  :  -158.3232495 Eh     change       -0.4073883E-06 Eh
 * total energy  :  -158.3232497 Eh     change       -0.2544076E-06 Eh
 * total energy  :  -158.3232499 Eh     change       -0.1914455E-06 Eh
 * total energy  :  -158.3232501 Eh     change       -0.1620742E-06 Eh
 * total energy  :  -158.3232502 Eh     change       -0.1424581E-06 Eh
 * total energy  :  -158.3232504 Eh     change       -0.1346593E-06 Eh
 * total energy  :  -158.3232504 Eh     change       -0.1153552E-08 Eh
   *** GEOMETRY OPTIMIZATION CONVERGED AFTER 122 ITERATIONS ***

 final structure:
================
92
 xtb: 6.7.1 (edcfbbe)
C           -4.14347228764910       -6.21059396327460        3.23813562025385
C           -3.02069673403977       -5.41170463992950        3.32536332329108
C           -2.70055536389671       -4.53697953410504        2.29834731822688
C           -3.49189253216805       -4.45563031813025        1.15842772003189
C           -4.64979778898258       -5.24201665304799        1.09855940655396
C           -4.96424994872111       -6.11519652651942        2.12403573727295
O           -5.53008452353587       -5.17814501226904        0.04479195679068
C           -5.23791499638347       -4.29972551585091       -0.97157467853379
C           -6.13380880214157       -4.24761292519618       -2.02413352231964
C           -5.89678774485237       -3.41267764403296       -3.10593873028564
C           -4.74802434914773       -2.64764427710586       -3.13271541477044
C           -3.84733831235369       -2.69638895854259       -2.07944395663199
C           -4.08522664816236       -3.50209205226200       -0.97185591866526
N           -3.19793450997522       -3.57974302669628        0.10795213943041
C           -1.98719954103068       -2.85959947489255        0.09939940100127
C           -0.76638739711853       -3.54241215723010        0.11872205424746
C            0.40559776539084       -2.82886403471164        0.09767321752757
C            0.39853280117291       -1.42986116688891        0.04873433402466
C           -0.82476573667746       -0.72838637179782        0.02562787529090
C           -2.00523534282760       -1.47380245486455        0.06344366585570
C           -0.82490135214201        0.72826060499221       -0.02674939957134
C           -2.00551704358023        1.47349831670219       -0.06339658022471
C           -1.98773752792419        2.85930605197423       -0.09916937986576
N           -3.19862094596520        3.57921811944110       -0.10617144639314
C           -4.08461616534910        3.50110042193175        0.97467458717818
C           -3.84518345898529        2.69524977894506        2.08182353281742
C           -4.74459988859964        2.64603269979698        3.13615636169961
C           -5.89360166498035        3.41075789893208        3.11090975699078
C           -6.13214275639164        4.24584134702310        2.02955266691099
C           -5.23753327447639        4.29840224943333        0.97592336306724
O           -5.53118564399591        5.17690635632966       -0.03994282962786
C           -4.65211103994963        5.24130806022600       -1.09469004853702
C           -4.96801353563457        6.11463664318894       -2.11959346765262
C           -4.14853846418571        6.21056931095937       -3.23460513542327
C           -3.02561328387941        5.41205347153357       -3.32331276344701
C           -2.70401912893024        4.53718149406917       -2.29687537304525
C           -3.49403333469363        4.45529356635652       -1.15607810641504
C           -0.76705376205401        3.54231033444191       -0.11969589554787
C            0.40506117044753        2.82893664239590       -0.09982331683918
C            0.39826474572654        1.42993308918712       -0.05088379873509
C            1.65183563743898        0.71538666706377       -0.02677068991290
N            2.78131281412698        1.39999727432477       -0.05410645352855
C            3.93338380344800        0.71275416759980       -0.02912076889672
C            5.16234638456358        1.39939280932388       -0.06413638496480
C            6.35104115698246        0.71227996273739       -0.04214504375982
C            7.61475369730683        1.45017346178579       -0.14704212871686
C            8.60015596350262        1.12738343374093       -1.08384801539690
N            9.73919163248113        1.78922405011425       -1.17211378376704
C            9.91206837355152        2.79858302361386       -0.33666150802681
N            9.04225777564713        3.22145501429272        0.56257805348891
C            7.90582711702955        2.55447368077346        0.65717191741939
C            6.35117985496997       -0.71117683977465        0.03762666908889
C            7.61505536269821       -1.44881146220837        0.14239428596284
C            8.60046052488513       -1.12580824769541        1.07912506103444
N            9.73966807504426       -1.78736909727158        1.16726924137337
C            9.91270987786177       -2.79667307390980        0.33178451679876
N            9.04290414750186       -3.21975960798010       -0.56735840021983
C            7.90630608211431       -2.55304655021583       -0.66184263825393
C            5.16261611337221       -1.39851047886305        0.05980724387357
C            3.93351924745379       -0.71209209962155        0.02511439837339
N            2.78157476578754       -1.39953109599168        0.05054862354041
C            1.65196961050529       -0.71510815404431        0.02378781106746
H           -4.39429031217848       -6.89727425805497        4.03111404713481
H           -2.38414432339614       -5.45788093336328        4.19559466285995
H           -1.82879807082536       -3.90813943605029        2.38719038972908
H           -5.86018261482995       -6.70884896359630        2.03200248163416
H           -7.00932819852266       -4.87617241669531       -1.97937585645731
H           -6.60284938838327       -3.37686483793706       -3.92045723389459
H           -4.53688375307648       -2.00811594244050       -3.97600098899421
H           -2.94416694092899       -2.10926145599272       -2.12911597315555
H           -0.75717333035221       -4.62152284423448        0.14086168887183
H            1.36156817303338       -3.32800181526724        0.10593816142237
H           -2.96555889894715       -0.98438892496493        0.07315234815158
H           -2.96577690363848        0.98394230017760       -0.07220922037525
H           -2.94179986096883        2.10835060917110        2.13030323492739
H           -4.53228311493100        2.00636934780972        3.97904322331006
H           -6.59869359703882        3.37458423865668        3.92625093855897
H           -7.00787910815308        4.87418143858112        1.98598580525644
H           -5.86403830630318        6.70796825727836       -2.02639993299832
H           -4.40048399001439        6.89735827849613       -4.02713099069985
H           -2.39004522533171        5.45867608230666       -4.19423774951450
H           -1.83216293675002        3.90864512227819       -2.38686359040111
H           -0.75801824743155        4.62142396710212       -0.14175856006140
H            1.36094547760205        3.32822413134515       -0.10896413362471
H            5.14347766257595        2.47630085496581       -0.13486408248474
H            8.46147586251328        0.32339656854371       -1.79648114305366
H           10.85029567579209        3.33336387140746       -0.40286510523484
H            7.20821504764250        2.90132673448481        1.40937114799430
H            8.46165591630790       -0.32185809990201        1.79177577410559
H           10.85109101210891       -3.33119988665126        0.39786092003538
H            7.20867819943270       -2.90010413258640       -1.41393266665064
H            5.14395842540200       -2.47542144318857        0.13055012111756

          :  Hamiltonian                  GFN2-xTB          :
         :: gradient norm              0.000022744461 Eh/a0 ::
         :: HOMO-LUMO gap              0.764187166636 eV    ::
         :: SCC energy              -161.011198413137 Eh    ::
         :: -> dispersion             -0.136845159643 Eh    ::
         :: -> Gsolv                  -0.065745996653 Eh    ::
         :: repulsion energy           2.687948038650 Eh    ::

    * Orbital Energies and Occupations

         #    Occupation            Energy/Eh            Energy/eV
      -------------------------------------------------------------
         1        2.0000           -0.7337489             -19.9663
       ...           ...                  ...                  ...
       133        2.0000           -0.4197698             -11.4225
       134        2.0000           -0.4184286             -11.3860
       135        2.0000           -0.4168632             -11.3434
       136        2.0000           -0.4166219             -11.3369
       137        2.0000           -0.4092694             -11.1368
       138        2.0000           -0.4062560             -11.0548
       139        2.0000           -0.3945540             -10.7364
       140        2.0000           -0.3943621             -10.7311
       141        2.0000           -0.3876902             -10.5496
       142        2.0000           -0.3860962             -10.5062
       143        2.0000           -0.3670421              -9.9877
       144        2.0000           -0.3487860              -9.4910
       145        2.0000           -0.3486580              -9.4875 (HOMO)
       146        0.0000           -0.3205746              -8.7233 (LUMO)
       147                         -0.2938482              -7.9960
       148                         -0.2907481              -7.9117
       149                         -0.2854099              -7.7664
       150                         -0.2767046              -7.5295
       151                         -0.2747766              -7.4771
       152                         -0.2687678              -7.3135
       153                         -0.2429398              -6.6107
       154                         -0.2426624              -6.6032
       155                         -0.2420310              -6.5860
       156                         -0.2341377              -6.3712
       ...                                ...                  ...
       278                          0.6965358              18.9537
      -------------------------------------------------------------
                  HL-Gap            0.0280834 Eh            0.7642 eV

     #   Z          covCN         q      C6AA      α(0)
     1   6 C        2.919    -0.040    28.982     8.828
     2   6 C        2.919    -0.038    28.954     8.824
     3   6 C        2.924    -0.059    29.474     8.903
     4   6 C        2.921     0.041    27.076     8.533
     5   6 C        2.883     0.123    25.289     8.244
     6   6 C        2.919    -0.057    29.419     8.894
     7   8 O        1.708    -0.269    18.453     5.800
     8   6 C        2.883     0.123    25.289     8.244
     9   6 C        2.920    -0.057    29.417     8.894
    10   6 C        2.919    -0.040    28.987     8.829
    11   6 C        2.919    -0.039    28.960     8.825
    12   6 C        2.924    -0.061    29.513     8.909
    13   6 C        2.920     0.041    27.079     8.534
    14   7 N        2.751    -0.067    22.548     7.052
    15   6 C        2.919     0.069    26.450     8.434
    16   6 C        2.918    -0.039    28.965     8.826
    17   6 C        2.923    -0.026    28.652     8.778
    18   6 C        2.987    -0.008    28.213     8.713
    19   6 C        2.975     0.009    27.804     8.649
    20   6 C        2.925    -0.047    29.158     8.855
    21   6 C        2.975     0.009    27.804     8.649
    22   6 C        2.925    -0.047    29.158     8.855
    23   6 C        2.919     0.069    26.450     8.434
    24   7 N        2.751    -0.067    22.548     7.052
    25   6 C        2.920     0.041    27.079     8.534
    26   6 C        2.924    -0.061    29.513     8.909
    27   6 C        2.919    -0.039    28.960     8.825
    28   6 C        2.919    -0.040    28.987     8.829
    29   6 C        2.920    -0.057    29.417     8.894
    30   6 C        2.883     0.123    25.289     8.244
    31   8 O        1.708    -0.269    18.453     5.800
    32   6 C        2.883     0.123    25.289     8.244
    33   6 C        2.919    -0.057    29.419     8.894
    34   6 C        2.919    -0.040    28.982     8.828
    35   6 C        2.919    -0.038    28.954     8.824
    36   6 C        2.924    -0.059    29.474     8.903
    37   6 C        2.921     0.041    27.076     8.533
    38   6 C        2.918    -0.039    28.965     8.826
    39   6 C        2.923    -0.026    28.652     8.778
    40   6 C        2.987    -0.008    28.213     8.713
    41   6 C        2.960     0.086    26.086     8.377
    42   7 N        1.848    -0.254    27.463     7.767
    43   6 C        2.964     0.081    26.193     8.395
    44   6 C        2.923    -0.047    29.173     8.857
    45   6 C        2.974     0.004    27.931     8.669
    46   6 C        2.966    -0.006    28.177     8.707
    47   6 C        2.937     0.077    26.277     8.407
    48   7 N        1.833    -0.237    27.050     7.707
    49   6 C        2.924     0.151    24.726     8.154
    50   7 N        1.833    -0.231    26.903     7.686
    51   6 C        2.937     0.074    26.345     8.418
    52   6 C        2.974     0.004    27.931     8.669
    53   6 C        2.966    -0.006    28.177     8.707
    54   6 C        2.937     0.077    26.277     8.407
    55   7 N        1.833    -0.237    27.050     7.707
    56   6 C        2.924     0.151    24.726     8.154
    57   7 N        1.833    -0.231    26.903     7.686
    58   6 C        2.937     0.074    26.345     8.418
    59   6 C        2.923    -0.047    29.173     8.857
    60   6 C        2.964     0.081    26.193     8.395
    61   7 N        1.848    -0.254    27.463     7.767
    62   6 C        2.960     0.086    26.086     8.377
    63   1 H        0.926     0.044     2.399     2.422
    64   1 H        0.926     0.043     2.411     2.428
    65   1 H        0.926     0.041     2.437     2.441
    66   1 H        0.926     0.049     2.327     2.386
    67   1 H        0.926     0.049     2.327     2.385
    68   1 H        0.926     0.044     2.402     2.424
    69   1 H        0.926     0.042     2.416     2.430
    70   1 H        0.926     0.041     2.433     2.439
    71   1 H        0.926     0.053     2.279     2.361
    72   1 H        0.926     0.066     2.130     2.282
    73   1 H        0.926     0.056     2.247     2.344
    74   1 H        0.926     0.056     2.247     2.344
    75   1 H        0.926     0.041     2.433     2.439
    76   1 H        0.926     0.042     2.416     2.430
    77   1 H        0.926     0.044     2.402     2.424
    78   1 H        0.926     0.049     2.327     2.385
    79   1 H        0.926     0.049     2.327     2.386
    80   1 H        0.926     0.044     2.399     2.422
    81   1 H        0.926     0.043     2.411     2.428
    82   1 H        0.926     0.041     2.437     2.441
    83   1 H        0.926     0.053     2.279     2.361
    84   1 H        0.926     0.066     2.130     2.282
    85   1 H        0.926     0.060     2.197     2.318
    86   1 H        0.925     0.041     2.430     2.438
    87   1 H        0.925     0.054     2.267     2.354
    88   1 H        0.925     0.057     2.240     2.340
    89   1 H        0.925     0.041     2.430     2.438
    90   1 H        0.925     0.054     2.267     2.354
    91   1 H        0.925     0.057     2.240     2.340
    92   1 H        0.926     0.060     2.197     2.318

molecular dipole:
                 x           y           z       tot (Debye)
 q only:       -1.417      -0.000       0.000
   full:       -1.824      -0.000       0.000       4.635

 projected vibrational frequencies (cm⁻¹)
eigval :       -0.00    -0.00    -0.00     0.00     0.00     0.00
eigval :        6.62    13.62    14.11    15.42    18.74    24.92
eigval :       31.80    40.08    41.73    42.42    44.22    56.67
eigval :       60.17    61.14    78.44    83.14    91.70    95.00
eigval :      101.86   107.24   117.23   123.31   127.98   142.61
eigval :      154.84   185.52   189.58   206.81   209.99   222.51
eigval :      237.29   240.07   241.06   249.16   251.79   263.44
eigval :      268.41   285.54   289.56   290.21   300.44   319.79
eigval :      335.84   364.56   367.61   370.19   371.64   378.27
eigval :      385.96   390.32   397.80   418.17   420.10   421.64
eigval :      429.77   429.89   435.58   437.28   443.45   451.17
eigval :      456.56   457.86   476.22   487.15   499.99   509.29
eigval :      509.42   517.26   519.60   524.59   529.11   539.72
eigval :      568.40   571.02   575.00   581.12   585.67   594.27
eigval :      598.25   608.45   611.31   619.95   626.41   631.89
eigval :      646.87   647.77   659.50   659.57   661.67   661.69
eigval :      667.25   670.98   688.55   692.40   705.29   709.03
eigval :      710.05   712.35   730.49   754.37   754.50   763.62
eigval :      766.53   777.37   778.12   781.24   781.34   801.13
eigval :      821.56   828.13   829.74   834.11   835.39   853.51
eigval :      853.53   853.99   860.53   861.97   863.50   870.04
eigval :      870.12   875.56   876.76   886.06   900.33   901.11
eigval :      901.58   902.60   906.81   914.11   914.54   915.55
eigval :      916.30   917.60   917.68   920.92   920.95   926.39
eigval :      928.16   930.27   930.30   955.73   976.09  1001.82
eigval :     1015.32  1033.41  1046.13  1062.57  1078.76  1089.37
eigval :     1089.40  1090.01  1090.83  1107.01  1107.01  1116.79
eigval :     1121.48  1138.87  1140.38  1144.91  1147.43  1168.01
eigval :     1168.34  1173.64  1173.66  1176.41  1176.68  1182.68
eigval :     1183.35  1194.55  1198.77  1198.90  1201.87  1206.05
eigval :     1223.68  1224.30  1226.87  1227.59  1232.45  1242.19
eigval :     1242.50  1249.66  1250.84  1259.01  1259.22  1260.01
eigval :     1267.41  1275.98  1278.41  1280.77  1302.62  1303.63
eigval :     1306.57  1309.20  1320.97  1322.96  1329.58  1337.95
eigval :     1345.37  1350.16  1351.12  1374.33  1384.26  1385.30
eigval :     1392.50  1399.93  1401.78  1419.93  1421.83  1432.06
eigval :     1438.55  1438.63  1442.69  1443.87  1460.32  1467.15
eigval :     1477.31  1477.46  1477.75  1484.50  1498.95  1499.35
eigval :     1516.68  1537.73  1538.78  1539.69  1546.55  1547.74
eigval :     1548.21  1566.10  1566.27  1571.57  1578.16  1578.30
eigval :     1581.66  1587.20  1587.41  1588.77  1600.40  1600.56
eigval :     3044.00  3044.56  3049.78  3050.22  3065.20  3065.24
eigval :     3088.16  3088.18  3088.26  3088.27  3094.42  3094.48
eigval :     3095.88  3096.44  3097.00  3097.06  3097.09  3097.13
eigval :     3104.59  3104.62  3105.15  3105.36  3107.25  3109.58
eigval :     3109.64  3110.29  3110.33  3112.83  3112.96  3117.00

   temp. (K)  partition function   enthalpy   heat capacity  entropy
                                   cal/mol     cal/K/mol   cal/K/mol   J/K/mol
 298.15  VIB  0.204E+23            27808.838    174.397    173.714
         ROT  0.113E+09              888.752      2.981     39.825
         INT  0.230E+31            28697.591    177.378    213.539
         TR   0.218E+29             1481.254      4.968     45.891
         TOT                       30178.8447   182.3461   259.4306  1085.4577

       T/K    H(0)-H(T)+PV         H(T)/Eh          T*S/Eh         G(T)/Eh
   ------------------------------------------------------------------------
    298.15    0.480931E-01    0.721300E+00    0.123264E+00    0.598036E+00
   ------------------------------------------------------------------------

         :::::::::::::::::::::::::::::::::::::::::::::::::::::
         ::                  THERMODYNAMIC                  ::
         :::::::::::::::::::::::::::::::::::::::::::::::::::::
         :: total free energy        -157.725214039105 Eh   ::
         ::.................................................::
         :: total energy             -158.323250374947 Eh   ::
         :: zero point energy           0.673207137463 Eh   ::
         :: G(RRHO) w/o ZPVE           -0.075170801622 Eh   ::
         :: G(RRHO) contrib.            0.598036335842 Eh   ::
         :::::::::::::::::::::::::::::::::::::::::::::::::::::

           -------------------------------------------------
          | TOTAL ENERGY             -158.323250374947 Eh   |
          | TOTAL ENTHALPY           -157.601950187239 Eh   |
          | TOTAL FREE ENERGY        -157.725214039105 Eh   |
          | GRADIENT NORM               0.000022747636 Eh/α |
          | HOMO-LUMO GAP               0.764187355759 eV   |
           -------------------------------------------------

 * finished run on 2025/08/22 at 18:07:39.949
