   * xtb version 6.7.1 (edcfbbe) compiled by 'albert@albert-system' on 2024-07-22

   ID    Z sym.   atoms
    1    6 C      1-6, 8-13, 15-23, 25-30, 32-41, 43-47, 49, 51-54, 56,
                  58-60, 62
    2    8 O      7, 31
    3    7 N      14, 24, 42, 48, 50, 55, 57, 61
    4    1 H      63-92

          program call               : xtb data2507/toluene/DPIBPZ-DPXZ/DPIBPZ-DPXZ_toluene_S0_crest.xyz --gfn 2 --gbsa toluene --ohess vtight --parallel 40 --molden --ceasefiles --namespace data2507/toluene/DPIBPZ-DPXZ/DPIBPZ-DPXZ_toluene_S0_finalOpt
      * Solvation model:               GBSA
        Solvent                        toluene
        Solvent mass                       9.2140E+01 g/mol
          :  Hamiltonian                  GFN2-xTB          :
 * total energy  :  -158.3235447 Eh     change       -0.2422780E-08 Eh
 * total energy  :  -158.3236041 Eh     change       -0.5939923E-04 Eh
 * total energy  :  -158.3236322 Eh     change       -0.2808880E-04 Eh
 * total energy  :  -158.3236438 Eh     change       -0.1160223E-04 Eh
 * total energy  :  -158.3236569 Eh     change       -0.1310334E-04 Eh
 * total energy  :  -158.3236720 Eh     change       -0.1513483E-04 Eh
 * total energy  :  -158.3236913 Eh     change       -0.1928701E-04 Eh
 * total energy  :  -158.3237122 Eh     change       -0.2089195E-04 Eh
 * total energy  :  -158.3237264 Eh     change       -0.1421035E-04 Eh
 * total energy  :  -158.3237348 Eh     change       -0.8438841E-05 Eh
 * total energy  :  -158.3238351 Eh     change       -0.8986368E-06 Eh
 * total energy  :  -158.3238359 Eh     change       -0.8754293E-06 Eh
 * total energy  :  -158.3238367 Eh     change       -0.7347338E-06 Eh
 * total energy  :  -158.3238373 Eh     change       -0.6100015E-06 Eh
 * total energy  :  -158.3238379 Eh     change       -0.6538507E-06 Eh
 * total energy  :  -158.3238387 Eh     change       -0.7804007E-06 Eh
 * total energy  :  -158.3238394 Eh     change       -0.7129922E-06 Eh
 * total energy  :  -158.3238400 Eh     change       -0.5347108E-06 Eh
 * total energy  :  -158.3238400 Eh     change       -0.1313168E-07 Eh
   *** GEOMETRY OPTIMIZATION CONVERGED AFTER 44 ITERATIONS ***

 final structure:
================
92
 xtb: 6.7.1 (edcfbbe)
C           -6.27780812022138       -3.20128290843337       -2.92561778322251
C           -5.11042172756914       -2.46739642128210       -2.99072079086138
C           -4.15129247756159       -2.58339105041585       -1.99619827523452
C           -4.34623688877667       -3.42960447192494       -0.91051117868278
C           -5.51723173834335       -4.19917741245905       -0.87598005218129
C           -6.47321195440283       -4.07697747206065       -1.86813039744860
O           -5.77024496549866       -5.11799951752328        0.11486528144311
C           -4.83174819701727       -5.24939052354894        1.11037613932453
C           -5.10727368660413       -6.16252538919251        2.11199980997170
C           -4.22792071254211       -6.32527854788105        3.17222138747654
C           -3.08575006562575       -5.55182896548937        3.23179021558872
C           -2.80421154109429       -4.63763010225013        2.22808594256935
C           -3.65491492425837       -4.48960556289653        1.13865461240611
N           -3.40024935548469       -3.57495069269545        0.11091876308727
C           -2.18883398501543       -2.85750351589365        0.08097041855980
C           -0.96999390626573       -3.54168180019474        0.02177293385097
C            0.20233347884379       -2.82915132645769       -0.01251130318325
C            0.19766038101234       -1.42934386754132        0.00295394353097
C           -1.02378012106961       -0.72648145388375        0.05762000457695
C           -2.20394559937808       -1.47136130302630        0.10424510918362
C           -1.02300025929527        0.73098066519704        0.05223764916946
C           -2.20221388574128        1.47724556210726        0.09882931780363
C           -2.18630212856123        2.86317196735185        0.06292151362452
N           -3.39683425499553        3.58171125595154        0.09468343702601
C           -3.64364303249836        4.50655510784276        1.11538557117509
C           -2.78257451403324        4.66873327973337        2.19464983886887
C           -3.05655847699710        5.59302509277424        3.19116495932932
C           -4.20148751888823        6.36262867824981        3.13489165301497
C           -5.09107619765561        6.18572110636392        2.08559648441354
C           -4.82288448261626        5.26273114786260        1.09101188872008
O           -5.77115168382666        5.11819530515613        0.10667365712317
C           -5.52704785447646        4.18758661458671       -0.87525320229120
C           -6.49435638042483        4.05004036424132       -1.85434393287459
C           -6.30860752109716        3.16200890286280       -2.90319740285452
C           -5.13944941407468        2.43139127375558       -2.97332921577983
C           -4.16893477339609        2.56291203637578       -1.99192080167835
C           -4.35406589807667        3.42124522571295       -0.91401203805498
C           -0.96720312036336        3.54562190669319       -0.01019968726051
C            0.20445774242353        2.83186226822563       -0.04202700767926
C            0.19891827780545        1.43228466439760       -0.01209135359883
C            1.45132212189898        0.71652437914072       -0.04990305996766
N            2.58068526542528        1.40089568215102       -0.08782058673389
C            3.73194688241616        0.71223473050941       -0.11671615428591
C            4.96067406787654        1.39862535778611       -0.16131314716684
C            6.14879251154497        0.71036854661555       -0.18530222482099
C            7.41111807181127        1.44976464000519       -0.29546610887471
C            8.38215305695427        1.14609697980501       -1.25351224148803
N            9.51961824941047        1.81003941052600       -1.34626362779947
C            9.70535556710303        2.80269291410594       -0.49373782650983
N            8.85001373539118        3.20653617617640        0.42783896772722
C            7.71532721240355        2.53722480169500        0.52675006591592
C            6.14862301928107       -0.71472648547052       -0.14542529173916
C            7.41255480757364       -1.45663066703564       -0.08030872466282
C            8.41117950935402       -1.16026106886158        0.85123043435783
N            9.54968699153146       -1.82650326070585        0.90702637269721
C            9.70870665998958       -2.81435689854070        0.04353684665844
N            8.82578176719966       -3.21212980883325       -0.85434481630205
C            7.68978628859664       -2.54055397908200       -0.91638079238437
C            4.95980828452679       -1.40153835121487       -0.11917427654961
C            3.73129749634901       -0.71353969613864       -0.10548758060248
N            2.57946115638586       -1.40074836685035       -0.06756749681885
C            1.45069129067664       -0.71497594987338       -0.04082504316824
H           -7.03011823316735       -3.11097414075938       -3.69312828370965
H           -4.93023855036798       -1.80145070891119       -3.82012432272039
H           -3.23638562379836       -2.01811407097706       -2.07508865314496
H           -7.36166986668034       -4.68454973892509       -1.79665823647089
H           -6.02011379760420       -6.73330461493240        2.04478830975173
H           -4.44902063639708       -7.04281468726238        3.94648957693240
H           -2.40272052386902       -5.64932063069680        4.06154886903056
H           -1.91622959210663       -4.02945594278123        2.29766323654520
H           -0.96286827846483       -4.62063769555233       -0.00647105699484
H            1.15639519536578       -3.32925884001517       -0.06505667461415
H           -3.16208648297628       -0.98155968789032        0.16561777430424
H           -3.16019578659033        0.98867795845768        0.17127520434332
H           -1.89232260072348        4.06370729151463        2.26227052445832
H           -2.36541426434825        5.70150811549725        4.01279668027933
H           -4.41681226822980        7.08794958386200        3.90351551796510
H           -6.00637365249649        6.75292214484545        2.02153952498250
H           -7.38391183090860        4.65562755301797       -1.77978883189268
H           -7.06981722423513        3.05952538915138       -3.66032267242166
H           -4.96708296746841        1.75566429051076       -3.79644490008109
H           -3.25297079920805        1.99999672998619       -2.07517742240969
H           -0.95933361108226        4.62420375320952       -0.04999294530486
H            1.15866157339725        3.33070234508901       -0.10342419503042
H            4.94152008167481        2.47712075742188       -0.20077166529370
H            8.23311012175682        0.35635260701103       -1.97984778595930
H           10.64217896051484        3.33939123174858       -0.56427120492505
H            7.03002101739514        2.86800581970492        1.29726563380748
H            8.28361465927868       -0.37481719024715        1.58630178418385
H           10.64637891806866       -3.35274500844959        0.08319896351008
H            6.98103216510762       -2.86653624481455       -1.66750896380770
H            4.94122020564049       -2.48002662072200       -0.07914559805042

          :  Hamiltonian                  GFN2-xTB          :
         :: gradient norm              0.000072008135 Eh/a0 ::
         :: HOMO-LUMO gap              0.763625658076 eV    ::
         :: SCC energy              -161.012191769527 Eh    ::
         :: -> dispersion             -0.137675113315 Eh    ::
         :: -> Gsolv                  -0.065676904543 Eh    ::
         :: repulsion energy           2.688351799257 Eh    ::

    * Orbital Energies and Occupations

         #    Occupation            Energy/Eh            Energy/eV
      -------------------------------------------------------------
         1        2.0000           -0.7338287             -19.9685
       ...           ...                  ...                  ...
       133        2.0000           -0.4197394             -11.4217
       134        2.0000           -0.4183833             -11.3848
       135        2.0000           -0.4169534             -11.3459
       136        2.0000           -0.4163158             -11.3285
       137        2.0000           -0.4091573             -11.1337
       138        2.0000           -0.4059719             -11.0471
       139        2.0000           -0.3945493             -10.7362
       140        2.0000           -0.3942406             -10.7278
       141        2.0000           -0.3875927             -10.5469
       142        2.0000           -0.3860135             -10.5040
       143        2.0000           -0.3668142              -9.9815
       144        2.0000           -0.3490673              -9.4986
       145        2.0000           -0.3483883              -9.4801 (HOMO)
       146        0.0000           -0.3203254              -8.7165 (LUMO)
       147                         -0.2937868              -7.9943
       148                         -0.2906639              -7.9094
       149                         -0.2852890              -7.7631
       150                         -0.2765328              -7.5248
       151                         -0.2746068              -7.4724
       152                         -0.2685528              -7.3077
       153                         -0.2428141              -6.6073
       154                         -0.2426638              -6.6032
       155                         -0.2420133              -6.5855
       156                         -0.2340952              -6.3701
       ...                                ...                  ...
       278                          0.6968201              18.9614
      -------------------------------------------------------------
                  HL-Gap            0.0280628 Eh            0.7636 eV

     #   Z          covCN         q      C6AA      α(0)
     1   6 C        2.919    -0.040    28.983     8.828
     2   6 C        2.919    -0.038    28.951     8.823
     3   6 C        2.924    -0.060    29.503     8.907
     4   6 C        2.920     0.041    27.084     8.534
     5   6 C        2.883     0.123    25.290     8.244
     6   6 C        2.920    -0.057    29.416     8.894
     7   8 O        1.708    -0.269    18.454     5.800
     8   6 C        2.883     0.123    25.289     8.244
     9   6 C        2.919    -0.057    29.421     8.895
    10   6 C        2.919    -0.040    28.982     8.828
    11   6 C        2.919    -0.038    28.955     8.824
    12   6 C        2.924    -0.059    29.479     8.904
    13   6 C        2.921     0.041    27.078     8.533
    14   7 N        2.751    -0.067    22.539     7.051
    15   6 C        2.918     0.069    26.453     8.434
    16   6 C        2.918    -0.039    28.970     8.826
    17   6 C        2.923    -0.026    28.653     8.778
    18   6 C        2.987    -0.008    28.217     8.714
    19   6 C        2.975     0.009    27.806     8.650
    20   6 C        2.925    -0.047    29.163     8.856
    21   6 C        2.975     0.009    27.806     8.650
    22   6 C        2.925    -0.047    29.164     8.856
    23   6 C        2.918     0.069    26.454     8.434
    24   7 N        2.751    -0.067    22.536     7.051
    25   6 C        2.921     0.041    27.079     8.534
    26   6 C        2.924    -0.059    29.479     8.904
    27   6 C        2.919    -0.038    28.954     8.824
    28   6 C        2.919    -0.039    28.981     8.828
    29   6 C        2.919    -0.057    29.420     8.895
    30   6 C        2.883     0.123    25.289     8.244
    31   8 O        1.708    -0.269    18.453     5.800
    32   6 C        2.883     0.123    25.290     8.244
    33   6 C        2.920    -0.057    29.417     8.894
    34   6 C        2.919    -0.040    28.983     8.828
    35   6 C        2.919    -0.038    28.951     8.823
    36   6 C        2.924    -0.060    29.503     8.907
    37   6 C        2.920     0.041    27.086     8.535
    38   6 C        2.918    -0.039    28.972     8.827
    39   6 C        2.923    -0.026    28.653     8.778
    40   6 C        2.987    -0.008    28.218     8.714
    41   6 C        2.960     0.086    26.086     8.377
    42   7 N        1.848    -0.254    27.475     7.768
    43   6 C        2.964     0.081    26.193     8.395
    44   6 C        2.923    -0.047    29.175     8.858
    45   6 C        2.974     0.004    27.934     8.670
    46   6 C        2.966    -0.006    28.178     8.707
    47   6 C        2.937     0.077    26.277     8.407
    48   7 N        1.833    -0.237    27.055     7.708
    49   6 C        2.924     0.151    24.726     8.154
    50   7 N        1.833    -0.231    26.906     7.687
    51   6 C        2.937     0.074    26.346     8.418
    52   6 C        2.974     0.004    27.934     8.670
    53   6 C        2.966    -0.006    28.176     8.707
    54   6 C        2.937     0.077    26.278     8.407
    55   7 N        1.833    -0.237    27.051     7.707
    56   6 C        2.924     0.151    24.726     8.155
    57   7 N        1.833    -0.231    26.906     7.687
    58   6 C        2.937     0.074    26.346     8.418
    59   6 C        2.923    -0.047    29.175     8.858
    60   6 C        2.964     0.081    26.193     8.395
    61   7 N        1.848    -0.254    27.475     7.769
    62   6 C        2.960     0.086    26.086     8.377
    63   1 H        0.926     0.044     2.395     2.420
    64   1 H        0.926     0.043     2.405     2.425
    65   1 H        0.926     0.041     2.430     2.438
    66   1 H        0.926     0.049     2.328     2.386
    67   1 H        0.926     0.049     2.327     2.386
    68   1 H        0.926     0.044     2.400     2.423
    69   1 H        0.926     0.043     2.412     2.429
    70   1 H        0.926     0.041     2.435     2.440
    71   1 H        0.926     0.054     2.276     2.359
    72   1 H        0.926     0.066     2.132     2.283
    73   1 H        0.926     0.055     2.253     2.347
    74   1 H        0.926     0.055     2.254     2.348
    75   1 H        0.926     0.041     2.432     2.439
    76   1 H        0.926     0.043     2.410     2.428
    77   1 H        0.926     0.044     2.399     2.422
    78   1 H        0.926     0.049     2.327     2.386
    79   1 H        0.926     0.049     2.328     2.386
    80   1 H        0.926     0.044     2.395     2.420
    81   1 H        0.926     0.043     2.404     2.425
    82   1 H        0.926     0.042     2.429     2.437
    83   1 H        0.926     0.054     2.275     2.359
    84   1 H        0.926     0.066     2.132     2.283
    85   1 H        0.926     0.060     2.198     2.318
    86   1 H        0.925     0.041     2.431     2.438
    87   1 H        0.925     0.054     2.268     2.355
    88   1 H        0.925     0.057     2.240     2.340
    89   1 H        0.925     0.041     2.431     2.438
    90   1 H        0.925     0.054     2.267     2.355
    91   1 H        0.925     0.056     2.240     2.341
    92   1 H        0.926     0.060     2.199     2.319

molecular dipole:
                 x           y           z       tot (Debye)
 q only:       -1.475       0.008       0.036
   full:       -1.885       0.007       0.041       4.793

 projected vibrational frequencies (cm⁻¹)
eigval :       -0.00    -0.00    -0.00     0.00     0.00     0.00
eigval :       -0.34    10.97    13.79    14.26    18.63    18.93
eigval :       31.42    37.55    39.84    41.92    43.76    56.73
eigval :       58.95    62.16    78.38    83.73    90.42    95.42
eigval :      103.04   105.84   116.98   121.11   132.93   144.36
eigval :      153.33   186.23   190.77   204.47   215.68   221.96
eigval :      236.15   237.55   242.10   247.84   251.42   262.45
eigval :      269.90   286.63   289.86   291.52   299.32   318.79
eigval :      338.03   363.24   367.15   370.36   372.20   378.77
eigval :      387.98   390.18   397.32   416.89   420.34   420.77
eigval :      430.15   430.78   436.88   438.18   443.57   448.40
eigval :      452.61   464.25   473.95   487.56   501.71   507.40
eigval :      508.32   516.52   518.72   524.90   525.78   541.09
eigval :      568.75   571.95   574.55   578.57   585.78   594.11
eigval :      600.28   608.36   611.36   619.68   625.77   630.57
eigval :      647.02   648.42   658.36   658.76   660.75   660.93
eigval :      666.99   670.73   688.21   692.69   705.20   708.95
eigval :      710.35   712.51   730.65   754.42   754.61   763.86
eigval :      766.20   774.87   775.43   780.02   780.58   800.85
eigval :      821.41   827.67   829.87   833.32   833.75   852.79
eigval :      853.62   853.83   859.76   860.65   863.15   867.47
eigval :      869.38   873.64   874.68   886.40   897.41   898.46
eigval :      899.68   901.57   906.65   909.57   912.44   915.38
eigval :      915.58   916.03   919.42   921.19   921.97   925.24
eigval :      928.01   928.85   929.65   955.68   976.10  1001.95
eigval :     1015.33  1033.35  1046.40  1062.75  1078.79  1089.29
eigval :     1090.10  1090.60  1091.61  1105.94  1106.48  1116.38
eigval :     1121.35  1138.92  1140.71  1145.31  1147.74  1166.73
eigval :     1167.43  1170.95  1173.10  1176.74  1177.23  1180.17
eigval :     1184.54  1194.88  1197.71  1199.45  1201.69  1205.91
eigval :     1223.87  1224.60  1227.05  1227.78  1232.77  1241.37
eigval :     1242.01  1250.23  1251.31  1258.20  1259.08  1259.75
eigval :     1267.94  1275.94  1278.77  1280.96  1302.31  1303.60
eigval :     1306.81  1309.44  1321.74  1322.75  1329.33  1338.33
eigval :     1345.27  1350.14  1350.83  1374.52  1384.40  1385.43
eigval :     1392.55  1400.44  1401.89  1419.21  1421.23  1432.12
eigval :     1438.03  1438.50  1442.35  1443.62  1460.44  1467.42
eigval :     1476.76  1477.48  1477.82  1484.06  1498.77  1499.05
eigval :     1516.59  1537.76  1538.94  1539.83  1546.60  1547.69
eigval :     1548.08  1566.07  1566.20  1571.64  1577.92  1578.33
eigval :     1581.70  1586.96  1587.27  1588.68  1600.19  1600.47
eigval :     3044.15  3044.74  3049.85  3050.40  3065.04  3065.25
eigval :     3087.81  3088.55  3090.54  3091.61  3094.85  3095.12
eigval :     3095.59  3096.16  3096.94  3097.10  3097.61  3097.97
eigval :     3104.83  3105.03  3105.29  3105.67  3107.45  3109.55
eigval :     3109.78  3110.81  3111.34  3112.58  3112.72  3117.83

   temp. (K)  partition function   enthalpy   heat capacity  entropy
                                   cal/mol     cal/K/mol   cal/K/mol   J/K/mol
 298.15  VIB  0.128E+22            27251.316    173.313    168.669
         ROT  0.224E+09              888.752      2.981     41.192
         INT  0.288E+30            28140.069    176.294    209.861
         TR   0.218E+29             1481.254      4.968     45.891
         TOT                       29621.3225   181.2620   255.7522  1070.0673

       T/K    H(0)-H(T)+PV         H(T)/Eh          T*S/Eh         G(T)/Eh
   ------------------------------------------------------------------------
    298.15    0.472046E-01    0.720274E+00    0.121516E+00    0.598758E+00
   ------------------------------------------------------------------------

         :::::::::::::::::::::::::::::::::::::::::::::::::::::
         ::                  THERMODYNAMIC                  ::
         :::::::::::::::::::::::::::::::::::::::::::::::::::::
         :: total free energy        -157.725082013901 Eh   ::
         ::.................................................::
         :: total energy             -158.323839969129 Eh   ::
         :: zero point energy           0.673069508077 Eh   ::
         :: G(RRHO) w/o ZPVE           -0.074311552849 Eh   ::
         :: G(RRHO) contrib.            0.598757955228 Eh   ::
         :::::::::::::::::::::::::::::::::::::::::::::::::::::

           -------------------------------------------------
          | TOTAL ENERGY             -158.323839969129 Eh   |
          | TOTAL ENTHALPY           -157.603565878909 Eh   |
          | TOTAL FREE ENERGY        -157.725082013901 Eh   |
          | GRADIENT NORM               0.000072010522 Eh/α |
          | HOMO-LUMO GAP               0.763628277831 eV   |
           -------------------------------------------------

 * finished run on 2025/08/22 at 18:12:27.986
