   * xtb version 6.7.1 (edcfbbe) compiled by 'albert@albert-system' on 2024-07-22

   ID    Z sym.   atoms
    1    6 C      1-5, 7-13, 15-28, 30-39, 41-47, 49-55, 57-59, 61, 62
    2    7 N      6, 14, 40, 48, 56, 60
    3    8 O      29
    4    1 H      63-96

          program call               : xtb data2507/gas/DTRZSFX/DTRZSFX_gas_S0_finalOpt.xtbopt.xyz --gfn 2 --spinpol --tblite --uhf 2 --ohess vtight --parallel 40 --molden --ceasefiles --namespace data2507/gas/DTRZSFX/DTRZSFX_gas_T1_preOpt
 * total energy  :  -156.7066282 Eh     change        0.5920691E-07 Eh
 * total energy  :  -156.7096900 Eh     change       -0.3061771E-02 Eh
 * total energy  :  -156.7112576 Eh     change       -0.1567621E-02 Eh
 * total energy  :  -156.7113499 Eh     change       -0.9230136E-04 Eh
 * total energy  :  -156.7113961 Eh     change       -0.4622952E-04 Eh
 * total energy  :  -156.7114098 Eh     change       -0.1368375E-04 Eh
 * total energy  :  -156.7114126 Eh     change       -0.2776399E-05 Eh
 * total energy  :  -156.7114136 Eh     change       -0.1067078E-05 Eh
 * total energy  :  -156.7114155 Eh     change       -0.1832786E-05 Eh
 * total energy  :  -156.7114169 Eh     change       -0.1474697E-05 Eh
 * total energy  :  -156.7114556 Eh     change        0.1169471E-07 Eh
 * total energy  :  -156.7114560 Eh     change       -0.3963683E-06 Eh
 * total energy  :  -156.7114563 Eh     change       -0.2678963E-06 Eh
 * total energy  :  -156.7114565 Eh     change       -0.1844481E-06 Eh
 * total energy  :  -156.7114567 Eh     change       -0.2318246E-06 Eh
 * total energy  :  -156.7114569 Eh     change       -0.1440639E-06 Eh
 * total energy  :  -156.7114571 Eh     change       -0.2642111E-06 Eh
 * total energy  :  -156.7114571 Eh     change       -0.3095707E-07 Eh
 * total energy  :  -156.7114571 Eh     change       -0.2144702E-08 Eh
   *** GEOMETRY OPTIMIZATION CONVERGED AFTER 60 ITERATIONS ***

 final structure:
================
96
 xtb: 6.7.1 (edcfbbe)
C           -9.84812331885462       -4.75502756350409        0.04566218426671
C          -10.27872334663792       -3.43738091157641        0.05347742217043
C           -9.35895284971915       -2.40714405976096        0.04749974881394
C           -7.99395577547610       -2.68972127516795        0.03379192156636
C           -7.01811223613998       -1.60206419815124        0.02719743297438
N           -7.47792550575876       -0.34422408696695        0.02528590556679
C           -6.55557145313072        0.62617120809429        0.01735721366645
C           -7.01441764078075        2.01325358522854        0.01675418653607
C           -8.37847519436331        2.30039361928710        0.01643918674323
C           -8.80931906689786        3.61256193973241        0.01675092772906
C           -7.88722367413221        4.64768316753720        0.01749000116709
C           -6.52914414935036        4.36746180258853        0.01787020452927
C           -6.09110034128118        3.05811720068218        0.01749199983672
N           -5.26383390987315        0.38780399518666        0.01093773426758
C           -4.84842635475515       -0.89304674995907        0.01530058853557
C           -3.45167119119304       -1.18080541096042        0.01264970527885
C           -2.99633543616495       -2.51429679242931        0.03141419105834
C           -1.65791259723219       -2.81345818272324        0.03377555169466
C           -0.72711377979578       -1.77005990970330        0.01564708226123
C           -1.18424022132529       -0.43114454241783       -0.00638440407795
C           -2.51251247617896       -0.12706880379714       -0.00724307460221
C           -0.00705051988274        0.52856781570033       -0.02707985479493
C            0.00490009680888        1.40244055335225        1.20035602478156
C           -0.04080367735476        0.82712951192267        2.46387170708488
C           -0.01840434237486        1.60827073364868        3.60276848398090
C            0.05192453255070        2.98952195104914        3.49221586145327
C            0.09734293486378        3.57994508847246        2.24697247025884
C            0.07370921115714        2.78995877018156        1.09898572500732
O            0.12008025866753        3.45360188799781       -0.09051654238687
C            0.07022158585731        2.73927003530409       -1.25013824275101
C            0.08972048562308        3.47906409667730       -2.43117456921901
C            0.04085511201368        2.83553554296661       -3.64968023613742
C           -0.02858262435749        1.45075592046660       -3.70037143378537
C           -0.04703006698285        0.71941425502673       -2.52880708435911
C            0.00186517617839        1.34864580620697       -1.29137149472732
C            1.16620892506952       -0.43808317830529       -0.00806155204574
C            2.49567734559826       -0.14039568183643       -0.01105824742836
C            3.42963114581222       -1.19862546551243        0.01128540689525
C            4.82729271498944       -0.91560682743314        0.01131687447194
N            5.71570640738365       -1.92753179413115        0.03808716836050
C            6.99533374251044       -1.62840364053372        0.03856630412131
C            7.96903802101981       -2.71751766432954        0.06997742777570
C            7.53868135626289       -4.04343646352781        0.10171674686100
C            8.46195261280324       -5.06948249949906        0.13249281747684
C            9.81927735596120       -4.78547486164944        0.13188565915830
C           10.25245078079080       -3.46902865824377        0.10021802785478
C            9.33465036612233       -2.43748967223814        0.06938539657402
N            7.45794572850464       -0.37172954519498        0.01244663603884
C            6.53758035778981        0.60014811474395       -0.01363015501821
C            6.99817275310097        1.98639529331371       -0.04197203208970
C            6.07576799313222        3.03173967680205       -0.06946278174391
C            6.51490725009011        4.34043033496130       -0.09585437249372
C            7.87322340969457        4.61950914136606       -0.09516671445084
C            8.79439574082341        3.58392237665825       -0.06800962976701
C            8.36243855214759        2.27236093512760       -0.04148050851506
N            5.24546950344299        0.36416669082190       -0.01443651728082
C            2.96761276311931       -2.52967670574293        0.03468046656091
C            1.62763175179042       -2.82200785013069        0.03667586279984
C            0.70190203489875       -1.77410226602331        0.01577641876039
N           -5.73911928061645       -1.90341338549155        0.02356441869005
C           -7.56618569432249       -4.01682171249673        0.02603742691226
C           -8.49140308612875       -5.04155930098744        0.03190197435304
H          -10.56960231405172       -5.55891114343012        0.05026405609342
H          -11.33587283637183       -3.21560869917012        0.06422423549384
H           -9.67724888351007       -1.37638779533423        0.05353657216110
H           -9.08247887786280        1.48296592562227        0.01583426037583
H           -9.86689706823023        3.83240536595607        0.01648916702214
H           -8.22685669840047        5.67308175264347        0.01783846667300
H           -5.81185816099653        5.17505412496241        0.01860023673045
H           -5.03794969726045        2.82354799043877        0.01821539328127
H           -3.73688109287476       -3.29913878139449        0.04555851899017
H           -1.32223471361118       -3.83988641070752        0.04964550234798
H           -2.86770757266267        0.89199701633510       -0.02291807482295
H           -0.09376203638104       -0.24868615343547        2.54281256514495
H           -0.05452832106124        1.14325338573030        4.57596485165249
H            0.07098885700597        3.60556735019061        4.37838612664129
H            0.15154191585294        4.65124516959712        2.13193727865979
H            0.14336013726246        4.55436038893129       -2.36257497188253
H            0.05649889900434        3.41283947776495       -4.56162704204581
H           -0.06726441601901        0.94417702753665       -4.65249761643977
H           -0.09947384129196       -0.35881983259816       -2.56132850301813
H            2.85637142633799        0.87673492804996       -0.02888721116332
H            6.47923411354317       -4.24695141240768        0.10194380918387
H            8.12613045820495       -6.09584255914407        0.15723673706815
H           10.53921937147846       -5.59038510546073        0.15617357393152
H           11.31006525398439       -3.24922259971714        0.09975233495107
H            9.65493054201925       -1.40763215405690        0.04462041097704
H            5.02242099082553        2.79807693088768       -0.06963502081072
H            5.79830542834207        5.14833847842671       -0.11706819072128
H            8.21376689910389        5.64440242262412       -0.11580609888469
H            9.85214702688852        3.80292596135080       -0.06754259039427
H            9.06569769946174        1.45457033957902       -0.02008864809288
H            3.70417665344717       -3.31822676960405        0.05122213062433
H            1.28685528517031       -3.84672492173664        0.05482428082229
H           -6.50718152400600       -4.22235406454134        0.01506226730322
H           -8.15756952130888       -6.06884836040793        0.02569624241041

 projected vibrational frequencies (cm⁻¹)
eigval :       -0.00    -0.00    -0.00     0.00     0.00     0.00
eigval :        5.40     7.01     7.22    11.26    16.14    19.48
eigval :       20.22    21.04    24.92    25.25    32.41    39.58
eigval :       48.34    50.62    51.65    53.15    61.35    73.78
eigval :       79.13    98.48   100.83   104.17   114.04   125.79
eigval :      131.86   140.81   169.74   181.14   182.57   188.45
eigval :      203.41   204.13   211.39   211.70   223.42   240.29
eigval :      242.69   251.69   254.51   260.47   261.69   281.01
eigval :      294.22   317.97   339.88   364.82   364.82   365.58
eigval :      365.60   370.92   374.34   381.72   383.11   385.75
eigval :      399.72   404.75   405.15   406.50   423.43   428.44
eigval :      430.22   430.38   459.63   472.54   480.49   502.25
eigval :      504.52   516.64   536.89   551.98   552.44   552.79
eigval :      556.43   556.92   564.85   587.80   587.84   587.88
eigval :      588.08   588.33   594.53   603.44   614.10   614.39
eigval :      615.09   626.33   632.27   644.13   653.74   661.41
eigval :      661.65   667.21   667.26   674.31   680.38   691.28
eigval :      697.72   715.97   718.00   721.37   729.00   769.03
eigval :      769.06   769.80   770.02   772.68   783.34   799.38
eigval :      802.61   805.72   806.18   815.44   826.37   853.28
eigval :      859.96   865.65   867.00   872.78   872.85   874.80
eigval :      874.84   875.44   875.56   895.89   905.02   905.36
eigval :      906.60   906.86   907.84   908.61   912.51   913.00
eigval :      923.36   923.45   925.20   927.81   927.84   928.84
eigval :      928.85   931.89   931.89   932.14   932.14   935.00
eigval :      970.55   972.56   983.06   983.11   984.03  1001.84
eigval :     1009.14  1064.78  1066.56  1074.44  1074.46  1076.46
eigval :     1077.43  1085.05  1087.13  1089.84  1105.95  1106.18
eigval :     1109.52  1110.75  1117.59  1120.55  1125.66  1129.67
eigval :     1133.92  1146.40  1149.02  1165.00  1170.79  1175.41
eigval :     1177.77  1178.79  1179.01  1180.62  1180.69  1181.79
eigval :     1181.79  1188.08  1190.20  1191.62  1193.76  1201.00
eigval :     1202.55  1217.64  1217.77  1232.29  1236.70  1244.47
eigval :     1255.86  1256.11  1260.75  1267.30  1268.08  1268.59
eigval :     1268.65  1274.54  1285.18  1306.25  1318.19  1327.52
eigval :     1330.13  1330.17  1330.99  1332.28  1333.24  1344.19
eigval :     1348.09  1377.31  1380.98  1391.04  1395.83  1420.66
eigval :     1431.16  1432.44  1435.65  1435.89  1436.81  1439.98
eigval :     1454.93  1456.13  1461.28  1464.91  1467.35  1467.81
eigval :     1471.76  1479.28  1486.62  1501.38  1518.55  1535.72
eigval :     1566.67  1576.51  1579.43  1579.47  1580.36  1580.53
eigval :     1584.55  1587.09  1587.89  1590.61  1590.62  1593.50
eigval :     1598.28  1601.06  3074.93  3074.94  3075.17  3075.19
eigval :     3077.27  3080.49  3080.56  3080.75  3080.91  3080.99
eigval :     3084.30  3084.40  3088.65  3088.75  3090.00  3090.03
eigval :     3090.11  3090.35  3092.23  3092.72  3098.42  3098.65
eigval :     3098.66  3098.98  3102.79  3102.88  3103.70  3103.73
eigval :     3104.37  3104.42  3105.37  3105.48  3105.56  3105.81

   temp. (K)  partition function   enthalpy   heat capacity  entropy
                                   cal/mol     cal/K/mol   cal/K/mol   J/K/mol
 298.15  VIB  0.189E+27            29442.073    177.805    188.290
         ROT  0.203E+09              888.752      2.981     40.995
         INT  0.383E+35            30330.826    180.786    229.284
         TR   0.217E+29             1481.254      4.968     45.876
         TOT                       31812.0797   185.7540   275.1607  1151.2726

       T/K    H(0)-H(T)+PV         H(T)/Eh          T*S/Eh         G(T)/Eh
   ------------------------------------------------------------------------
    298.15    0.506958E-01    0.764205E+00    0.130738E+00    0.633467E+00
   ------------------------------------------------------------------------

         :::::::::::::::::::::::::::::::::::::::::::::::::::::
         ::                  THERMODYNAMIC                  ::
         :::::::::::::::::::::::::::::::::::::::::::::::::::::
         :: total free energy        -156.077989838603 Eh   ::
         ::.................................................::
         :: total energy             -156.711457211369 Eh   ::
         :: zero point energy           0.713509347263 Eh   ::
         :: G(RRHO) w/o ZPVE           -0.080041974496 Eh   ::
         :: G(RRHO) contrib.            0.633467372767 Eh   ::
         :::::::::::::::::::::::::::::::::::::::::::::::::::::

           -------------------------------------------------
          | TOTAL ENERGY             -156.711457211369 Eh   |
          | TOTAL ENTHALPY           -155.947252088155 Eh   |
          | TOTAL FREE ENERGY        -156.077989838603 Eh   |
          | GRADIENT NORM               0.000112772480 Eh/α |
           -------------------------------------------------

 * finished run on 2025/07/18 at 17:27:37.867
