   * xtb version 6.7.1 (edcfbbe) compiled by 'albert@albert-system' on 2024-07-22

   ID    Z sym.   atoms
    1    6 C      1-5, 7-13, 15-28, 30-39, 41-47, 49-55, 57-59, 61, 62
    2    7 N      6, 14, 40, 48, 56, 60
    3    8 O      29
    4    1 H      63-96

          program call               : xtb data2507/gas/DTRZSFX/DTRZSFX_gas_S0_crest.xyz --gfn 2 --ohess vtight --parallel 40 --molden --ceasefiles --namespace data2507/gas/DTRZSFX/DTRZSFX_gas_S0_finalOpt
          :  Hamiltonian                  GFN2-xTB          :
 * total energy  :  -156.7818725 Eh     change       -0.7507680E-08 Eh
 * total energy  :  -156.7818731 Eh     change       -0.5193292E-06 Eh
 * total energy  :  -156.7818737 Eh     change       -0.6655088E-06 Eh
 * total energy  :  -156.7818759 Eh     change       -0.2137841E-05 Eh
 * total energy  :  -156.7818769 Eh     change       -0.9940091E-06 Eh
 * total energy  :  -156.7818776 Eh     change       -0.6911868E-06 Eh
 * total energy  :  -156.7818786 Eh     change       -0.1043707E-05 Eh
 * total energy  :  -156.7818800 Eh     change       -0.1387341E-05 Eh
 * total energy  :  -156.7818812 Eh     change       -0.1244153E-05 Eh
 * total energy  :  -156.7818821 Eh     change       -0.8956119E-06 Eh
 * total energy  :  -156.7818849 Eh     change       -0.5548438E-06 Eh
 * total energy  :  -156.7818853 Eh     change       -0.3828536E-06 Eh
 * total energy  :  -156.7818856 Eh     change       -0.3152209E-06 Eh
 * total energy  :  -156.7818858 Eh     change       -0.2141864E-06 Eh
 * total energy  :  -156.7818860 Eh     change       -0.1787525E-06 Eh
 * total energy  :  -156.7818861 Eh     change       -0.1556961E-06 Eh
 * total energy  :  -156.7818863 Eh     change       -0.1471654E-06 Eh
 * total energy  :  -156.7818864 Eh     change       -0.1518881E-06 Eh
 * total energy  :  -156.7818864 Eh     change       -0.3788728E-08 Eh
   *** GEOMETRY OPTIMIZATION CONVERGED AFTER 22 ITERATIONS ***

 final structure:
================
96
 xtb: 6.7.1 (edcfbbe)
C           -9.83511897970720       -4.75560994587498       -0.11384315569170
C          -10.27121203002915       -3.44241817321733       -0.02934369204141
C           -9.35531386758547       -2.40922864703390        0.00975674770099
C           -7.99024338522362       -2.68501131255641       -0.03517120416364
C           -7.01701386405519       -1.59314082007511        0.00590307207506
N           -7.47801809894001       -0.34634044267159        0.04581284291740
C           -6.55913915725086        0.61475475671048        0.07952430275372
C           -7.01672030220959        2.00360639955764        0.12860958832268
C           -8.37879960793657        2.29465377416890        0.08800291655462
C           -8.80717918090112        3.60694521665088        0.13531910595017
C           -7.88367763404313        4.63706194821528        0.22406115608062
C           -6.52752584828317        4.35266695278557        0.26540050143798
C           -6.09234332988378        3.04264105800750        0.21776286568918
N           -5.24865776206195        0.39017397762469        0.07242337889233
C           -4.87559490024218       -0.88574392339074        0.03491213489159
C           -3.44384133652476       -1.17883571766647        0.03313861679038
C           -3.00341581927152       -2.50291982429337        0.07915192768627
C           -1.65532036249791       -2.80441622946923        0.08760647493153
C           -0.73960246274693       -1.76249371154065        0.04689416394565
C           -1.18351281453700       -0.43043503372086       -0.00499169232014
C           -2.52274908088953       -0.12850849390004       -0.01071178486557
C           -0.00943102065735        0.52583640521555       -0.04727484914409
C           -0.00056576320568        1.43717753035790        1.15737894461197
C           -0.08121600019347        0.89746257977657        2.43458282947971
C           -0.06058080767275        1.70832594760953        3.55275212458535
C            0.04389897396115        3.08258587180299        3.40464098783405
C            0.12444638903174        3.63635873335124        2.14376739127784
C            0.10229622672799        2.81711800588387        1.01757401651494
O            0.18404833126919        3.44830937230179       -0.18928508272884
C            0.11104260678041        2.70276149024387       -1.32960742884051
C            0.14444246592367        3.40841509619600       -2.52997937055959
C            0.07331937296730        2.73466524976079       -3.73160091210916
C           -0.03356327029746        1.35271982032195       -3.74609087260188
C           -0.06532642310606        0.65462464213918       -2.55452286530453
C            0.00641559880875        1.31593799031602       -1.33527660231981
C            1.16179775552119       -0.43640685620974       -0.00187888285314
C            2.50196970742543       -0.13973524501522       -0.00900556108185
C            3.41882129109521       -1.19360311130240        0.03644616043060
C            4.85140119133226       -0.90472173836399        0.03148101651756
N            5.69902833529988       -1.92918710946685        0.06650455018911
C            6.99153585803860       -1.61581727694498        0.06143974426421
C            7.96297878488541       -2.70948616600717        0.09807609943012
C            7.52741253848312       -4.03273727435482        0.13082245058176
C            8.44682915118073       -5.06288999798251        0.16503267720805
C            9.80463947319514       -4.78338409938493        0.16699171636590
C           10.24312505755424       -3.46867298026374        0.13460658892450
C            9.32883672557749       -2.43389994993586        0.10019710816568
N            7.45487861013241       -0.36975580048829        0.02526926788715
C            6.53775747817208        0.59304837560860       -0.00856958367351
C            6.99708067754583        1.98158493345046       -0.04919091592572
C            6.07276503883963        3.02396175019826       -0.08413574652456
C            6.50925177625599        4.33384120429799       -0.12218582650458
C            7.86673676440961        4.61484715345602       -0.12554070427052
C            8.79018772596276        3.58145632605365       -0.09082130894362
C            8.36046774842076        2.26930179387319       -0.05284114869223
N            5.22701332628754        0.37041239936615       -0.00745138329606
C            2.97271410331541       -2.51559388392006        0.08700469557533
C            1.62333299879167       -2.81145686663326        0.09392188019058
C            0.71184352195607       -1.76597376031835        0.04936963775871
N           -5.72511486501824       -1.90872229569348        0.00183978062157
C           -7.55704843994326       -4.00672741998933       -0.11994567140431
C           -8.47808577492197       -5.03524530948356       -0.15914340053844
H          -10.55351313805284       -5.56186202809930       -0.14455158498520
H          -11.32915437677429       -3.22699580966623        0.00602633475282
H           -9.67572947132085       -1.38147642924663        0.07631626704543
H           -9.08247751818420        1.48017801107050        0.01822672670096
H           -9.86341839500306        3.83103215368825        0.10312374548885
H           -8.22145716087635        5.66255689555492        0.26120543258834
H           -5.80958484525392        5.15671050655186        0.33527260209744
H           -5.04121091280231        2.80278677288322        0.25052140369798
H           -3.74437169443458       -3.28603415459304        0.11174073961934
H           -1.32122809867231       -3.83047578708758        0.12626636556117
H           -2.87837075392603        0.88905875392541       -0.04877723513229
H           -0.16018047307460       -0.17458110555136        2.54302809793485
H           -0.12444362360569        1.27073686636961        4.53714935688143
H            0.06196193949296        3.72343098361757        4.27307896340141
H            0.20547751825910        4.70250490689458        2.00055427292246
H            0.22683804630871        4.48329341138656       -2.49058386283937
H            0.10066461024807        3.28782271132080       -4.65811911353728
H           -0.09015771151303        0.82137456703974       -4.68368411621655
H           -0.14565932948837       -0.42277285163698       -2.55908906964879
H            2.86216751768065        0.87619691509930       -0.04831589667460
H            6.46717623633748       -4.23074629581867        0.12857422660444
H            8.10753711211306       -6.08818681995167        0.19026690205639
H           10.52177836045051       -5.59089877359485        0.19375265247025
H           11.30167475282014       -3.25331830520657        0.13625093794023
H            9.65116885919322       -1.40491791350261        0.07472568972521
H            5.02052306081797        2.78695722390588       -0.08073397108316
H            5.79127473324125        5.14040512775208       -0.14930435379790
H            8.20560295809663        5.64023014023905       -0.15522323515821
H            9.84748008732095        3.80289061907516       -0.09343137161337
H            9.06414616752947        1.45230876028966       -0.02561970171043
H            3.71031183303005       -3.30179499092474        0.12113693991587
H            1.28512468279943       -3.83614346314220        0.13352531122201
H           -6.49739376113263       -4.20474881376833       -0.15548258264068
H           -8.14070651393606       -6.05933220981016       -0.22545127383690

          :  Hamiltonian                  GFN2-xTB          :
         :: gradient norm              0.000042168418 Eh/a0 ::
         :: HOMO-LUMO gap              1.980773760868 eV    ::
         :: SCC energy              -159.598882016581 Eh    ::
         :: -> dispersion             -0.134958142678 Eh    ::
         :: repulsion energy           2.816995593469 Eh    ::

    * Orbital Energies and Occupations

         #    Occupation            Energy/Eh            Energy/eV
      -------------------------------------------------------------
         1        2.0000           -0.7289528             -19.8358
       ...           ...                  ...                  ...
       133        2.0000           -0.4063472             -11.0573
       134        2.0000           -0.4059942             -11.0477
       135        2.0000           -0.4050869             -11.0230
       136        2.0000           -0.4048917             -11.0177
       137        2.0000           -0.4043188             -11.0021
       138        2.0000           -0.4037998             -10.9880
       139        2.0000           -0.3999616             -10.8835
       140        2.0000           -0.3869399             -10.5292
       141        2.0000           -0.3722403             -10.1292
       142        2.0000           -0.3681043             -10.0166
       143        2.0000           -0.3679007             -10.0111
       144        2.0000           -0.3678065             -10.0085
       145        2.0000           -0.3671871              -9.9917 (HOMO)
       146                         -0.2943950              -8.0109 (LUMO)
       147                         -0.2833870              -7.7114
       148                         -0.2832408              -7.7074
       149                         -0.2776295              -7.5547
       150                         -0.2516777              -6.8485
       151                         -0.2382498              -6.4831
       152                         -0.2343875              -6.3780
       153                         -0.2321436              -6.3169
       154                         -0.2302708              -6.2660
       155                         -0.2286102              -6.2208
       156                         -0.2270461              -6.1782
       ...                                ...                  ...
       282                          0.7258416              19.7512
      -------------------------------------------------------------
                  HL-Gap            0.0727921 Eh            1.9808 eV

     #   Z          covCN         q      C6AA      α(0)
     1   6 C        2.920    -0.024    28.595     8.769
     2   6 C        2.918    -0.027    28.687     8.783
     3   6 C        2.924    -0.023    28.589     8.768
     4   6 C        2.984     0.000    28.021     8.683
     5   6 C        2.982     0.202    23.710     7.987
     6   7 N        1.844    -0.295    28.498     7.912
     7   6 C        2.982     0.202    23.706     7.987
     8   6 C        2.984    -0.000    28.024     8.684
     9   6 C        2.924    -0.023    28.591     8.769
    10   6 C        2.918    -0.028    28.690     8.784
    11   6 C        2.920    -0.024    28.592     8.769
    12   6 C        2.918    -0.027    28.683     8.782
    13   6 C        2.924    -0.023    28.577     8.767
    14   7 N        1.845    -0.295    28.507     7.913
    15   6 C        2.983     0.202    23.708     7.987
    16   6 C        2.987    -0.001    28.054     8.688
    17   6 C        2.925    -0.027    28.669     8.781
    18   6 C        2.913    -0.032    28.803     8.800
    19   6 C        3.035     0.007    27.822     8.652
    20   6 C        3.055     0.005    27.862     8.657
    21   6 C        2.918    -0.027    28.680     8.782
    22   6 C        3.949     0.019    20.196     6.386
    23   6 C        2.978    -0.013    28.342     8.733
    24   6 C        2.926    -0.035    28.863     8.810
    25   6 C        2.918    -0.039    28.959     8.825
    26   6 C        2.920    -0.031    28.766     8.795
    27   6 C        2.920    -0.053    29.328     8.881
    28   6 C        2.881     0.137    25.006     8.198
    29   8 O        1.710    -0.242    18.001     5.728
    30   6 C        2.881     0.137    25.006     8.198
    31   6 C        2.920    -0.053    29.327     8.881
    32   6 C        2.920    -0.031    28.766     8.795
    33   6 C        2.918    -0.039    28.960     8.825
    34   6 C        2.926    -0.035    28.868     8.811
    35   6 C        2.978    -0.013    28.341     8.733
    36   6 C        3.057     0.005    27.858     8.656
    37   6 C        2.918    -0.027    28.688     8.783
    38   6 C        2.987    -0.001    28.054     8.688
    39   6 C        2.983     0.202    23.708     7.987
    40   7 N        1.844    -0.296    28.517     7.914
    41   6 C        2.982     0.202    23.710     7.987
    42   6 C        2.984     0.000    28.021     8.683
    43   6 C        2.924    -0.024    28.592     8.769
    44   6 C        2.918    -0.028    28.689     8.783
    45   6 C        2.920    -0.024    28.595     8.769
    46   6 C        2.918    -0.027    28.688     8.783
    47   6 C        2.924    -0.023    28.589     8.768
    48   7 N        1.844    -0.295    28.498     7.912
    49   6 C        2.982     0.202    23.706     7.987
    50   6 C        2.984    -0.000    28.025     8.684
    51   6 C        2.924    -0.023    28.575     8.766
    52   6 C        2.918    -0.027    28.682     8.782
    53   6 C        2.920    -0.024    28.593     8.769
    54   6 C        2.918    -0.028    28.691     8.784
    55   6 C        2.924    -0.023    28.591     8.769
    56   7 N        1.845    -0.295    28.506     7.913
    57   6 C        2.925    -0.027    28.669     8.781
    58   6 C        2.913    -0.032    28.798     8.800
    59   6 C        3.034     0.007    27.822     8.652
    60   7 N        1.844    -0.296    28.517     7.914
    61   6 C        2.924    -0.024    28.592     8.769
    62   6 C        2.918    -0.028    28.689     8.783
    63   1 H        0.926     0.036     2.498     2.472
    64   1 H        0.926     0.037     2.495     2.470
    65   1 H        0.926     0.055     2.258     2.350
    66   1 H        0.926     0.055     2.260     2.351
    67   1 H        0.926     0.037     2.495     2.470
    68   1 H        0.926     0.036     2.496     2.471
    69   1 H        0.926     0.037     2.488     2.467
    70   1 H        0.926     0.054     2.265     2.354
    71   1 H        0.926     0.058     2.222     2.331
    72   1 H        0.926     0.040     2.455     2.450
    73   1 H        0.926     0.053     2.278     2.360
    74   1 H        0.926     0.034     2.537     2.491
    75   1 H        0.926     0.037     2.492     2.469
    76   1 H        0.926     0.040     2.448     2.447
    77   1 H        0.926     0.050     2.314     2.379
    78   1 H        0.926     0.051     2.313     2.378
    79   1 H        0.926     0.040     2.447     2.446
    80   1 H        0.926     0.037     2.492     2.469
    81   1 H        0.926     0.034     2.536     2.490
    82   1 H        0.926     0.054     2.276     2.359
    83   1 H        0.926     0.055     2.262     2.352
    84   1 H        0.926     0.036     2.497     2.471
    85   1 H        0.926     0.036     2.499     2.472
    86   1 H        0.926     0.037     2.495     2.470
    87   1 H        0.926     0.055     2.257     2.349
    88   1 H        0.926     0.055     2.263     2.352
    89   1 H        0.926     0.037     2.485     2.465
    90   1 H        0.926     0.036     2.497     2.471
    91   1 H        0.926     0.036     2.496     2.471
    92   1 H        0.926     0.055     2.261     2.351
    93   1 H        0.926     0.058     2.221     2.331
    94   1 H        0.926     0.040     2.452     2.449
    95   1 H        0.926     0.055     2.262     2.352
    96   1 H        0.926     0.036     2.496     2.471

molecular dipole:
                 x           y           z       tot (Debye)
 q only:       -0.025      -0.063       0.010
   full:       -0.028      -0.163       0.014       0.423

 projected vibrational frequencies (cm⁻¹)
eigval :       -0.00     0.00     0.00     0.00     0.00     0.00
eigval :        3.20     4.04     5.03     9.08    16.37    16.77
eigval :       17.20    20.16    23.06    23.38    33.35    39.47
eigval :       47.48    49.49    51.24    51.85    62.88    74.25
eigval :       80.15    90.64    91.25   103.82   113.19   127.98
eigval :      129.29   142.74   172.30   179.71   181.61   182.88
eigval :      183.76   192.00   213.75   214.98   230.08   244.45
eigval :      245.88   261.23   261.62   262.31   275.55   289.13
eigval :      298.12   325.39   339.91   363.99   364.11   364.80
eigval :      364.88   381.93   386.32   388.88   393.25   401.53
eigval :      401.77   403.71   410.13   422.94   425.04   433.51
eigval :      437.70   442.47   466.52   486.34   504.41   512.86
eigval :      515.12   520.60   546.54   555.77   559.84   567.06
eigval :      587.27   587.57   587.74   588.35   597.09   601.65
eigval :      605.58   613.33   614.13   616.61   626.27   626.33
eigval :      639.34   650.56   651.97   655.83   657.52   670.63
eigval :      673.90   674.05   674.19   687.33   690.91   695.38
eigval :      707.24   734.23   749.13   752.06   754.07   775.58
eigval :      775.60   779.75   784.73   794.88   795.26   807.00
eigval :      829.70   831.10   841.92   847.48   847.52   867.41
eigval :      875.12   875.39   876.10   876.34   877.23   877.37
eigval :      878.91   883.90   886.10   909.08   909.26   910.66
eigval :      910.76   912.12   912.42   916.49   917.18   923.86
eigval :      924.06   929.03   929.35   929.77   930.45   930.52
eigval :      933.43   933.48   933.71   933.74   947.60   956.38
eigval :      984.20   988.86   990.72   990.75  1009.98  1047.29
eigval :     1047.50  1074.57  1074.82  1075.02  1075.17  1080.79
eigval :     1085.81  1088.69  1089.07  1094.49  1107.98  1108.06
eigval :     1111.84  1111.91  1118.45  1134.78  1136.65  1149.04
eigval :     1152.81  1166.82  1166.99  1172.19  1176.23  1180.01
eigval :     1180.28  1180.38  1181.05  1181.45  1186.51  1190.46
eigval :     1203.77  1203.93  1205.62  1206.49  1207.36  1208.68
eigval :     1217.08  1227.05  1230.94  1245.52  1251.38  1262.67
eigval :     1268.52  1268.68  1269.64  1270.36  1277.34  1283.03
eigval :     1327.63  1327.70  1328.15  1329.28  1329.39  1331.78
eigval :     1337.18  1352.71  1360.57  1371.06  1371.61  1372.22
eigval :     1374.74  1393.89  1416.19  1425.18  1432.53  1433.33
eigval :     1434.01  1434.26  1436.12  1439.25  1446.86  1468.28
eigval :     1468.35  1469.71  1474.34  1477.01  1478.88  1484.53
eigval :     1511.40  1515.84  1516.50  1517.93  1570.93  1579.51
eigval :     1582.52  1584.31  1585.17  1586.16  1586.23  1592.59
eigval :     1593.07  1595.26  1595.40  1595.80  1595.88  1596.67
eigval :     1601.67  1604.43  3073.93  3073.99  3074.18  3074.18
eigval :     3080.23  3080.29  3080.74  3080.82  3080.83  3081.04
eigval :     3083.07  3086.52  3087.08  3087.22  3089.44  3089.47
eigval :     3089.82  3089.92  3098.19  3098.60  3106.17  3106.23
eigval :     3106.37  3107.01  3107.20  3107.27  3107.77  3107.87
eigval :     3108.45  3108.78  3109.18  3109.33  3110.13  3110.35

   temp. (K)  partition function   enthalpy   heat capacity  entropy
                                   cal/mol     cal/K/mol   cal/K/mol   J/K/mol
 298.15  VIB  0.130E+28            29099.831    174.782    188.651
         ROT  0.203E+09              888.752      2.981     40.990
         INT  0.264E+36            29988.583    177.763    229.642
         TR   0.217E+29             1481.254      4.968     45.876
         TOT                       31469.8370   182.7314   275.5182  1152.7680

       T/K    H(0)-H(T)+PV         H(T)/Eh          T*S/Eh         G(T)/Eh
   ------------------------------------------------------------------------
    298.15    0.501504E-01    0.769863E+00    0.130908E+00    0.638956E+00
   ------------------------------------------------------------------------

         :::::::::::::::::::::::::::::::::::::::::::::::::::::
         ::                  THERMODYNAMIC                  ::
         :::::::::::::::::::::::::::::::::::::::::::::::::::::
         :: total free energy        -156.142930788545 Eh   ::
         ::.................................................::
         :: total energy             -156.781886423111 Eh   ::
         :: zero point energy           0.719712828549 Eh   ::
         :: G(RRHO) w/o ZPVE           -0.080757193983 Eh   ::
         :: G(RRHO) contrib.            0.638955634566 Eh   ::
         :::::::::::::::::::::::::::::::::::::::::::::::::::::

           -------------------------------------------------
          | TOTAL ENERGY             -156.781886423111 Eh   |
          | TOTAL ENTHALPY           -156.012023217097 Eh   |
          | TOTAL FREE ENERGY        -156.142930788545 Eh   |
          | GRADIENT NORM               0.000042163326 Eh/α |
          | HOMO-LUMO GAP               1.980773733909 eV   |
           -------------------------------------------------

 * finished run on 2025/07/18 at 17:27:06.960
