   * xtb version 6.7.1 (edcfbbe) compiled by 'albert@albert-system' on 2024-07-22

   ID    Z sym.   atoms
    1    6 C      1-5, 7-13, 15-28, 30-39, 41-47, 49-55, 57-59, 61, 62
    2    7 N      6, 14, 40, 48, 56, 60
    3    8 O      29
    4    1 H      63-96

          program call               : xtb data2507/gas/DTRZSFX/DTRZSFX_gas_T1_crest.xyz --gfn 2 --spinpol --tblite --uhf 2 --ohess vtight --parallel 40 --molden --ceasefiles --namespace data2507/gas/DTRZSFX/DTRZSFX_gas_T1_finalOpt
 * total energy  :  -156.7114198 Eh     change       -0.1628268E-07 Eh
 * total energy  :  -156.7114365 Eh     change       -0.1673487E-04 Eh
 * total energy  :  -156.7114438 Eh     change       -0.7229381E-05 Eh
 * total energy  :  -156.7114449 Eh     change       -0.1118987E-05 Eh
 * total energy  :  -156.7114472 Eh     change       -0.2328387E-05 Eh
 * total energy  :  -156.7114485 Eh     change       -0.1323103E-05 Eh
 * total energy  :  -156.7114498 Eh     change       -0.1282705E-05 Eh
 * total energy  :  -156.7114505 Eh     change       -0.6657980E-06 Eh
 * total energy  :  -156.7114513 Eh     change       -0.7898009E-06 Eh
 * total energy  :  -156.7114521 Eh     change       -0.8616665E-06 Eh
 * total energy  :  -156.7114543 Eh     change       -0.5073897E-06 Eh
 * total energy  :  -156.7114546 Eh     change       -0.3635253E-06 Eh
 * total energy  :  -156.7114550 Eh     change       -0.3724611E-06 Eh
 * total energy  :  -156.7114552 Eh     change       -0.2044841E-06 Eh
 * total energy  :  -156.7114557 Eh     change       -0.4561869E-06 Eh
 * total energy  :  -156.7114561 Eh     change       -0.4125459E-06 Eh
 * total energy  :  -156.7114564 Eh     change       -0.3128341E-06 Eh
 * total energy  :  -156.7114567 Eh     change       -0.3095136E-06 Eh
 * total energy  :  -156.7114568 Eh     change       -0.8116155E-07 Eh
   *** GEOMETRY OPTIMIZATION CONVERGED AFTER 22 ITERATIONS ***

 final structure:
================
96
 xtb: 6.7.1 (edcfbbe)
C           -9.84020449176339       -4.76850107372711       -0.05700295983684
C          -10.27215211466634       -3.45127401325936       -0.05413097446355
C           -9.35344352828170       -2.42013829809639       -0.04164046610752
C           -7.98814346773433       -2.70140251413676       -0.03195730433286
C           -7.01316921058326       -1.61295436737557       -0.01955304368628
N           -7.47396686442758       -0.35540756696713       -0.01532803817679
C           -6.55197618771274        0.61536683253077       -0.00434508885514
C           -7.01035352329495        2.00260354222348       -0.00062177474771
C           -8.37411889087053        2.29089923279146       -0.00766613459301
C           -8.80375973361861        3.60348410267965       -0.00499515735221
C           -7.88079740069473        4.63779372439601        0.00472224664935
C           -6.52297877713547        4.35640073192541        0.01189920681307
C           -6.08615703760644        3.04667974372853        0.00926335798889
N           -5.26020371774754        0.37755300598983        0.00250617308645
C           -4.84396302814015       -0.90300589103089       -0.00263983157167
C           -3.44690082851743       -1.18887029522159        0.00258407176705
C           -2.98887169502501       -2.52150967174296       -0.00678868607176
C           -1.64979339278953       -2.81781986608443       -0.00431376798828
C           -0.72121036153744       -1.77234377118940        0.00773382713570
C           -1.18111657047181       -0.43430023446933        0.01813878509753
C           -2.50995201245542       -0.13305620410120        0.01587980143404
C           -0.00600984045219        0.52818070792020        0.03108287318887
C            0.00082586368552        1.35652322442306        1.29010024722200
C           -0.04079285654145        0.73500670205932        2.53170392823566
C           -0.02576989553258        1.47406066522475        3.69846352298494
C            0.03272331391060        2.85898506253562        3.63867071865939
C            0.07418103555378        3.49492360252415        2.41592229338120
C            0.05811581732128        2.74733674401166        1.23973721913776
O            0.09988376111948        3.45453553532959        0.07544466122703
C            0.05856427271895        2.78274616653310       -1.10965822775374
C            0.07527637065417        3.56539984455482       -2.26278744545722
C            0.03436492155177        2.96650976997282       -3.50413307665881
C           -0.02423917213895        1.58401356739898       -3.60565233897075
C           -0.03990941334513        0.81017009315867       -2.46167578246306
C            0.00116499067800        1.39407964355693       -1.20194606901980
C            1.16930317364300       -0.43596605643130        0.01844889196191
C            2.49822140362874       -0.13558133378448        0.01501305478364
C            3.43418672496576       -1.19219789904240        0.00336665652165
C            4.83145328172713       -0.90739907600198       -0.00603431054566
N            5.72050949483030       -1.91913306228330       -0.00892949235709
C            6.99993042141036       -1.61955166477636       -0.01928603599480
C            7.97417015081900       -2.70862752610359       -0.02054033882979
C            7.54445319523490       -4.03506572280731       -0.00841367453813
C            8.46820770952906       -5.06113644265080       -0.00929101085325
C            9.82535806362227       -4.77659816131568       -0.02219945489559
C           10.25788090199052       -3.45961179954440       -0.03436743286189
C            9.33959641253409       -2.42804789140110       -0.03360253544716
N            7.46163957665116       -0.36242632003304       -0.02915392710317
C            6.54078606524844        0.60940592243241       -0.02702450998894
C            7.00139559787314        1.99582656163279       -0.04071303037340
C            6.07947912674493        3.04190021602633       -0.04846670936855
C            6.51934445169675        4.35056928557969       -0.06266919736084
C            7.87779903646012        4.62887910404894       -0.06919680916960
C            8.79849647231039        3.59253128658375       -0.06152914787084
C            8.36584203908563        2.28104259843456       -0.04742987718810
N            5.24883267532621        0.37284014028565       -0.01432408711754
C            2.97485466035803       -2.52439698350947       -0.00150670342752
C            1.63551529861883       -2.81946319176090        0.00047396291448
C            0.70779213586246       -1.77319013639290        0.00887829601958
N           -5.73403284278593       -1.91387334748721       -0.01372665072008
C           -7.55902740558096       -4.02810270200723       -0.03468834206527
C           -8.48317715055629       -5.05373398377686       -0.04715283700856
H          -10.56086421018607       -5.57307331359060       -0.06692345188118
H          -11.32954826927794       -3.23055047891704       -0.06176141550413
H           -9.67278664998909       -1.38969165728311       -0.03934229852582
H           -9.07879150108942        1.47408141814600       -0.01525155200844
H           -9.86111305931309        3.82431962372526       -0.01058716400135
H           -8.21951977437194        5.66349220593009        0.00665359323312
H           -5.80495618346775        5.16330520573136        0.01949065052498
H           -5.03323180644093        2.81116411122137        0.01459665059757
H           -3.72778413437181       -3.30795473252538       -0.01684588946922
H           -1.31189738057183       -3.84361114927154       -0.01229465571711
H           -2.86739448833052        0.88530825752301        0.02326154827279
H           -0.08491948683658       -0.34335830452927        2.57138073845555
H           -0.05875330448075        0.97338196729980        4.65391939345117
H            0.04559994694738        3.44231156560439        4.54681976977782
H            0.11928106387540        4.57013440248748        2.34022336054156
H            0.12040451831321        4.63784827941142       -2.15473560928755
H            0.04772787072878        3.57691671447307       -4.39430198789443
H           -0.05677965446327        1.11238022930098       -4.57578583847415
H           -0.08407695302462       -0.26654220519122       -2.53352114564853
H            2.85690385295560        0.88240658271771        0.02059780074272
H            6.48513098876544       -4.23898414905679        0.00173168636306
H            8.13288913452274       -6.08791512471806        0.00017079550673
H           10.54568448005095       -5.58152749786716       -0.02276158004013
H           11.31536293678302       -3.23940476963890       -0.04446057889596
H            9.65934023616956       -1.39776773856720       -0.04306236238366
H            5.02598581989499        2.80892351742978       -0.04369784204597
H            5.80317727233633        5.15912250753768       -0.06886731297727
H            8.21885849285921        5.65374761100277       -0.08038842614272
H            9.85637486259039        3.81086555864620       -0.06670592885329
H            9.06865169161692        1.46260875390463       -0.04140480664234
H            3.71302750192365       -3.31157019952710       -0.00871699973933
H            1.29672887331127       -3.84497894023413       -0.00499738626626
H           -6.49979502230697       -4.23258783076743       -0.02691251777706
H           -8.14826551948107       -6.08068954858739       -0.04928114849705

 projected vibrational frequencies (cm⁻¹)
eigval :       -0.00    -0.00     0.00     0.00     0.00     0.00
eigval :        4.65     7.12     7.27    11.25    16.18    19.55
eigval :       20.47    21.20    25.05    25.46    32.49    39.60
eigval :       48.37    50.63    51.57    53.18    61.53    73.83
eigval :       79.09    98.58   100.94   104.27   114.07   125.73
eigval :      131.92   140.90   169.69   181.13   182.68   188.59
eigval :      203.57   204.23   211.46   211.75   223.42   239.15
eigval :      242.71   251.61   254.36   260.47   261.50   281.26
eigval :      294.52   318.03   339.90   364.84   364.86   365.62
eigval :      365.64   371.52   374.52   381.87   383.15   385.50
eigval :      399.80   404.83   405.23   406.37   423.47   428.50
eigval :      430.12   430.42   459.65   472.57   480.56   502.17
eigval :      504.53   516.87   536.90   550.98   552.46   552.92
eigval :      556.27   557.16   564.84   587.82   587.87   587.88
eigval :      588.11   588.17   594.32   603.44   614.19   614.48
eigval :      615.09   626.39   632.33   644.82   653.74   661.47
eigval :      661.69   667.27   667.33   674.36   680.37   692.11
eigval :      697.59   716.07   718.17   721.44   729.20   769.11
eigval :      769.14   769.93   770.15   771.41   783.35   800.87
eigval :      802.56   805.34   806.19   815.50   826.36   853.34
eigval :      860.05   865.71   867.29   872.88   872.95   874.90
eigval :      874.94   875.50   875.71   895.80   905.14   905.45
eigval :      906.70   906.94   907.96   908.67   912.54   914.49
eigval :      923.41   923.45   925.25   927.90   927.93   928.94
eigval :      928.95   931.96   931.97   932.22   932.22   935.03
eigval :      972.24   972.78   982.18   982.97   983.45  1001.84
eigval :     1008.19  1063.86  1065.06  1074.32  1074.36  1076.12
eigval :     1076.38  1085.30  1087.15  1089.73  1106.01  1106.35
eigval :     1110.09  1110.83  1117.78  1121.76  1125.31  1130.31
eigval :     1134.33  1146.09  1149.58  1164.96  1170.68  1175.48
eigval :     1177.76  1178.77  1179.05  1180.61  1180.77  1181.71
eigval :     1182.03  1188.29  1189.65  1191.93  1193.48  1201.73
eigval :     1202.70  1217.78  1217.85  1232.29  1236.32  1244.80
eigval :     1255.94  1256.18  1260.97  1267.42  1268.10  1268.61
eigval :     1268.79  1274.63  1285.22  1306.26  1318.09  1327.73
eigval :     1330.15  1330.18  1330.98  1332.32  1333.22  1344.24
eigval :     1348.20  1377.19  1380.70  1390.65  1395.97  1420.71
eigval :     1431.19  1432.56  1435.66  1435.93  1436.69  1440.04
eigval :     1455.09  1456.23  1461.38  1465.03  1467.57  1468.24
eigval :     1471.72  1479.23  1487.20  1500.90  1518.47  1535.71
eigval :     1566.74  1576.59  1579.43  1579.48  1580.42  1580.49
eigval :     1584.53  1587.22  1588.15  1590.63  1590.66  1593.47
eigval :     1598.33  1601.17  3075.08  3075.10  3075.34  3075.35
eigval :     3077.45  3080.71  3080.79  3080.99  3081.14  3081.18
eigval :     3084.44  3084.55  3088.83  3088.95  3090.22  3090.23
eigval :     3090.27  3090.57  3092.31  3092.81  3098.63  3098.77
eigval :     3098.84  3099.16  3103.01  3103.12  3103.85  3103.93
eigval :     3104.60  3104.64  3105.53  3105.69  3105.81  3105.99

   temp. (K)  partition function   enthalpy   heat capacity  entropy
                                   cal/mol     cal/K/mol   cal/K/mol   J/K/mol
 298.15  VIB  0.205E+27            29439.624    177.804    188.373
         ROT  0.203E+09              888.752      2.981     40.995
         INT  0.416E+35            30328.376    180.785    229.367
         TR   0.217E+29             1481.254      4.968     45.876
         TOT                       31809.6303   185.7534   275.2438  1151.6200

       T/K    H(0)-H(T)+PV         H(T)/Eh          T*S/Eh         G(T)/Eh
   ------------------------------------------------------------------------
    298.15    0.506919E-01    0.764238E+00    0.130777E+00    0.633460E+00
   ------------------------------------------------------------------------

         :::::::::::::::::::::::::::::::::::::::::::::::::::::
         ::                  THERMODYNAMIC                  ::
         :::::::::::::::::::::::::::::::::::::::::::::::::::::
         :: total free energy        -156.077996365409 Eh   ::
         ::.................................................::
         :: total energy             -156.711456853875 Eh   ::
         :: zero point energy           0.713545825235 Eh   ::
         :: G(RRHO) w/o ZPVE           -0.080085336768 Eh   ::
         :: G(RRHO) contrib.            0.633460488467 Eh   ::
         :::::::::::::::::::::::::::::::::::::::::::::::::::::

           -------------------------------------------------
          | TOTAL ENERGY             -156.711456853875 Eh   |
          | TOTAL ENTHALPY           -155.947219156066 Eh   |
          | TOTAL FREE ENERGY        -156.077996365409 Eh   |
          | GRADIENT NORM               0.000123392340 Eh/α |
           -------------------------------------------------

 * finished run on 2025/07/18 at 17:39:37.616
