   * xtb version 6.7.1 (edcfbbe) compiled by 'albert@albert-system' on 2024-07-22

   ID    Z sym.   atoms
    1    6 C      1-5, 7-13, 15-28, 30-39, 41-47, 49-55, 57-59, 61, 62
    2    7 N      6, 14, 40, 48, 56, 60
    3    8 O      29
    4    1 H      63-96

          program call               : xtb data2507/gas/DTRZSFX/DTRZSFX.xyz --gfn 2 --ohess vtight --parallel 40 --molden --ceasefiles --namespace data2507/gas/DTRZSFX/DTRZSFX_gas_S0_preOpt
          :  Hamiltonian                  GFN2-xTB          :
 * total energy  :  -156.7619233 Eh     change       -0.6442860E-08 Eh
 * total energy  :  -156.7748054 Eh     change       -0.1288210E-01 Eh
 * total energy  :  -156.7792138 Eh     change       -0.4408433E-02 Eh
 * total energy  :  -156.7808805 Eh     change       -0.1666714E-02 Eh
 * total energy  :  -156.7815750 Eh     change       -0.6944275E-03 Eh
 * total energy  :  -156.7817277 Eh     change       -0.1527253E-03 Eh
 * total energy  :  -156.7817778 Eh     change       -0.5008338E-04 Eh
 * total energy  :  -156.7818060 Eh     change       -0.2821381E-04 Eh
 * total energy  :  -156.7818216 Eh     change       -0.1555599E-04 Eh
 * total energy  :  -156.7818380 Eh     change       -0.1643631E-04 Eh
 * total energy  :  -156.7818899 Eh     change       -0.3748693E-06 Eh
 * total energy  :  -156.7818902 Eh     change       -0.2918933E-06 Eh
 * total energy  :  -156.7818904 Eh     change       -0.2166459E-06 Eh
 * total energy  :  -156.7818906 Eh     change       -0.1771000E-06 Eh
 * total energy  :  -156.7818907 Eh     change       -0.1657855E-06 Eh
 * total energy  :  -156.7818909 Eh     change       -0.1729251E-06 Eh
 * total energy  :  -156.7818911 Eh     change       -0.1994193E-06 Eh
 * total energy  :  -156.7818913 Eh     change       -0.2165922E-06 Eh
 * total energy  :  -156.7818913 Eh     change       -0.1692200E-08 Eh
   *** GEOMETRY OPTIMIZATION CONVERGED AFTER 44 ITERATIONS ***

 final structure:
================
96
 xtb: 6.7.1 (edcfbbe)
C           -9.79659534405332       -4.80955161518039        0.00144935496979
C          -10.24269329661209       -3.49700435711236        0.00017776623815
C           -9.33444530708931       -2.45631798051070       -0.00049242240734
C           -7.96700365151212       -2.72381410631466        0.00009834898577
C           -7.00140437244409       -1.62435642357138       -0.00060360663027
N           -7.47039181668512       -0.37991936290228       -0.00084316030513
C           -6.55766033866282        0.58766433758531       -0.00141216066437
C           -7.02493551935392        1.97417195163434       -0.00181232113410
C           -8.39014090071667        2.25335652386813       -0.00047206161722
C           -8.82817133977425        3.56329519206178       -0.00087641767318
C           -7.91120126058035        4.60302392518214       -0.00263433808086
C           -6.55198038168753        4.33054136625301       -0.00398111082094
C           -6.10720387931010        3.02286573227760       -0.00356883651655
N           -5.24561246781401        0.37160300045307       -0.00165302416304
C           -4.86434923693000       -0.90242941952761       -0.00143564095302
C           -3.43113932560595       -1.18852426372930       -0.00176833843741
C           -2.98662932612165       -2.51211665929349       -0.00345340941179
C           -1.63786599578669       -2.80977790986302       -0.00384302381331
C           -0.72551745646423       -1.76420953228667       -0.00247262790709
C           -1.17302383170816       -0.43263905616238       -0.00072909832339
C           -2.51321812852629       -0.13447034785081       -0.00039474365890
C            0.00004735341136        0.52765384264796        0.00062990252270
C           -0.00004428590975        1.37736844515971        1.24988871033459
C            0.00051048969683        0.77049786479249        2.49923499559212
C            0.00033867163377        1.52408705080821        3.65691639541927
C           -0.00040934126192        2.90797798116309        3.57735795679916
C           -0.00096684529267        3.52801482207093        2.34512401192031
C           -0.00078609220579        2.76631357978027        1.17898226759538
O           -0.00135417316154        3.46122141960694        0.00489100162662
C           -0.00080634857715        2.76972169103080       -1.17121102824790
C           -0.00103049499032        3.53480383828418       -2.33513781409294
C           -0.00049245574486        2.91834493602413       -3.56916632672647
C            0.00028713899607        1.53469070010205       -3.65274090973591
C            0.00049887800746        0.77774448535670       -2.49725114392142
C           -0.00004378910982        1.38098710506245       -1.24614944048182
C            1.17313712836243       -0.43259794155127       -0.00069622564240
C            2.51332554610555       -0.13439601364809       -0.00027761678570
C            3.43127543635101       -1.18842612629341       -0.00161620455143
C            4.86448057464755       -0.90230615793032       -0.00114257058636
N            5.70767716495639       -1.93112818405349       -0.00156398542562
C            7.00154372195580       -1.62421321842066       -0.00102235527832
C            7.96715401361365       -2.72366140930797       -0.00136324725843
C            7.52396326761570       -4.04481179543955       -0.00181400195468
C            8.43733305287270       -5.08086182374652       -0.00210901005341
C            9.79676722013554       -4.80938058635516       -0.00196278496675
C           10.24285168524388       -3.49682819741165       -0.00151831999252
C            9.33459300466978       -2.45615098290208       -0.00121673661625
N            7.47051793347680       -0.37977147813634       -0.00018819801523
C            6.55777673247663        0.58780294477064        0.00012486060395
C            7.02504405515811        1.97431314741888        0.00099602272734
C            6.10730778399693        3.02300392845589        0.00082474114969
C            6.55207896673206        4.33068130615586        0.00163086798812
C            7.91129923158800        4.60316828921477        0.00261858259367
C            8.82827413830595        3.56344234878756        0.00279668983388
C            8.39024889769924        2.25350222519807        0.00198745934328
N            5.24573024233961        0.37173015004605       -0.00029064568457
C            2.98680179270052       -2.51203099618582       -0.00336344348753
C            1.63804705399630       -2.80972964451575       -0.00381370235779
C            0.72567067998560       -1.76418556401704       -0.00245898536444
N           -5.70753445595226       -1.93126012057521       -0.00095431981258
C           -7.52379924796495       -4.04495935190375        0.00137882185893
C           -8.43715843288782       -5.08101854672620        0.00205196826104
H          -10.50902107339260       -5.62166946976799        0.00198363439566
H          -11.30250798707339       -3.28797050742036       -0.00029284058031
H           -9.66285413576846       -1.42894161727218       -0.00150792991871
H           -9.08866764972164        1.43150747963805        0.00089913186792
H           -9.88684960937589        3.77801946567539        0.00017214307430
H           -8.25649822346508        5.62669187078874       -0.00295388069900
H           -5.83913683069580        5.14211052673509       -0.00535545752330
H           -5.05349351450727        2.79240335782269       -0.00463542340251
H           -3.72530601823046       -3.29799076775502       -0.00449260217750
H           -1.30064580450234       -3.83553122539203       -0.00519060826670
H           -2.87217228591645        0.88266849426123        0.00094668553645
H            0.00108175978167       -0.30851464410477        2.55420964464503
H            0.00077686940534        1.03463176192926        4.61870333125115
H           -0.00056589031918        3.50451255230888        4.47698352392883
H           -0.00155413494792        4.60301485300781        2.25510546063116
H           -0.00163368889863        4.60953847547728       -2.24199841103708
H           -0.00068447841370        3.51748812439619       -4.46705695698200
H            0.00071077150363        1.04803032186916       -4.61594489669411
H            0.00108503307361       -0.30110418572630       -2.55535124213720
H            2.87224909736410        0.88275314767042        0.00108128819999
H            6.46258970425841       -4.23660317818492       -0.00190475027163
H            8.09202675701742       -6.10446315953478       -0.00245396514564
H           10.50920130380139       -5.62149123665478       -0.00219483885474
H           11.30266425379037       -3.28778317892982       -0.00140371803337
H            9.66299148909881       -1.42877087047043       -0.00087468145567
H            5.05359804225954        2.79253740168636        0.00003066215362
H            5.83923182880889        5.14224858823476        0.00148931477492
H            8.25659173952501        5.62683753586156        0.00325817487668
H            9.88695192167986        3.77816994659638        0.00357345979667
H            9.08877939179591        1.43165530085386        0.00211599568291
H            3.72550017419349       -3.29788457693913       -0.00437296981816
H            1.30085373119435       -3.83549168178697       -0.00517878950611
H           -6.46242365070364       -4.23673896698719        0.00186466314477
H           -8.09184160885356       -6.10461589569591        0.00306148173760

          :  Hamiltonian                  GFN2-xTB          :
         :: gradient norm              0.000031432303 Eh/a0 ::
         :: HOMO-LUMO gap              1.980395884003 eV    ::
         :: SCC energy              -159.598802159304 Eh    ::
         :: -> dispersion             -0.134921925596 Eh    ::
         :: repulsion energy           2.816910846732 Eh    ::

    * Orbital Energies and Occupations

         #    Occupation            Energy/Eh            Energy/eV
      -------------------------------------------------------------
         1        2.0000           -0.7289991             -19.8371
       ...           ...                  ...                  ...
       133        2.0000           -0.4063456             -11.0572
       134        2.0000           -0.4060160             -11.0483
       135        2.0000           -0.4050888             -11.0230
       136        2.0000           -0.4048931             -11.0177
       137        2.0000           -0.4043392             -11.0026
       138        2.0000           -0.4038189             -10.9885
       139        2.0000           -0.3999576             -10.8834
       140        2.0000           -0.3869268             -10.5288
       141        2.0000           -0.3722283             -10.1288
       142        2.0000           -0.3680447             -10.0150
       143        2.0000           -0.3679110             -10.0114
       144        2.0000           -0.3678064             -10.0085
       145        2.0000           -0.3672083              -9.9922 (HOMO)
       146                         -0.2944301              -8.0119 (LUMO)
       147                         -0.2833264              -7.7097
       148                         -0.2833252              -7.7097
       149                         -0.2776447              -7.5551
       150                         -0.2516779              -6.8485
       151                         -0.2382596              -6.4834
       152                         -0.2344040              -6.3785
       153                         -0.2321591              -6.3174
       154                         -0.2302991              -6.2668
       155                         -0.2286174              -6.2210
       156                         -0.2270136              -6.1774
       ...                                ...                  ...
       282                          0.7256687              19.7464
      -------------------------------------------------------------
                  HL-Gap            0.0727782 Eh            1.9804 eV

     #   Z          covCN         q      C6AA      α(0)
     1   6 C        2.920    -0.024    28.595     8.769
     2   6 C        2.918    -0.027    28.688     8.783
     3   6 C        2.924    -0.023    28.589     8.768
     4   6 C        2.984     0.000    28.022     8.683
     5   6 C        2.982     0.202    23.711     7.987
     6   7 N        1.844    -0.295    28.498     7.912
     7   6 C        2.982     0.202    23.706     7.987
     8   6 C        2.984    -0.000    28.024     8.684
     9   6 C        2.924    -0.023    28.591     8.769
    10   6 C        2.918    -0.028    28.691     8.784
    11   6 C        2.920    -0.024    28.592     8.769
    12   6 C        2.918    -0.027    28.683     8.782
    13   6 C        2.924    -0.023    28.576     8.766
    14   7 N        1.844    -0.295    28.505     7.913
    15   6 C        2.983     0.202    23.709     7.987
    16   6 C        2.987    -0.001    28.054     8.688
    17   6 C        2.925    -0.027    28.670     8.781
    18   6 C        2.913    -0.032    28.801     8.800
    19   6 C        3.035     0.007    27.822     8.652
    20   6 C        3.056     0.005    27.861     8.656
    21   6 C        2.918    -0.027    28.683     8.782
    22   6 C        3.949     0.019    20.196     6.386
    23   6 C        2.978    -0.013    28.342     8.733
    24   6 C        2.926    -0.035    28.865     8.811
    25   6 C        2.918    -0.039    28.959     8.825
    26   6 C        2.920    -0.031    28.766     8.795
    27   6 C        2.920    -0.053    29.328     8.881
    28   6 C        2.881     0.137    25.006     8.198
    29   8 O        1.710    -0.241    17.999     5.728
    30   6 C        2.881     0.137    25.006     8.198
    31   6 C        2.920    -0.053    29.328     8.881
    32   6 C        2.920    -0.031    28.766     8.795
    33   6 C        2.918    -0.039    28.959     8.825
    34   6 C        2.926    -0.035    28.865     8.811
    35   6 C        2.978    -0.013    28.342     8.733
    36   6 C        3.056     0.005    27.861     8.656
    37   6 C        2.918    -0.027    28.683     8.782
    38   6 C        2.987    -0.001    28.054     8.688
    39   6 C        2.983     0.202    23.709     7.987
    40   7 N        1.844    -0.296    28.518     7.914
    41   6 C        2.982     0.202    23.711     7.987
    42   6 C        2.984     0.000    28.022     8.683
    43   6 C        2.924    -0.024    28.592     8.769
    44   6 C        2.918    -0.028    28.689     8.783
    45   6 C        2.920    -0.024    28.595     8.769
    46   6 C        2.918    -0.027    28.688     8.783
    47   6 C        2.924    -0.023    28.589     8.768
    48   7 N        1.844    -0.295    28.498     7.912
    49   6 C        2.982     0.202    23.706     7.987
    50   6 C        2.984    -0.000    28.024     8.684
    51   6 C        2.924    -0.023    28.576     8.766
    52   6 C        2.918    -0.027    28.683     8.782
    53   6 C        2.920    -0.024    28.592     8.769
    54   6 C        2.918    -0.028    28.691     8.784
    55   6 C        2.924    -0.023    28.591     8.769
    56   7 N        1.844    -0.295    28.505     7.913
    57   6 C        2.925    -0.027    28.670     8.781
    58   6 C        2.913    -0.032    28.801     8.800
    59   6 C        3.035     0.007    27.822     8.652
    60   7 N        1.844    -0.296    28.518     7.914
    61   6 C        2.924    -0.024    28.592     8.769
    62   6 C        2.918    -0.028    28.689     8.783
    63   1 H        0.926     0.036     2.498     2.472
    64   1 H        0.926     0.037     2.495     2.470
    65   1 H        0.926     0.055     2.258     2.350
    66   1 H        0.926     0.055     2.259     2.351
    67   1 H        0.926     0.037     2.496     2.470
    68   1 H        0.926     0.036     2.496     2.471
    69   1 H        0.926     0.037     2.487     2.466
    70   1 H        0.926     0.055     2.264     2.353
    71   1 H        0.926     0.058     2.220     2.330
    72   1 H        0.926     0.040     2.453     2.449
    73   1 H        0.926     0.053     2.279     2.361
    74   1 H        0.926     0.033     2.537     2.491
    75   1 H        0.926     0.037     2.492     2.469
    76   1 H        0.926     0.040     2.447     2.446
    77   1 H        0.926     0.051     2.313     2.378
    78   1 H        0.926     0.051     2.313     2.378
    79   1 H        0.926     0.040     2.447     2.446
    80   1 H        0.926     0.037     2.492     2.469
    81   1 H        0.926     0.033     2.537     2.491
    82   1 H        0.926     0.053     2.279     2.361
    83   1 H        0.926     0.055     2.263     2.352
    84   1 H        0.926     0.036     2.497     2.471
    85   1 H        0.926     0.036     2.498     2.472
    86   1 H        0.926     0.037     2.495     2.470
    87   1 H        0.926     0.055     2.258     2.350
    88   1 H        0.926     0.055     2.264     2.353
    89   1 H        0.926     0.037     2.487     2.466
    90   1 H        0.926     0.036     2.496     2.471
    91   1 H        0.926     0.037     2.496     2.470
    92   1 H        0.926     0.055     2.259     2.351
    93   1 H        0.926     0.058     2.220     2.330
    94   1 H        0.926     0.040     2.453     2.449
    95   1 H        0.926     0.055     2.263     2.352
    96   1 H        0.926     0.036     2.497     2.471

molecular dipole:
                 x           y           z       tot (Debye)
 q only:        0.000      -0.070      -0.000
   full:        0.000      -0.170      -0.000       0.433

 projected vibrational frequencies (cm⁻¹)
eigval :       -0.00    -0.00    -0.00     0.00     0.00     0.00
eigval :        3.70     3.93     6.76     9.17    16.63    16.83
eigval :       16.87    20.36    23.29    23.45    33.47    39.59
eigval :       47.31    49.50    51.37    51.87    63.01    74.09
eigval :       79.98    90.48    91.02   103.32   113.22   128.12
eigval :      128.81   142.93   172.30   179.35   181.27   182.96
eigval :      183.72   191.65   214.06   214.49   229.90   244.62
eigval :      245.51   261.33   261.93   262.33   275.56   288.88
eigval :      298.13   325.40   339.71   363.99   364.00   364.80
eigval :      364.82   382.33   386.30   388.82   393.23   401.73
eigval :      401.75   403.68   409.58   423.07   425.39   433.37
eigval :      437.26   442.30   466.56   486.40   504.42   512.84
eigval :      515.31   520.59   546.92   555.80   559.61   566.65
eigval :      587.28   587.57   587.74   588.37   597.06   602.32
eigval :      604.86   613.36   614.07   616.66   626.28   626.28
eigval :      639.37   650.57   651.94   656.23   657.12   670.82
eigval :      673.91   673.92   673.96   687.32   690.76   695.35
eigval :      706.90   734.24   749.22   752.04   754.06   775.60
eigval :      775.60   779.71   784.76   794.87   795.25   806.99
eigval :      829.66   831.03   841.89   847.46   847.48   867.47
eigval :      875.14   875.19   876.10   876.35   877.24   877.27
eigval :      878.88   883.83   885.94   909.07   909.13   910.70
eigval :      910.70   912.13   912.41   916.49   917.16   923.86
eigval :      924.06   929.05   929.33   929.83   930.50   930.50
eigval :      933.48   933.49   933.76   933.76   947.57   956.27
eigval :      984.15   988.80   990.72   990.74  1009.69  1047.28
eigval :     1047.49  1074.52  1074.80  1075.01  1075.15  1080.73
eigval :     1085.68  1088.67  1089.08  1094.49  1107.95  1108.00
eigval :     1111.82  1111.90  1118.53  1135.05  1136.41  1149.03
eigval :     1152.67  1166.79  1166.92  1172.15  1176.23  1179.98
eigval :     1180.29  1180.38  1181.05  1181.45  1186.49  1190.44
eigval :     1203.76  1203.90  1205.86  1206.12  1207.29  1208.53
eigval :     1217.29  1226.96  1230.70  1245.28  1251.44  1262.72
eigval :     1268.51  1268.65  1269.64  1270.34  1277.31  1283.32
eigval :     1327.64  1327.87  1328.16  1329.28  1329.39  1331.87
eigval :     1337.24  1352.81  1360.24  1371.07  1371.41  1372.20
eigval :     1374.72  1393.70  1416.26  1425.11  1432.51  1433.32
eigval :     1434.00  1434.25  1436.13  1439.17  1446.74  1468.27
eigval :     1468.31  1469.82  1474.46  1476.98  1478.93  1484.56
eigval :     1511.35  1515.68  1516.46  1517.96  1571.01  1579.54
eigval :     1582.58  1584.31  1585.22  1586.16  1586.23  1592.23
eigval :     1593.13  1595.25  1595.38  1595.80  1595.87  1596.70
eigval :     1601.40  1604.45  3073.93  3073.93  3074.15  3074.15
eigval :     3080.23  3080.24  3080.75  3080.75  3080.76  3080.95
eigval :     3083.21  3086.66  3087.12  3087.18  3089.42  3089.44
eigval :     3089.79  3089.89  3098.19  3098.60  3106.15  3106.16
eigval :     3106.22  3106.98  3107.28  3107.28  3107.98  3107.99
eigval :     3108.62  3108.69  3109.32  3109.33  3110.61  3110.77

   temp. (K)  partition function   enthalpy   heat capacity  entropy
                                   cal/mol     cal/K/mol   cal/K/mol   J/K/mol
 298.15  VIB  0.849E+27            29099.320    174.795    188.253
         ROT  0.101E+09              888.752      2.981     39.617
         INT  0.862E+35            29988.073    177.776    227.870
         TR   0.217E+29             1481.254      4.968     45.876
         TOT                       31469.3266   182.7437   273.7470  1145.3573

       T/K    H(0)-H(T)+PV         H(T)/Eh          T*S/Eh         G(T)/Eh
   ------------------------------------------------------------------------
    298.15    0.501496E-01    0.769855E+00    0.130066E+00    0.639789E+00
   ------------------------------------------------------------------------

         :::::::::::::::::::::::::::::::::::::::::::::::::::::
         ::                  THERMODYNAMIC                  ::
         :::::::::::::::::::::::::::::::::::::::::::::::::::::
         :: total free energy        -156.142102163145 Eh   ::
         ::.................................................::
         :: total energy             -156.781891312571 Eh   ::
         :: zero point energy           0.719705597179 Eh   ::
         :: G(RRHO) w/o ZPVE           -0.079916447752 Eh   ::
         :: G(RRHO) contrib.            0.639789149426 Eh   ::
         :::::::::::::::::::::::::::::::::::::::::::::::::::::

           -------------------------------------------------
          | TOTAL ENERGY             -156.781891312571 Eh   |
          | TOTAL ENTHALPY           -156.012036151221 Eh   |
          | TOTAL FREE ENERGY        -156.142102163145 Eh   |
          | GRADIENT NORM               0.000031432425 Eh/α |
          | HOMO-LUMO GAP               1.980395905705 eV   |
           -------------------------------------------------

 * finished run on 2025/07/18 at 17:22:26.869
