   * xtb version 6.7.1 (edcfbbe) compiled by 'albert@albert-system' on 2024-07-22

   ID    Z sym.   atoms
    1    7 N      1, 23, 26
    2    6 C      2-22, 24, 25, 27, 28
    3    1 H      29-43

          program call               : xtb data2507/gas/PyDCN/PyDCN.xyz --gfn 2 --ohess vtight --parallel 40 --molden --ceasefiles --namespace data2507/gas/PyDCN/PyDCN_gas_S0_preOpt
          :  Hamiltonian                  GFN2-xTB          :
 * total energy  :   -69.8471945 Eh     change       -0.1317076E-08 Eh
 * total energy  :   -69.8539595 Eh     change       -0.6765049E-02 Eh
 * total energy  :   -69.8533470 Eh     change        0.6124837E-03 Eh
 * total energy  :   -69.8555199 Eh     change       -0.2172903E-02 Eh
 * total energy  :   -69.8558455 Eh     change       -0.3255441E-03 Eh
 * total energy  :   -69.8559326 Eh     change       -0.8716067E-04 Eh
 * total energy  :   -69.8559229 Eh     change        0.9758918E-05 Eh
 * total energy  :   -69.8560630 Eh     change       -0.1401122E-03 Eh
 * total energy  :   -69.8561306 Eh     change       -0.6757937E-04 Eh
 * total energy  :   -69.8562909 Eh     change       -0.1603619E-03 Eh
 * total energy  :   -69.8567226 Eh     change       -0.1058767E-05 Eh
 * total energy  :   -69.8567230 Eh     change       -0.4538759E-06 Eh
 * total energy  :   -69.8567233 Eh     change       -0.2382813E-06 Eh
 * total energy  :   -69.8567233 Eh     change        0.2692673E-09 Eh
 * total energy  :   -69.8567234 Eh     change       -0.1532612E-06 Eh
 * total energy  :   -69.8567236 Eh     change       -0.1381485E-06 Eh
 * total energy  :   -69.8567237 Eh     change       -0.1394017E-06 Eh
 * total energy  :   -69.8567238 Eh     change       -0.1152450E-06 Eh
 * total energy  :   -69.8567239 Eh     change       -0.7196223E-07 Eh
   *** GEOMETRY OPTIMIZATION CONVERGED AFTER 36 ITERATIONS ***

 final structure:
================
43
 xtb: 6.7.1 (edcfbbe)
N           -6.71457194184130       -4.34042068555147        0.30581216430108
C           -5.77884180956111       -3.67965513300989        0.25673698620300
C           -4.62700351234530       -2.86299911857451        0.19665087155660
C           -3.40216175857085       -3.34310806349141        0.66454994451522
C           -2.28563912461766       -2.53794645747263        0.60352463932200
C           -2.36449960702611       -1.24443311944272        0.08471050552091
C           -1.14809264581795       -0.42000497306331        0.04023120014176
C           -1.19140756772356        0.97307056464587        0.05825558939397
C            0.00117462151490        1.68900593074209        0.00020192994330
C            0.00214312923538        3.15875739078725        0.00005490329442
C           -0.93481425959956        3.86652985847096       -0.74855882745506
C           -0.92976655117109        5.24887213442013       -0.75144410204638
C            0.00388391821372        5.94298493457353       -0.00009985878738
C            0.93668225555795        5.24779336094097        0.75130041433082
C            0.93998891832221        3.86544575827058        0.74858444136218
C            1.19280951144686        0.97149412550860       -0.05780974216711
C            1.14765473429033       -0.42152012158510       -0.03973972719532
C            2.36294986595311       -1.24757218425524       -0.08445225759217
C            3.58898742911601       -0.78256370649774        0.39007882724959
C            4.71143659818571       -1.58262881313097        0.33612236783102
C            4.62318206396558       -2.86926754373673       -0.19700707158484
C            5.77372544809168       -3.68774833596933       -0.25703226335277
N            6.70805809136003       -4.35051534584832       -0.30565897335474
C            3.39753989258445       -3.34770155646253       -0.66452928469349
C            2.28215400134022       -2.54099570541517       -0.60319224874421
N           -0.00065956601025       -1.08757834807623        0.00028498699787
C           -3.58972328777033       -0.77780396204015       -0.39032968537278
C           -4.71328941465461       -1.57631993999818       -0.33670549974112
H           -3.34083064705170       -4.34204261435186        1.07063981495180
H           -1.33025354236604       -2.89210342377038        0.95792958882229
H           -2.13012241716514        1.49601989812444        0.15076741513997
H           -1.65426073743116        3.32921595191874       -1.34952058724343
H           -1.65635756987129        5.78685188276976       -1.34233093430238
H            0.00457922187337        7.02267136779664       -0.00019232253807
H            1.66397751960451        5.78493572722616        1.34208083437072
H            1.65873696007236        3.32730133585995        1.34963863420284
H            2.13220802010873        1.49320290669889       -0.15037327197198
H            3.66555602364874        0.20270628930430        0.82456332095091
H            5.66031834071993       -1.22328956706999        0.70674369755957
H            3.33469331401985       -4.34657874400951       -1.07052774921509
H            1.32616452328166       -2.89385196502351       -0.95726522800012
H           -3.66476943141141        0.20751255119730       -0.82497203784422
H           -5.66153701050074       -1.21572054140934       -0.70772340476008

          :  Hamiltonian                  GFN2-xTB          :
         :: gradient norm              0.000058395330 Eh/a0 ::
         :: HOMO-LUMO gap              2.474905833164 eV    ::
         :: SCC energy               -71.246121463140 Eh    ::
         :: -> dispersion             -0.051900039888 Eh    ::
         :: repulsion energy           1.389397575063 Eh    ::

    * Orbital Energies and Occupations

         #    Occupation            Energy/Eh            Energy/eV
      -------------------------------------------------------------
         1        2.0000           -0.6798707             -18.5002
       ...           ...                  ...                  ...
        53        2.0000           -0.4440575             -12.0834
        54        2.0000           -0.4417178             -12.0198
        55        2.0000           -0.4413110             -12.0087
        56        2.0000           -0.4360897             -11.8666
        57        2.0000           -0.4313369             -11.7373
        58        2.0000           -0.4312338             -11.7345
        59        2.0000           -0.4236477             -11.5280
        60        2.0000           -0.4233187             -11.5191
        61        2.0000           -0.4220544             -11.4847
        62        2.0000           -0.4210929             -11.4585
        63        2.0000           -0.4124687             -11.2238
        64        2.0000           -0.4067606             -11.0685
        65        2.0000           -0.3832524             -10.4288 (HOMO)
        66                         -0.2923013              -7.9539 (LUMO)
        67                         -0.2918435              -7.9415
        68                         -0.2655473              -7.2259
        69                         -0.2477548              -6.7418
        70                         -0.2475921              -6.7373
        71                         -0.2399273              -6.5288
        72                         -0.2377129              -6.4685
        73                         -0.2240751              -6.0974
        74                         -0.2089143              -5.6848
        75                         -0.2088929              -5.6843
        76                         -0.1794889              -4.8841
       ...                                ...                  ...
       127                          1.1684697              31.7957
      -------------------------------------------------------------
                  HL-Gap            0.0909511 Eh            2.4749 eV

     #   Z          covCN         q      C6AA      α(0)
     1   7 N        0.911    -0.231    26.059     7.383
     2   6 C        1.912     0.112    28.334     8.597
     3   6 C        2.974     0.021    27.542     8.608
     4   6 C        2.924    -0.019    28.485     8.752
     5   6 C        2.925    -0.024    28.598     8.770
     6   6 C        2.981     0.014    27.692     8.632
     7   6 C        2.951     0.093    25.930     8.352
     8   6 C        2.922    -0.050    29.252     8.869
     9   6 C        2.981     0.026    27.418     8.589
    10   6 C        2.978     0.007    27.849     8.656
    11   6 C        2.925    -0.031    28.771     8.796
    12   6 C        2.919    -0.028    28.689     8.783
    13   6 C        2.920    -0.027    28.681     8.782
    14   6 C        2.919    -0.028    28.689     8.783
    15   6 C        2.925    -0.031    28.771     8.796
    16   6 C        2.922    -0.050    29.252     8.869
    17   6 C        2.951     0.093    25.930     8.352
    18   6 C        2.981     0.014    27.692     8.632
    19   6 C        2.922    -0.030    28.747     8.793
    20   6 C        2.925    -0.020    28.517     8.757
    21   6 C        2.974     0.021    27.542     8.608
    22   6 C        1.912     0.112    28.334     8.597
    23   7 N        0.911    -0.231    26.059     7.383
    24   6 C        2.924    -0.019    28.485     8.752
    25   6 C        2.925    -0.024    28.598     8.770
    26   7 N        1.856    -0.245    27.241     7.736
    27   6 C        2.922    -0.030    28.747     8.793
    28   6 C        2.925    -0.020    28.517     8.757
    29   1 H        0.926     0.046     2.372     2.408
    30   1 H        0.926     0.061     2.191     2.315
    31   1 H        0.926     0.038     2.478     2.461
    32   1 H        0.926     0.032     2.556     2.500
    33   1 H        0.926     0.035     2.516     2.480
    34   1 H        0.926     0.036     2.509     2.477
    35   1 H        0.926     0.035     2.516     2.480
    36   1 H        0.926     0.032     2.556     2.500
    37   1 H        0.926     0.038     2.478     2.461
    38   1 H        0.926     0.039     2.457     2.451
    39   1 H        0.926     0.044     2.400     2.422
    40   1 H        0.926     0.046     2.372     2.408
    41   1 H        0.926     0.061     2.191     2.315
    42   1 H        0.926     0.039     2.457     2.451
    43   1 H        0.926     0.044     2.400     2.422

molecular dipole:
                 x           y           z       tot (Debye)
 q only:        0.002       1.887      -0.000
   full:        0.002       2.859      -0.000       7.267

 projected vibrational frequencies (cm⁻¹)
eigval :       -0.00    -0.00    -0.00     0.00     0.00     0.00
eigval :       28.24    28.44    31.86    38.93    42.34    47.46
eigval :       65.23    75.89   109.76   129.15   132.93   144.51
eigval :      178.84   205.56   225.48   238.66   259.18   264.90
eigval :      270.99   354.29   357.87   363.36   364.75   372.28
eigval :      400.42   420.41   464.52   510.01   523.93   527.46
eigval :      532.74   537.61   537.76   554.76   584.84   600.95
eigval :      604.95   606.23   620.11   620.68   669.75   685.99
eigval :      700.73   717.64   735.93   759.64   772.12   815.56
eigval :      820.01   839.72   842.73   867.41   868.94   869.15
eigval :      874.15   884.40   905.05   915.68   915.95   925.58
eigval :      927.99   930.14   933.73   972.96   998.24  1012.14
eigval :     1014.45  1077.32  1088.21  1110.68  1120.59  1129.29
eigval :     1135.39  1146.13  1182.17  1187.66  1187.70  1200.62
eigval :     1219.64  1225.14  1243.40  1246.59  1264.03  1264.85
eigval :     1280.21  1294.26  1317.55  1319.70  1320.98  1358.36
eigval :     1386.14  1386.52  1401.46  1426.41  1432.16  1479.22
eigval :     1480.49  1484.86  1533.59  1551.73  1554.40  1563.25
eigval :     1583.03  1589.29  1589.78  1599.45  2373.41  2374.35
eigval :     3074.82  3075.13  3082.85  3083.86  3083.91  3087.90
eigval :     3089.02  3089.15  3094.28  3094.43  3096.85  3098.93
eigval :     3099.52  3107.33  3108.01

   temp. (K)  partition function   enthalpy   heat capacity  entropy
                                   cal/mol     cal/K/mol   cal/K/mol   J/K/mol
 298.15  VIB  0.481E+10            12727.569     78.615     78.966
         ROT  0.127E+08              888.752      2.981     35.495
         INT  0.613E+17            13616.322     81.596    114.460
         TR   0.654E+28             1481.254      4.968     43.495
         TOT                       15097.5757    86.5638   157.9550   660.8836

       T/K    H(0)-H(T)+PV         H(T)/Eh          T*S/Eh         G(T)/Eh
   ------------------------------------------------------------------------
    298.15    0.240595E-01    0.341249E+00    0.750495E-01    0.266199E+00
   ------------------------------------------------------------------------

         :::::::::::::::::::::::::::::::::::::::::::::::::::::
         ::                  THERMODYNAMIC                  ::
         :::::::::::::::::::::::::::::::::::::::::::::::::::::
         :: total free energy         -69.590524489159 Eh   ::
         ::.................................................::
         :: total energy              -69.856723888091 Eh   ::
         :: zero point energy           0.317189389042 Eh   ::
         :: G(RRHO) w/o ZPVE           -0.050989990109 Eh   ::
         :: G(RRHO) contrib.            0.266199398933 Eh   ::
         :::::::::::::::::::::::::::::::::::::::::::::::::::::

           -------------------------------------------------
          | TOTAL ENERGY              -69.856723888091 Eh   |
          | TOTAL ENTHALPY            -69.515474980739 Eh   |
          | TOTAL FREE ENERGY         -69.590524489159 Eh   |
          | GRADIENT NORM               0.000058399858 Eh/α |
          | HOMO-LUMO GAP               2.474906411699 eV   |
           -------------------------------------------------

 * finished run on 2025/09/05 at 01:58:54.717
