   * xtb version 6.7.1 (edcfbbe) compiled by 'albert@albert-system' on 2024-07-22

   ID    Z sym.   atoms
    1    7 N      1, 23, 26
    2    6 C      2-22, 24, 25, 27, 28
    3    1 H      29-43

          program call               : xtb data2507/gas/PyDCN/PyDCN_gas_T1_crest.xyz --gfn 2 --spinpol --tblite --uhf 2 --ohess vtight --parallel 40 --molden --ceasefiles --namespace data2507/gas/PyDCN/PyDCN_gas_T1_finalOpt
 * total energy  :   -69.7635531 Eh     change        0.9832249E-08 Eh
 * total energy  :   -69.7636650 Eh     change       -0.1118596E-03 Eh
 * total energy  :   -69.7637869 Eh     change       -0.1219440E-03 Eh
 * total energy  :   -69.7637780 Eh     change        0.8933130E-05 Eh
 * total energy  :   -69.7638388 Eh     change       -0.6074370E-04 Eh
 * total energy  :   -69.7638578 Eh     change       -0.1904714E-04 Eh
 * total energy  :   -69.7638794 Eh     change       -0.2163419E-04 Eh
 * total energy  :   -69.7638967 Eh     change       -0.1724821E-04 Eh
 * total energy  :   -69.7639072 Eh     change       -0.1051566E-04 Eh
 * total energy  :   -69.7639192 Eh     change       -0.1201481E-04 Eh
 * total energy  :   -69.7641072 Eh     change       -0.4273861E-06 Eh
 * total energy  :   -69.7641068 Eh     change        0.3316000E-06 Eh
 * total energy  :   -69.7641076 Eh     change       -0.7179705E-06 Eh
 * total energy  :   -69.7641072 Eh     change        0.3269639E-06 Eh
 * total energy  :   -69.7641079 Eh     change       -0.7139681E-06 Eh
 * total energy  :   -69.7641081 Eh     change       -0.1114821E-06 Eh
 * total energy  :   -69.7641083 Eh     change       -0.2070578E-06 Eh
 * total energy  :   -69.7641085 Eh     change       -0.2051984E-06 Eh
 * total energy  :   -69.7641085 Eh     change       -0.8204273E-07 Eh
   *** GEOMETRY OPTIMIZATION CONVERGED AFTER 52 ITERATIONS ***

 final structure:
================
43
 xtb: 6.7.1 (edcfbbe)
N           -6.60122115642850       -4.12232184421303        0.11784491278169
C           -5.69289723233201       -3.41884552856037        0.09111200888396
C           -4.58223595636494       -2.55801082027715        0.05721504353464
C           -4.75899947893084       -1.18414614016273       -0.16844099738877
C           -3.67722830497299       -0.34115222295648       -0.19647097612799
C           -2.37195985919003       -0.83101427223839       -0.01137090907644
C           -1.19671159725846       -0.00245755107555       -0.05464966679847
C           -1.22177932189060        1.38934724587653       -0.07135901413438
C           -0.03166942474450        2.12428729829735       -0.00749602341849
C           -0.05352863035567        3.58679154822998       -0.01348932523455
C           -1.01114106728143        4.28339258789128       -0.75408928553218
C           -1.02832081529962        5.66439272775575       -0.75820290372097
C           -0.09520178056851        6.37861319181022       -0.02407246841455
C            0.85875428814377        5.69817629589580        0.71533754381529
C            0.88281629886016        4.31730002844908        0.72165907272711
C            1.17963246173652        1.42611800242875        0.06236099023944
C            1.19663098053860        0.03394072790319        0.05904340048978
C            2.39537518549145       -0.75980478551243        0.02272162855699
C            2.27305618117128       -2.15220788385558       -0.17211716897745
C            3.37265917497735       -2.96741137376567       -0.19998258395363
C            4.65492972999494       -2.42286198028586       -0.03151665576390
C            5.78996437308647       -3.25135737663889       -0.05875683003192
N            6.71834045524519       -3.92839322219858       -0.08041435436154
C            4.79294839771003       -1.04032927294553        0.16729183673676
C            3.68730157336756       -0.22886728300331        0.18844165233973
N            0.00877555787877       -0.59057425243945        0.00621769305003
C           -2.21043659050524       -2.21518066944307        0.21015039057286
C           -3.28615271468727       -3.06160086226481        0.24538799461935
H           -5.75747280551402       -0.79918348299228       -0.31504907457572
H           -3.84249294379017        0.71108300057446       -0.37017142763726
H           -2.17376256752935        1.89247500273385       -0.03017811807783
H           -1.72719457781887        3.73845831917203       -1.35152977424601
H           -1.77315039267301        6.18741932468864       -1.33993593245226
H           -0.11133811561696        7.45787836191587       -0.02813682780605
H            1.58753482017729        6.24757189783446        1.29307775845602
H            1.61467876260551        3.79850355992032        1.32319741704798
H            2.11609932956640        1.95722167667383        0.01667801817728
H            1.28101062981193       -2.56265156334523       -0.29396838524776
H            3.26505175576876       -4.03253378719365       -0.34438163562051
H            5.78083337617876       -0.62370534441524        0.29825829571432
H            3.82322684855102        0.83092126135334        0.34026923250050
H           -1.20802106029075       -2.59430525242511        0.34728432889679
H           -3.14868927091639       -4.12021014439771        0.41075043015810

 projected vibrational frequencies (cm⁻¹)
eigval :       -0.00    -0.00     0.00     0.00     0.00     0.00
eigval :       21.54    23.44    25.25    40.64    42.49    50.05
eigval :       60.71    72.33   110.53   112.30   135.39   141.50
eigval :      180.75   192.66   208.48   214.18   225.48   264.39
eigval :      272.22   343.36   363.94   364.03   367.60   374.02
eigval :      378.08   387.48   431.81   482.57   491.82   496.13
eigval :      505.70   520.18   532.04   532.64   535.51   543.26
eigval :      578.82   591.20   598.79   610.89   612.13   659.38
eigval :      661.42   662.47   693.65   743.52   755.18   759.19
eigval :      771.27   783.13   800.37   800.75   821.21   835.08
eigval :      845.19   868.97   869.36   896.29   896.89   897.78
eigval :      904.92   909.45   910.02   926.60   928.02   978.38
eigval :      990.85   994.37  1041.54  1078.13  1085.14  1113.54
eigval :     1125.55  1130.95  1139.85  1176.68  1181.06  1189.82
eigval :     1201.56  1218.97  1228.24  1235.63  1253.58  1263.96
eigval :     1268.95  1282.13  1302.48  1321.21  1322.82  1334.26
eigval :     1343.16  1366.31  1387.05  1415.84  1420.22  1428.43
eigval :     1431.19  1456.25  1458.79  1473.13  1484.17  1485.06
eigval :     1537.29  1563.94  1566.65  1585.92  2325.91  2336.92
eigval :     3071.80  3074.54  3075.75  3075.87  3083.22  3083.48
eigval :     3084.90  3087.97  3088.90  3089.32  3094.84  3095.07
eigval :     3098.04  3104.28  3104.66

   temp. (K)  partition function   enthalpy   heat capacity  entropy
                                   cal/mol     cal/K/mol   cal/K/mol   J/K/mol
 298.15  VIB  0.173E+11            13248.861     81.562     82.328
         ROT  0.128E+08              888.752      2.981     35.504
         INT  0.222E+18            14137.614     84.543    117.832
         TR   0.654E+28             1481.254      4.968     43.495
         TOT                       15618.8677    89.5112   161.3268   674.9914

       T/K    H(0)-H(T)+PV         H(T)/Eh          T*S/Eh         G(T)/Eh
   ------------------------------------------------------------------------
    298.15    0.248903E-01    0.335803E+00    0.766516E-01    0.259151E+00
   ------------------------------------------------------------------------

         :::::::::::::::::::::::::::::::::::::::::::::::::::::
         ::                  THERMODYNAMIC                  ::
         :::::::::::::::::::::::::::::::::::::::::::::::::::::
         :: total free energy         -69.504957116172 Eh   ::
         ::.................................................::
         :: total energy              -69.764108548442 Eh   ::
         :: zero point energy           0.310912762574 Eh   ::
         :: G(RRHO) w/o ZPVE           -0.051761330304 Eh   ::
         :: G(RRHO) contrib.            0.259151432270 Eh   ::
         :::::::::::::::::::::::::::::::::::::::::::::::::::::

           -------------------------------------------------
          | TOTAL ENERGY              -69.764108548442 Eh   |
          | TOTAL ENTHALPY            -69.428305535813 Eh   |
          | TOTAL FREE ENERGY         -69.504957116172 Eh   |
          | GRADIENT NORM               0.000083085633 Eh/α |
           -------------------------------------------------

 * finished run on 2025/09/05 at 02:01:10.134
