   * xtb version 6.7.1 (edcfbbe) compiled by 'albert@albert-system' on 2024-07-22

   ID    Z sym.   atoms
    1    7 N      1, 23, 26
    2    6 C      2-22, 24, 25, 27, 28
    3    1 H      29-43

          program call               : xtb data2507/gas/PyDCN/PyDCN_gas_S0_crest.xyz --gfn 2 --ohess vtight --parallel 40 --molden --ceasefiles --namespace data2507/gas/PyDCN/PyDCN_gas_S0_finalOpt
          :  Hamiltonian                  GFN2-xTB          :
 * total energy  :   -69.8568347 Eh     change       -0.7361933E-09 Eh
 * total energy  :   -69.8568335 Eh     change        0.1234952E-05 Eh
 * total energy  :   -69.8568356 Eh     change       -0.2094033E-05 Eh
 * total energy  :   -69.8568350 Eh     change        0.6461181E-06 Eh
 * total energy  :   -69.8568362 Eh     change       -0.1244834E-05 Eh
 * total energy  :   -69.8568367 Eh     change       -0.5068686E-06 Eh
 * total energy  :   -69.8568367 Eh     change        0.1348364E-07 Eh
 * total energy  :   -69.8568375 Eh     change       -0.7693000E-06 Eh
 * total energy  :   -69.8568380 Eh     change       -0.5708474E-06 Eh
 * total energy  :   -69.8568384 Eh     change       -0.3390187E-06 Eh
 * total energy  :   -69.8568386 Eh     change       -0.1726375E-06 Eh
 * total energy  :   -69.8568386 Eh     change       -0.8394433E-07 Eh
   *** GEOMETRY OPTIMIZATION CONVERGED AFTER 12 ITERATIONS ***

 final structure:
================
43
 xtb: 6.7.1 (edcfbbe)
N           -6.74369387590166       -3.88554427085372       -0.02145265462501
C           -5.80273097883095       -3.23049895083031       -0.01023288539799
C           -4.64417480972592       -2.42125682103623        0.00219777282489
C           -3.44568039772734       -2.90535480670261       -0.52600392945753
C           -2.32258192768722       -2.10717243845181       -0.51213939457241
C           -2.36920880149086       -0.81686588104066        0.01838929144085
C           -1.14736856790970        0.00074193602149        0.00827611737541
C           -1.18425463413255        1.39389481593269       -0.00878267266923
C            0.01324232701488        2.10360534427352        0.00047538431582
C            0.02109415887897        3.57369754837539        0.00205287627514
C           -0.86241946056027        4.28581166545345       -0.80514030962973
C           -0.85135222014581        5.66818145116618       -0.80563632653761
C            0.03412379871257        6.35747805220818        0.00609812119740
C            0.91324836502398        5.65752806818330        0.81560063304697
C            0.91142534814308        4.27509099241548        0.81108122495395
C            1.20242715106286        1.38004770706558        0.00852428400128
C            1.14930787406682       -0.01260459876742       -0.01124897561896
C            2.36133502245384       -0.84472202442789       -0.02208258260014
C            2.29817918626400       -2.13592748885632        0.50461713444025
C            3.41151518794007       -2.94764865737624        0.51838637804955
C            4.61682364497264       -2.47651412167748       -0.00599811587528
C            5.76578826272875       -3.29931082197063        0.00672649539291
N            6.69948108112129       -3.96468355570851        0.01790245748494
C            4.68627646508541       -1.19260620071780       -0.54846787485406
C            3.56623890371711       -0.38724299415136       -0.55454692215183
N           -0.00292994278999       -0.67303406553940       -0.00225924241742
C           -3.56751216706904       -0.34632214922962        0.55435464937059
C           -4.69717258089773       -1.13810280419035        0.54827843303963
H           -3.40968126665973       -3.90176617045353       -0.94121979484744
H           -1.38704188383477       -2.46439415048455       -0.91338727219757
H           -2.12439496374860        1.92197252049816       -0.02515102162437
H           -1.54379002510605        3.75210285940068       -1.45203419560826
H           -1.53579374624523        6.20975438665450       -1.44181981911156
H            0.03903057387664        7.43716686867306        0.00781376472057
H            1.60269153192596        6.19083239111162        1.45336327882278
H            1.58781911348612        3.73316954520925        1.45636837509168
H            2.14863853674457        1.89713788898416        0.02614200120210
H            1.35760277227981       -2.48298112669958        0.90300284762608
H            3.36264550252609       -3.94473717766484        0.93066627529825
H            5.61873824590764       -0.83929042056702       -0.96384349656462
H            3.62673198306806        0.59550130743692       -0.99739192445706
H           -3.61522016798683        0.63585985220506        1.00000845408394
H           -5.62449228435096       -0.77473124887080        0.96648046146311

          :  Hamiltonian                  GFN2-xTB          :
         :: gradient norm              0.000059961576 Eh/a0 ::
         :: HOMO-LUMO gap              2.478810858265 eV    ::
         :: SCC energy               -71.246154309672 Eh    ::
         :: -> dispersion             -0.051766466098 Eh    ::
         :: repulsion energy           1.389315673945 Eh    ::

    * Orbital Energies and Occupations

         #    Occupation            Energy/Eh            Energy/eV
      -------------------------------------------------------------
         1        2.0000           -0.6798400             -18.4994
       ...           ...                  ...                  ...
        53        2.0000           -0.4433589             -12.0644
        54        2.0000           -0.4420961             -12.0300
        55        2.0000           -0.4419320             -12.0256
        56        2.0000           -0.4354263             -11.8486
        57        2.0000           -0.4312307             -11.7344
        58        2.0000           -0.4311396             -11.7319
        59        2.0000           -0.4235897             -11.5265
        60        2.0000           -0.4231396             -11.5142
        61        2.0000           -0.4218374             -11.4788
        62        2.0000           -0.4209550             -11.4548
        63        2.0000           -0.4123007             -11.2193
        64        2.0000           -0.4066479             -11.0655
        65        2.0000           -0.3831735             -10.4267 (HOMO)
        66                         -0.2920788              -7.9479 (LUMO)
        67                         -0.2918892              -7.9427
        68                         -0.2646803              -7.2023
        69                         -0.2476452              -6.7388
        70                         -0.2474892              -6.7345
        71                         -0.2397277              -6.5233
        72                         -0.2376232              -6.4661
        73                         -0.2242050              -6.1009
        74                         -0.2088538              -5.6832
        75                         -0.2088321              -5.6826
        76                         -0.1798762              -4.8947
       ...                                ...                  ...
       127                          1.1684800              31.7960
      -------------------------------------------------------------
                  HL-Gap            0.0910946 Eh            2.4788 eV

     #   Z          covCN         q      C6AA      α(0)
     1   7 N        0.911    -0.231    26.061     7.383
     2   6 C        1.912     0.112    28.335     8.597
     3   6 C        2.974     0.021    27.543     8.609
     4   6 C        2.924    -0.019    28.487     8.753
     5   6 C        2.925    -0.024    28.599     8.770
     6   6 C        2.981     0.014    27.693     8.632
     7   6 C        2.952     0.093    25.931     8.352
     8   6 C        2.922    -0.051    29.256     8.870
     9   6 C        2.981     0.026    27.417     8.589
    10   6 C        2.978     0.007    27.852     8.657
    11   6 C        2.925    -0.031    28.781     8.798
    12   6 C        2.919    -0.028    28.690     8.784
    13   6 C        2.920    -0.027    28.684     8.783
    14   6 C        2.919    -0.028    28.690     8.784
    15   6 C        2.925    -0.031    28.780     8.798
    16   6 C        2.922    -0.051    29.255     8.870
    17   6 C        2.952     0.093    25.931     8.352
    18   6 C        2.981     0.014    27.693     8.632
    19   6 C        2.925    -0.024    28.599     8.770
    20   6 C        2.924    -0.019    28.487     8.753
    21   6 C        2.974     0.021    27.543     8.609
    22   6 C        1.912     0.112    28.335     8.597
    23   7 N        0.911    -0.231    26.061     7.383
    24   6 C        2.925    -0.020    28.516     8.757
    25   6 C        2.921    -0.030    28.752     8.793
    26   7 N        1.856    -0.245    27.244     7.736
    27   6 C        2.921    -0.030    28.753     8.793
    28   6 C        2.925    -0.020    28.516     8.757
    29   1 H        0.926     0.046     2.372     2.409
    30   1 H        0.926     0.061     2.192     2.315
    31   1 H        0.926     0.038     2.479     2.462
    32   1 H        0.926     0.033     2.543     2.494
    33   1 H        0.926     0.035     2.516     2.481
    34   1 H        0.926     0.035     2.510     2.478
    35   1 H        0.926     0.035     2.516     2.481
    36   1 H        0.926     0.033     2.543     2.494
    37   1 H        0.926     0.038     2.479     2.462
    38   1 H        0.926     0.061     2.192     2.315
    39   1 H        0.926     0.046     2.372     2.409
    40   1 H        0.926     0.044     2.399     2.422
    41   1 H        0.926     0.040     2.448     2.447
    42   1 H        0.926     0.040     2.448     2.447
    43   1 H        0.926     0.044     2.399     2.422

molecular dipole:
                 x           y           z       tot (Debye)
 q only:        0.010       1.890       0.001
   full:        0.016       2.861       0.001       7.271

 projected vibrational frequencies (cm⁻¹)
eigval :       -0.00    -0.00    -0.00    -0.00     0.00     0.00
eigval :       28.44    28.78    32.48    39.06    43.83    44.99
eigval :       65.68    83.38   103.42   128.09   138.01   144.49
eigval :      172.67   206.20   224.29   235.11   262.35   273.31
eigval :      275.69   338.81   354.49   363.10   363.48   371.29
eigval :      422.48   422.57   453.30   510.24   523.90   526.78
eigval :      532.88   536.56   537.94   555.38   584.67   600.11
eigval :      605.71   607.01   618.21   620.94   671.29   687.11
eigval :      700.60   717.59   736.12   758.86   771.87   814.82
eigval :      820.67   840.09   842.18   867.65   869.11   869.29
eigval :      874.98   883.71   905.95   916.35   916.70   925.83
eigval :      928.14   930.76   933.92   972.86   998.23  1012.30
eigval :     1014.52  1077.39  1088.15  1111.04  1120.89  1128.79
eigval :     1135.51  1146.75  1182.13  1187.75  1187.86  1201.27
eigval :     1220.72  1225.78  1243.33  1246.50  1264.45  1265.22
eigval :     1280.47  1294.58  1317.36  1319.38  1320.73  1358.45
eigval :     1386.03  1386.52  1401.43  1426.54  1432.13  1479.40
eigval :     1480.49  1484.58  1534.14  1551.79  1554.47  1563.27
eigval :     1583.09  1589.18  1589.68  1599.13  2373.37  2374.30
eigval :     3074.75  3075.06  3082.67  3083.66  3083.73  3087.90
eigval :     3088.96  3089.11  3094.27  3094.35  3096.75  3099.60
eigval :     3100.28  3107.08  3107.74

   temp. (K)  partition function   enthalpy   heat capacity  entropy
                                   cal/mol     cal/K/mol   cal/K/mol   J/K/mol
 298.15  VIB  0.450E+10            12722.379     78.643     78.897
         ROT  0.128E+08              888.752      2.981     35.495
         INT  0.574E+17            13611.132     81.624    114.392
         TR   0.654E+28             1481.254      4.968     43.495
         TOT                       15092.3858    86.5921   157.8874   660.6007

       T/K    H(0)-H(T)+PV         H(T)/Eh          T*S/Eh         G(T)/Eh
   ------------------------------------------------------------------------
    298.15    0.240512E-01    0.341267E+00    0.750174E-01    0.266249E+00
   ------------------------------------------------------------------------

         :::::::::::::::::::::::::::::::::::::::::::::::::::::
         ::                  THERMODYNAMIC                  ::
         :::::::::::::::::::::::::::::::::::::::::::::::::::::
         :: total free energy         -69.590589176778 Eh   ::
         ::.................................................::
         :: total energy              -69.856838635727 Eh   ::
         :: zero point energy           0.317215586694 Eh   ::
         :: G(RRHO) w/o ZPVE           -0.050966127746 Eh   ::
         :: G(RRHO) contrib.            0.266249458948 Eh   ::
         :::::::::::::::::::::::::::::::::::::::::::::::::::::

           -------------------------------------------------
          | TOTAL ENERGY              -69.856838635727 Eh   |
          | TOTAL ENTHALPY            -69.515571801372 Eh   |
          | TOTAL FREE ENERGY         -69.590589176778 Eh   |
          | GRADIENT NORM               0.000059939727 Eh/α |
          | HOMO-LUMO GAP               2.478810983682 eV   |
           -------------------------------------------------

 * finished run on 2025/09/05 at 01:59:49.177
