   * xtb version 6.7.1 (edcfbbe) compiled by 'albert@albert-system' on 2024-07-22

   ID    Z sym.   atoms
    1    7 N      1, 23, 26
    2    6 C      2-22, 24, 25, 27, 28
    3    1 H      29-43

          program call               : xtb data2507/gas/PyDCN/PyDCN_gas_S0_finalOpt.xtbopt.xyz --gfn 2 --spinpol --tblite --uhf 2 --ohess vtight --parallel 40 --molden --ceasefiles --namespace data2507/gas/PyDCN/PyDCN_gas_T1_preOpt
 * total energy  :   -69.7561831 Eh     change        0.2311610E-07 Eh
 * total energy  :   -69.7603130 Eh     change       -0.4129899E-02 Eh
 * total energy  :   -69.7618751 Eh     change       -0.1562134E-02 Eh
 * total energy  :   -69.7620908 Eh     change       -0.2156117E-03 Eh
 * total energy  :   -69.7623179 Eh     change       -0.2271261E-03 Eh
 * total energy  :   -69.7624554 Eh     change       -0.1375267E-03 Eh
 * total energy  :   -69.7625848 Eh     change       -0.1293929E-03 Eh
 * total energy  :   -69.7626976 Eh     change       -0.1128323E-03 Eh
 * total energy  :   -69.7627893 Eh     change       -0.9169030E-04 Eh
 * total energy  :   -69.7628796 Eh     change       -0.9028045E-04 Eh
 * total energy  :   -69.7641074 Eh     change       -0.5662761E-06 Eh
 * total energy  :   -69.7641075 Eh     change       -0.1110982E-06 Eh
 * total energy  :   -69.7641078 Eh     change       -0.2832473E-06 Eh
 * total energy  :   -69.7641082 Eh     change       -0.3476543E-06 Eh
 * total energy  :   -69.7641084 Eh     change       -0.2133895E-06 Eh
 * total energy  :   -69.7641086 Eh     change       -0.2238396E-06 Eh
 * total energy  :   -69.7641088 Eh     change       -0.2416843E-06 Eh
 * total energy  :   -69.7641090 Eh     change       -0.2026153E-06 Eh
 * total energy  :   -69.7641091 Eh     change       -0.9689724E-07 Eh
   *** GEOMETRY OPTIMIZATION CONVERGED AFTER 77 ITERATIONS ***

 final structure:
================
43
 xtb: 6.7.1 (edcfbbe)
N           -6.68086989009932       -3.98700857295213        0.23233042489418
C           -5.75927934798058       -3.30180983103479        0.18898401988024
C           -4.63199272548341       -2.46398006651941        0.13507612164594
C           -3.34292524741836       -2.99548737142218        0.29255769055367
C           -2.25077815052666       -2.17147216539032        0.23860664576875
C           -2.38801400603791       -0.78290650027592        0.02800283658358
C           -1.19697162518708        0.02120319083664       -0.03508451314947
C           -1.19328523508984        1.41334580193337       -0.04389390435723
C            0.01274282246727        2.12311376875937        0.00125404764098
C            0.02097901993210        3.58571879771762        0.00284274728792
C           -0.93678274430193        4.30550244416570       -0.71512896359306
C           -0.92587631848056        5.68654845857370       -0.71238223795030
C            0.03613345280072        6.37789647433955        0.00619093245549
C            0.99064746348253        5.67440799678444        0.72296971458405
C            0.98659118447942        4.29331160436002        0.72239490406336
C            1.21042685140110        1.39946922950046        0.04493825066323
C            1.19819203346876        0.00733725679015        0.03319208930045
C            2.37972599168435       -0.81041211999470       -0.03118912275063
C            2.22608413400616       -2.19739997469970       -0.24124312827509
C            3.30842769588106       -3.03415588449523       -0.29604624121279
C            4.60382677957602       -2.51772644542842       -0.14018108577688
C            5.72119590750527       -3.36866533636464       -0.19475574102608
N            6.63481844137337       -4.06442476875676       -0.23891453216557
C            4.77292909019274       -1.14096953529641        0.07380830800928
C            3.68440574661336       -0.30770544895492        0.12161543622187
N           -0.00293150242319       -0.59222065774708       -0.00158843025994
C           -3.68647656206753       -0.26502286562199       -0.12668152196602
C           -4.78474684317380       -1.08548642742345       -0.07982984863690
H           -3.22415868061012       -4.05765889156649        0.44934883335541
H           -1.25373050070721       -2.57204266310887        0.35200569941010
H           -2.13363985394455        1.93579462653266        0.01840579681316
H           -1.67552820880860        3.77832891779726       -1.30075564442402
H           -1.67136343767513        6.22753394070044       -1.27658643509232
H            0.04193181948082        7.45727184625551        0.00757390426680
H            1.74198128224201        6.20593134533238        1.28841245394818
H            1.71965410997932        3.75677376552648        1.30665619894706
H            2.15676060692950        1.91120314483691       -0.01583207354375
H            1.22426130365947       -2.58627176894633       -0.35335860751517
H            3.17707305670020       -4.09493175429467       -0.45226735222590
H            5.77088499822804       -0.74606883801575        0.19536996657639
H            3.84396432139010        0.74702519707746        0.28521503277965
H           -3.83341807763983        0.79139824998487       -0.29119550064315
H           -5.77786522893189       -0.67902650951344       -0.20290146448087

 projected vibrational frequencies (cm⁻¹)
eigval :       -0.00    -0.00     0.00     0.00     0.00     0.00
eigval :       23.70    25.86    28.06    40.85    42.67    50.14
eigval :       61.09    71.76   110.66   112.49   135.44   141.53
eigval :      180.88   192.70   208.50   214.28   225.57   264.47
eigval :      272.57   343.24   363.97   363.99   367.53   373.99
eigval :      377.94   387.68   433.31   482.64   492.19   496.01
eigval :      505.73   520.28   532.54   532.70   535.58   543.36
eigval :      578.86   591.02   598.83   610.96   611.95   659.42
eigval :      661.66   662.68   693.82   746.90   754.39   759.57
eigval :      771.79   783.37   800.71   800.81   821.80   834.78
eigval :      841.16   866.06   869.32   896.14   897.08   897.87
eigval :      905.07   909.58   910.06   926.59   928.17   977.79
eigval :      990.54   994.59  1042.94  1078.53  1085.16  1113.55
eigval :     1125.79  1130.53  1139.98  1176.73  1181.09  1189.80
eigval :     1201.71  1218.80  1228.88  1235.25  1253.73  1263.75
eigval :     1269.26  1282.19  1302.99  1321.20  1322.85  1333.62
eigval :     1343.21  1366.25  1386.99  1415.97  1420.22  1428.14
eigval :     1431.28  1456.38  1458.60  1473.20  1484.51  1485.05
eigval :     1537.28  1564.03  1566.58  1585.86  2325.73  2336.80
eigval :     3071.91  3074.58  3075.77  3075.89  3083.35  3083.57
eigval :     3084.85  3087.98  3088.98  3089.34  3094.82  3095.22
eigval :     3097.92  3104.36  3104.75

   temp. (K)  partition function   enthalpy   heat capacity  entropy
                                   cal/mol     cal/K/mol   cal/K/mol   J/K/mol
 298.15  VIB  0.129E+11            13235.728     81.630     82.124
         ROT  0.128E+08              888.752      2.981     35.504
         INT  0.165E+18            14124.480     84.610    117.628
         TR   0.654E+28             1481.254      4.968     43.495
         TOT                       15605.7343    89.5785   161.1229   674.1381

       T/K    H(0)-H(T)+PV         H(T)/Eh          T*S/Eh         G(T)/Eh
   ------------------------------------------------------------------------
    298.15    0.248693E-01    0.335809E+00    0.765547E-01    0.259255E+00
   ------------------------------------------------------------------------

         :::::::::::::::::::::::::::::::::::::::::::::::::::::
         ::                  THERMODYNAMIC                  ::
         :::::::::::::::::::::::::::::::::::::::::::::::::::::
         :: total free energy         -69.504854443401 Eh   ::
         ::.................................................::
         :: total energy              -69.764109142920 Eh   ::
         :: zero point energy           0.310940054779 Eh   ::
         :: G(RRHO) w/o ZPVE           -0.051685355260 Eh   ::
         :: G(RRHO) contrib.            0.259254699519 Eh   ::
         :::::::::::::::::::::::::::::::::::::::::::::::::::::

           -------------------------------------------------
          | TOTAL ENERGY              -69.764109142920 Eh   |
          | TOTAL ENTHALPY            -69.428299767492 Eh   |
          | TOTAL FREE ENERGY         -69.504854443401 Eh   |
          | GRADIENT NORM               0.000067922668 Eh/α |
           -------------------------------------------------

 * finished run on 2025/09/05 at 01:59:55.373
