   * xtb version 6.7.1 (edcfbbe) compiled by 'albert@albert-system' on 2024-07-22

   ID    Z sym.   atoms
    1    8 O      1, 21
    2   15 P      2
    3    6 C      3-20, 22-34, 36-65
    4    7 N      35
    5    1 H      66-107

          program call               : xtb data2507/toluene/9CzFDPESPO/9CzFDPESPO.xyz --gfn 2 --gbsa toluene --ohess vtight --parallel 40 --molden --ceasefiles --namespace data2507/toluene/9CzFDPESPO/9CzFDPESPO_toluene_S0_preOpt
      * Solvation model:               GBSA
        Solvent                        toluene
        Solvent mass                       9.2140E+01 g/mol
          :  Hamiltonian                  GFN2-xTB          :
 * total energy  :  -165.7417007 Eh     change       -0.2845468E-08 Eh
 * total energy  :  -165.7589175 Eh     change       -0.1721678E-01 Eh
 * total energy  :  -165.7640971 Eh     change       -0.5179563E-02 Eh
 * total energy  :  -165.7660189 Eh     change       -0.1921826E-02 Eh
 * total energy  :  -165.7677334 Eh     change       -0.1714525E-02 Eh
 * total energy  :  -165.7687442 Eh     change       -0.1010745E-02 Eh
 * total energy  :  -165.7693476 Eh     change       -0.6034495E-03 Eh
 * total energy  :  -165.7697506 Eh     change       -0.4029939E-03 Eh
 * total energy  :  -165.7700005 Eh     change       -0.2499114E-03 Eh
 * total energy  :  -165.7701706 Eh     change       -0.1700336E-03 Eh
 * total energy  :  -165.7713214 Eh     change       -0.3271610E-06 Eh
 * total energy  :  -165.7713217 Eh     change       -0.3503305E-06 Eh
 * total energy  :  -165.7713221 Eh     change       -0.3393449E-06 Eh
 * total energy  :  -165.7713224 Eh     change       -0.3326201E-06 Eh
 * total energy  :  -165.7713227 Eh     change       -0.3442024E-06 Eh
 * total energy  :  -165.7713231 Eh     change       -0.3783818E-06 Eh
 * total energy  :  -165.7713235 Eh     change       -0.3728022E-06 Eh
 * total energy  :  -165.7713238 Eh     change       -0.3498690E-06 Eh
 * total energy  :  -165.7713238 Eh     change       -0.3358451E-08 Eh
   *** GEOMETRY OPTIMIZATION CONVERGED AFTER 94 ITERATIONS ***

 final structure:
================
107
 xtb: 6.7.1 (edcfbbe)
O           -6.69079727666313       -2.26979894400230       -0.83391129689536
P           -7.80993563666764       -1.41493605638126       -0.39283117305492
C           -7.82870064983128       -1.05582550900270        1.39020150637110
C           -7.20773723871757       -1.97220793476811        2.22636817704538
C           -7.20405248164293       -1.76951888222067        3.59519059952758
C           -7.82387415042263       -0.65002868585338        4.12719695873210
C           -8.44049003215052        0.26836361250650        3.29154949371141
C           -8.44567600894327        0.06811043613969        1.92264992496373
C           -9.43221809036254       -2.17295775684518       -0.73033442164449
C          -10.61833680821083       -1.65508719159699       -0.22417848771320
C          -11.81964694144469       -2.27163085572128       -0.52327531352896
C          -11.84158076840443       -3.40291118035648       -1.32520342287950
C          -10.65952577709144       -3.92364761648478       -1.82612358273815
C           -9.45603629874067       -3.30907911838372       -1.52679304435929
C           -7.85633532469459        0.18774186856073       -1.26085806300896
C           -8.80372116848556        0.59447316770559       -2.18361333740665
C           -8.63821565743105        1.79949635007941       -2.84776497475575
C           -7.52902590639862        2.58887444241649       -2.58857753263249
C           -6.57361808535071        2.19272325531898       -1.66730143230950
C           -6.73947373514170        0.98383378677951       -1.00492451990687
O           -5.92775697025260        0.51169526488528       -0.01685017283003
C           -4.57625438984392        0.77456896584300       -0.03667829678002
C           -3.83428038475738        0.79297192483719       -1.21175162476667
C           -2.47115809222866        1.00810520662296       -1.15861803362299
C           -1.82073000377382        1.20919200907350        0.05710602326300
C           -0.37092410403967        1.45029277278761        0.10364943854327
C            0.50124134967727        0.72943892361536       -0.70923496323626
C            1.86257517886648        0.95615156759260       -0.66244791886881
C            2.39680451147311        1.91033650213100        0.19711173449970
C            3.88455904777154        2.20240533867763        0.18467784215617
C            4.72545723606821        0.95174764865408        0.02781397852332
C            4.36736592603091       -0.21889464035892        0.68874740778194
C            5.15778904004320       -1.34858234746082        0.60873754730106
C            6.33877351012206       -1.32397413155516       -0.12674465080926
N            7.14991370915964       -2.46780517454516       -0.20417520224713
C            7.61820126445868       -3.05046991371903       -1.36405224094098
C            7.37821494400098       -2.70369433963949       -2.68653506601260
C            7.95399489350143       -3.48164606099875       -3.67268589284870
C            8.74581336939964       -4.58519912841131       -3.35973562926669
C            8.97182002997207       -4.94717059636093       -2.04656147817586
C            8.40287077281388       -4.18113154642059       -1.03681062558088
C            8.40649386074772       -4.27302149755378        0.39655836040792
C            9.00225135225905       -5.14588252661128        1.29842579457678
C            8.81193624955635       -4.93382636085385        2.64944966632357
C            8.05117672467273       -3.85886813163321        3.10598543986614
C            7.44908878427429       -2.97694174720751        2.22914016594919
C            7.61797173121809       -3.19797934922471        0.86919900509660
C            6.70938808693234       -0.15324481859312       -0.77966001831523
C            5.90848552701135        0.97048236018536       -0.70055028184398
C            4.37015429927470        2.92945805350261        1.42604805174067
C            4.41569194497479        2.47625431820708        2.72737483951033
C            4.91906743003132        3.31892265186888        3.70987902099144
C            5.37207590852413        4.59052153149528        3.39166447824619
C            5.33648901526334        5.04864578293462        2.08426349057797
C            4.83550199724631        4.21150485553158        1.10037349470182
C            4.67975510102776        4.41138621371851       -0.33177168703474
C            4.97401868706834        5.50274952218436       -1.13302510915430
C            4.71744481151076        5.41756810294115       -2.49220263416090
C            4.17369142521363        4.26544108742221       -3.04026603267767
C            3.87645430240374        3.16911378682450       -2.24128044956617
C            4.13684873995809        3.24502355214899       -0.88948113261001
C            1.52851319106436        2.64146284396016        0.99786160666359
C            0.16682662900017        2.40924472134792        0.95840855705971
C           -2.57720549621949        1.17353484432798        1.22722183595879
C           -3.93983021134845        0.95632840117869        1.18618527653008
H           -6.72051517868482       -2.83071909228810        1.78420442286031
H           -6.71735796061475       -2.48191063501901        4.24542766861084
H           -7.82117885125442       -0.48872115205105        5.19531125141267
H           -8.91550858905080        1.14482055381017        3.70834340065164
H           -8.90904311152033        0.79062701272594        1.26491273333590
H          -10.59611551654716       -0.77494528369768        0.40136215908592
H          -12.74231360117445       -1.86999807641846       -0.13037733022364
H          -12.78224258962586       -3.88073008791699       -1.55671610161992
H          -10.67462848986197       -4.80672989105734       -2.44825015967202
H           -8.51899438120748       -3.69747458793315       -1.90130814509982
H           -9.66161444839076       -0.03216292359480       -2.38085881882866
H           -9.37334416217969        2.12054918492061       -3.56979882975462
H           -7.40415227089070        3.52850721981553       -3.10555117626821
H           -5.71413378053456        2.81278585191288       -1.45854286096444
H           -4.32718351170456        0.62680457999582       -2.15889561620890
H           -1.90625207248171        1.03488756021536       -2.07851165360374
H            0.10999818996097       -0.03119259091352       -1.36913499369912
H            2.51950324599433        0.37519844833354       -1.29362514047986
H            3.45023421261157       -0.25432882661318        1.25810267781606
H            4.85902989215676       -2.25820339375277        1.10839585005211
H            6.75496175321537       -1.85889729163276       -2.93871567288626
H            7.78403660077489       -3.23125093866870       -4.70993969402772
H            9.18025206385363       -5.16725620233152       -4.15946622635191
H            9.57369207176816       -5.81072621780468       -1.80496502123264
H            9.60426606230917       -5.97016331468549        0.94569268520078
H            9.26442177200219       -5.60283015729740        3.36692416367208
H            7.93217469351965       -3.71042419000576        4.16960293360755
H            6.87447638646305       -2.13801526013366        2.59205376462865
H            7.63362301424488       -0.12287000196088       -1.33747307403981
H            6.21344546058399        1.87407936952282       -1.20730958459537
H            4.06351925960417        1.48803374821116        2.98323070259023
H            4.95767673794918        2.97923034866114        4.73478942014922
H            5.75939407344066        5.22939285129477        4.17233329913194
H            5.69322427165698        6.03797836533972        1.83865203387350
H            5.39430600902597        6.40237943821462       -0.70834513885303
H            4.94121176361780        6.25859763306993       -3.13274209938212
H            3.97862414310668        4.21949105523432       -4.10195775907359
H            3.45253107403293        2.27578557469291       -2.67513600373979
H            1.91921491248930        3.40072667265801        1.65956674137373
H           -0.49071909254383        2.99659341025721        1.58241375874730
H           -2.09019720551949        1.30168552582222        2.18232716681589
H           -4.52590174379543        0.91919407988976        2.09174429444354

          :  Hamiltonian                  GFN2-xTB          :
         :: gradient norm              0.000039909358 Eh/a0 ::
         :: HOMO-LUMO gap              2.886547618386 eV    ::
         :: SCC energy              -168.834576189867 Eh    ::
         :: -> dispersion             -0.156830751499 Eh    ::
         :: -> Gsolv                  -0.073508908405 Eh    ::
         :: repulsion energy           3.063252350400 Eh    ::

    * Orbital Energies and Occupations

         #    Occupation            Energy/Eh            Energy/eV
      -------------------------------------------------------------
         1        2.0000           -0.7331023             -19.9487
       ...           ...                  ...                  ...
       142        2.0000           -0.4109389             -11.1822
       143        2.0000           -0.4083729             -11.1124
       144        2.0000           -0.4054287             -11.0323
       145        2.0000           -0.4042912             -11.0013
       146        2.0000           -0.4036673             -10.9843
       147        2.0000           -0.4014609             -10.9243
       148        2.0000           -0.3992563             -10.8643
       149        2.0000           -0.3977284             -10.8227
       150        2.0000           -0.3934831             -10.7072
       151        2.0000           -0.3815190             -10.3817
       152        2.0000           -0.3770267             -10.2594
       153        2.0000           -0.3765165             -10.2455
       154        2.0000           -0.3602045              -9.8017 (HOMO)
       155                         -0.2541258              -6.9151 (LUMO)
       156                         -0.2529117              -6.8821
       157                         -0.2511584              -6.8344
       158                         -0.2473715              -6.7313
       159                         -0.2444828              -6.6527
       160                         -0.2381695              -6.4809
       161                         -0.2344633              -6.3801
       162                         -0.2338030              -6.3621
       163                         -0.2333227              -6.3490
       164                         -0.2322548              -6.3200
       165                         -0.2305996              -6.2749
       ...                                ...                  ...
       307                          1.2025312              32.7225
      -------------------------------------------------------------
                  HL-Gap            0.1060787 Eh            2.8865 eV

     #   Z          covCN         q      C6AA      α(0)
     1   8 O        0.808    -0.400    21.702     6.245
     2  15 P        4.123     0.061   157.521    22.545
     3   6 C        2.921     0.020    27.573     8.611
     4   6 C        3.027    -0.019    28.451     8.749
     5   6 C        2.919    -0.027    28.669     8.780
     6   6 C        2.920    -0.025    28.633     8.775
     7   6 C        2.920    -0.027    28.678     8.782
     8   6 C        2.977    -0.023    28.576     8.769
     9   6 C        2.920     0.007    27.869     8.657
    10   6 C        2.976    -0.027    28.664     8.782
    11   6 C        2.919    -0.027    28.682     8.782
    12   6 C        2.920    -0.024    28.615     8.772
    13   6 C        2.918    -0.027    28.681     8.782
    14   6 C        3.020    -0.020    28.482     8.754
    15   6 C        2.921    -0.011    28.294     8.723
    16   6 C        2.956    -0.025    28.632     8.777
    17   6 C        2.919    -0.037    28.923     8.819
    18   6 C        2.922    -0.026    28.650     8.778
    19   6 C        2.915    -0.058    29.451     8.899
    20   6 C        3.019     0.150    24.732     8.158
    21   8 O        1.733    -0.247    18.092     5.743
    22   6 C        2.869     0.139    24.967     8.191
    23   6 C        2.915    -0.051    29.265     8.871
    24   6 C        2.926    -0.034    28.839     8.807
    25   6 C        2.975     0.007    27.869     8.659
    26   6 C        2.976     0.008    27.826     8.653
    27   6 C        2.924    -0.035    28.875     8.812
    28   6 C        2.922    -0.035    28.861     8.810
    29   6 C        2.979     0.016    27.653     8.626
    30   6 C        3.946     0.008    20.372     6.414
    31   6 C        2.979     0.016    27.653     8.626
    32   6 C        2.924    -0.033    28.816     8.803
    33   6 C        2.921    -0.043    29.074     8.842
    34   6 C        2.912     0.061    26.627     8.462
    35   7 N        2.802    -0.047    22.148     6.990
    36   6 C        3.076     0.048    26.852     8.496
    37   6 C        2.909    -0.052    29.291     8.875
    38   6 C        2.924    -0.035    28.880     8.813
    39   6 C        2.919    -0.043    29.074     8.842
    40   6 C        2.912    -0.035    28.876     8.812
    41   6 C        3.067    -0.019    28.417     8.741
    42   6 C        3.067    -0.019    28.417     8.741
    43   6 C        2.912    -0.035    28.876     8.812
    44   6 C        2.919    -0.043    29.073     8.842
    45   6 C        2.924    -0.035    28.879     8.813
    46   6 C        2.909    -0.052    29.291     8.875
    47   6 C        3.077     0.048    26.852     8.496
    48   6 C        2.921    -0.043    29.068     8.841
    49   6 C        2.923    -0.035    28.860     8.810
    50   6 C        3.056     0.004    27.887     8.660
    51   6 C        2.914    -0.034    28.858     8.809
    52   6 C        2.922    -0.033    28.825     8.804
    53   6 C        2.921    -0.033    28.833     8.805
    54   6 C        2.914    -0.035    28.867     8.810
    55   6 C        3.034     0.000    27.985     8.677
    56   6 C        3.034     0.000    27.988     8.677
    57   6 C        2.914    -0.035    28.867     8.810
    58   6 C        2.921    -0.033    28.833     8.806
    59   6 C        2.922    -0.033    28.825     8.804
    60   6 C        2.914    -0.034    28.857     8.809
    61   6 C        3.057     0.004    27.890     8.661
    62   6 C        2.922    -0.036    28.897     8.815
    63   6 C        2.924    -0.035    28.878     8.813
    64   6 C        2.926    -0.033    28.824     8.804
    65   6 C        2.916    -0.049    29.227     8.865
    66   1 H        0.925     0.044     2.401     2.423
    67   1 H        0.926     0.043     2.411     2.428
    68   1 H        0.926     0.046     2.373     2.409
    69   1 H        0.926     0.045     2.386     2.416
    70   1 H        0.925     0.039     2.460     2.453
    71   1 H        0.926     0.045     2.383     2.414
    72   1 H        0.926     0.045     2.381     2.413
    73   1 H        0.926     0.046     2.376     2.411
    74   1 H        0.926     0.042     2.417     2.431
    75   1 H        0.925     0.046     2.365     2.405
    76   1 H        0.926     0.047     2.354     2.399
    77   1 H        0.926     0.052     2.292     2.367
    78   1 H        0.926     0.055     2.263     2.352
    79   1 H        0.926     0.048     2.343     2.394
    80   1 H        0.926     0.038     2.481     2.463
    81   1 H        0.926     0.046     2.367     2.406
    82   1 H        0.926     0.035     2.517     2.481
    83   1 H        0.926     0.034     2.533     2.489
    84   1 H        0.926     0.041     2.435     2.440
    85   1 H        0.926     0.042     2.422     2.434
    86   1 H        0.926     0.029     2.599     2.521
    87   1 H        0.926     0.029     2.597     2.520
    88   1 H        0.926     0.027     2.630     2.536
    89   1 H        0.926     0.029     2.597     2.520
    90   1 H        0.926     0.029     2.597     2.520
    91   1 H        0.926     0.027     2.630     2.536
    92   1 H        0.926     0.029     2.596     2.519
    93   1 H        0.926     0.029     2.596     2.520
    94   1 H        0.926     0.041     2.434     2.440
    95   1 H        0.926     0.038     2.470     2.458
    96   1 H        0.926     0.032     2.565     2.504
    97   1 H        0.926     0.032     2.555     2.500
    98   1 H        0.926     0.032     2.558     2.501
    99   1 H        0.926     0.033     2.543     2.494
   100   1 H        0.926     0.033     2.543     2.494
   101   1 H        0.926     0.032     2.559     2.502
   102   1 H        0.926     0.032     2.556     2.500
   103   1 H        0.926     0.032     2.563     2.504
   104   1 H        0.926     0.033     2.550     2.497
   105   1 H        0.926     0.036     2.509     2.477
   106   1 H        0.926     0.048     2.342     2.393
   107   1 H        0.926     0.045     2.382     2.414

molecular dipole:
                 x           y           z       tot (Debye)
 q only:       -1.272       1.979       0.481
   full:       -1.434       2.073       0.456       6.511

 projected vibrational frequencies (cm⁻¹)
eigval :       -0.00    -0.00    -0.00     0.00     0.00     0.00
eigval :        6.26     8.65    10.49    12.33    16.45    21.95
eigval :       28.59    30.74    33.31    37.90    39.19    45.02
eigval :       47.13    50.46    54.71    55.78    59.80    70.04
eigval :       78.58    85.90    90.75    92.06    97.79   105.11
eigval :      124.82   136.89   140.65   143.88   159.09   162.33
eigval :      172.75   179.00   192.26   194.65   206.17   225.46
eigval :      229.17   230.24   236.03   242.99   261.11   271.88
eigval :      278.64   284.85   289.43   310.81   319.35   344.90
eigval :      346.79   358.15   363.25   367.07   373.84   375.72
eigval :      381.71   383.85   386.72   391.02   392.48   407.03
eigval :      414.83   415.91   418.98   423.81   429.41   435.89
eigval :      446.72   449.28   457.45   478.51   486.11   496.92
eigval :      503.68   506.22   509.81   518.80   525.78   533.61
eigval :      536.41   540.23   542.35   564.00   580.91   585.24
eigval :      586.32   587.97   593.18   594.55   604.11   611.54
eigval :      613.76   619.73   625.37   655.06   657.11   660.34
eigval :      664.79   672.79   675.45   677.17   683.53   691.16
eigval :      701.07   706.62   712.42   716.58   720.84   729.45
eigval :      738.25   741.29   746.67   754.22   757.14   767.84
eigval :      768.36   777.77   779.53   784.57   797.13   812.52
eigval :      819.92   834.18   865.82   869.53   869.87   871.31
eigval :      873.20   877.98   879.41   879.61   879.89   881.43
eigval :      881.90   897.28   899.38   900.75   902.70   903.54
eigval :      903.86   904.42   908.26   909.82   911.96   913.67
eigval :      918.79   920.45   921.84   924.41   925.37   926.59
eigval :      927.10   927.40   927.79   929.02   929.97   933.70
eigval :      934.40   935.02   936.57   954.94   972.29   974.70
eigval :      990.51  1006.93  1011.14  1017.11  1025.39  1050.40
eigval :     1068.34  1071.59  1074.60  1075.68  1077.82  1079.97
eigval :     1080.77  1082.05  1106.82  1110.24  1115.37  1117.31
eigval :     1123.94  1125.88  1130.44  1139.54  1142.42  1147.99
eigval :     1150.90  1155.55  1173.26  1173.45  1174.40  1175.68
eigval :     1177.09  1177.25  1178.33  1180.87  1181.41  1183.78
eigval :     1187.91  1192.08  1201.96  1203.27  1206.18  1211.41
eigval :     1219.19  1226.24  1231.00  1235.34  1235.96  1239.91
eigval :     1245.17  1249.08  1260.70  1265.58  1267.37  1270.03
eigval :     1272.79  1276.06  1284.13  1299.98  1302.78  1305.41
eigval :     1312.59  1315.56  1319.39  1319.86  1320.62  1323.99
eigval :     1325.06  1355.61  1360.78  1364.03  1365.71  1391.89
eigval :     1405.48  1413.66  1421.70  1423.55  1426.87  1427.65
eigval :     1429.68  1430.00  1431.11  1437.81  1452.44  1453.41
eigval :     1460.27  1467.42  1470.63  1474.88  1487.28  1490.58
eigval :     1502.08  1561.11  1566.59  1571.49  1574.15  1577.25
eigval :     1581.57  1582.69  1583.70  1584.49  1585.35  1586.50
eigval :     1587.35  1592.50  1593.75  1596.70  1597.15  1600.42
eigval :     1602.54  1604.33  1613.26  3061.14  3064.85  3069.04
eigval :     3069.15  3069.41  3069.66  3070.10  3072.17  3073.96
eigval :     3074.46  3074.98  3075.61  3075.67  3075.85  3076.10
eigval :     3076.48  3078.16  3078.24  3079.61  3079.80  3082.09
eigval :     3082.10  3083.03  3083.34  3083.79  3084.14  3084.57
eigval :     3084.70  3085.77  3087.92  3089.14  3089.56  3089.79
eigval :     3090.25  3090.72  3090.90  3091.66  3091.84  3092.15
eigval :     3094.00  3098.39  3099.98

   temp. (K)  partition function   enthalpy   heat capacity  entropy
                                   cal/mol     cal/K/mol   cal/K/mol   J/K/mol
 298.15  VIB  0.340E+27            31679.813    195.311    200.555
         ROT  0.335E+09              888.752      2.981     41.992
         INT  0.114E+36            32568.566    198.292    242.546
         TR   0.241E+29             1481.254      4.968     46.083
         TOT                       34049.8196   203.2602   288.6294  1207.6253

       T/K    H(0)-H(T)+PV         H(T)/Eh          T*S/Eh         G(T)/Eh
   ------------------------------------------------------------------------
    298.15    0.542618E-01    0.875709E+00    0.137137E+00    0.738572E+00
   ------------------------------------------------------------------------

         :::::::::::::::::::::::::::::::::::::::::::::::::::::
         ::                  THERMODYNAMIC                  ::
         :::::::::::::::::::::::::::::::::::::::::::::::::::::
         :: total free energy        -165.032751970335 Eh   ::
         ::.................................................::
         :: total energy             -165.771323837233 Eh   ::
         :: zero point energy           0.821447156470 Eh   ::
         :: G(RRHO) w/o ZPVE           -0.082875289573 Eh   ::
         :: G(RRHO) contrib.            0.738571866898 Eh   ::
         :::::::::::::::::::::::::::::::::::::::::::::::::::::

           -------------------------------------------------
          | TOTAL ENERGY             -165.771323837233 Eh   |
          | TOTAL ENTHALPY           -164.895614839251 Eh   |
          | TOTAL FREE ENERGY        -165.032751970335 Eh   |
          | GRADIENT NORM               0.000039909307 Eh/α |
          | HOMO-LUMO GAP               2.886547625865 eV   |
           -------------------------------------------------

 * finished run on 2025/09/07 at 00:32:36.432
