   * xtb version 6.7.1 (edcfbbe) compiled by 'albert@albert-system' on 2024-07-22

   ID    Z sym.   atoms
    1    8 O      1, 21
    2   15 P      2
    3    6 C      3-20, 22-34, 36-65
    4    7 N      35
    5    1 H      66-107

          program call               : xtb data2507/toluene/9CzFDPESPO/9CzFDPESPO_toluene_S0_finalOpt.xtbopt.xyz --gfn 2 --uhf 2 --gbsa toluene --ohess vtight --parallel 40 --molden --ceasefiles --namespace data2507/toluene/9CzFDPESPO/9CzFDPESPO_toluene_T1_preOpt
      * Solvation model:               GBSA
        Solvent                        toluene
        Solvent mass                       9.2140E+01 g/mol
          :  Hamiltonian                  GFN2-xTB          :
 * total energy  :  -165.6549923 Eh     change       -0.1595575E-06 Eh
 * total energy  :  -165.6569036 Eh     change       -0.1911270E-02 Eh
 * total energy  :  -165.6575450 Eh     change       -0.6414343E-03 Eh
 * total energy  :  -165.6578329 Eh     change       -0.2878673E-03 Eh
 * total energy  :  -165.6588636 Eh     change       -0.1030754E-02 Eh
 * total energy  :  -165.6589240 Eh     change       -0.6035031E-04 Eh
 * total energy  :  -165.6601132 Eh     change       -0.1189234E-02 Eh
 * total energy  :  -165.6607716 Eh     change       -0.6583884E-03 Eh
 * total energy  :  -165.6610888 Eh     change       -0.3172245E-03 Eh
 * total energy  :  -165.6612550 Eh     change       -0.1662014E-03 Eh
 * total energy  :  -165.6627715 Eh     change       -0.8865501E-06 Eh
 * total energy  :  -165.6627724 Eh     change       -0.9005745E-06 Eh
 * total energy  :  -165.6627734 Eh     change       -0.1025574E-05 Eh
 * total energy  :  -165.6627747 Eh     change       -0.1263618E-05 Eh
 * total energy  :  -165.6627761 Eh     change       -0.1455354E-05 Eh
 * total energy  :  -165.6627776 Eh     change       -0.1460210E-05 Eh
 * total energy  :  -165.6627789 Eh     change       -0.1380938E-05 Eh
 * total energy  :  -165.6627802 Eh     change       -0.1243797E-05 Eh
 * total energy  :  -165.6627802 Eh     change       -0.9771412E-08 Eh
   *** GEOMETRY OPTIMIZATION CONVERGED AFTER 185 ITERATIONS ***

 final structure:
================
107
 xtb: 6.7.1 (edcfbbe)
O           -9.51671758978513        0.62949812612868       -1.94323442289848
P           -8.45166354143478       -0.12535782878694       -1.25037707686102
C           -6.81652990285556        0.13545972927849       -2.01808214142305
C           -6.11475687924337       -0.86006967771691       -2.67903890650635
C           -4.88555697337398       -0.57027998236570       -3.24679172490657
C           -4.36184102325231        0.70902101200864       -3.16016503544948
C           -5.07309871979803        1.70991681532008       -2.51700402272179
C           -6.30090174856351        1.42355269764784       -1.95020244568413
C           -8.77539503167359       -1.91378114478732       -1.21066037848110
C           -7.95536376710149       -2.81546080656303       -0.53896754801901
C           -8.28511315063769       -4.15767064491157       -0.51884222404815
C           -9.43105698000412       -4.60594598628171       -1.15974927708668
C          -10.25272347598177       -3.70789249420803       -1.82313545554888
C           -9.92646864536444       -2.36401600280542       -1.84602376331095
C           -8.27236039290018        0.40015354196931        0.47952552010557
C           -9.35792114400125        1.00007981828668        1.10108274511409
C           -9.27517649397812        1.42237531918853        2.41405607695267
C           -8.09275762539442        1.22947633845086        3.12497695670576
C           -7.00076496104171        0.63644087138613        2.52373150860041
C           -7.07831437062223        0.21713757284803        1.19731719754227
O           -6.06648683247885       -0.42994163946458        0.55303273623880
C           -4.76983258674956       -0.04439777818618        0.66942566607748
C           -4.34526273344923        1.22600764023464        1.11792270665660
C           -3.02307170366319        1.54096612099962        1.14753861487835
C           -2.00238874880693        0.62433763953953        0.71059249472056
C           -0.63800770717789        0.96213609389737        0.72612381126194
C            0.34094193216931        0.23283347999327       -0.03081290305217
C            1.65664290432530        0.58364084034552       -0.03354808086629
C            2.13657074876039        1.65791530370221        0.74430391066909
C            3.57639484233054        2.09007135837971        0.66279566893088
C            4.53648772392874        0.94200085809650        0.45183879493910
C            4.35354297781634       -0.25547462227208        1.13723528328382
C            5.24414310884116       -1.29966667941192        0.98910118538767
C            6.34234525160999       -1.16491273115430        0.14368232720720
N            7.23896585203099       -2.22965280836739       -0.02806582542757
C            6.89685471230221       -3.52378803332739       -0.36413077594381
C            5.64745126413894       -4.06574850146849       -0.63468276258674
C            5.58485099945746       -5.40362339210349       -0.97674053652911
C            6.73367898092768       -6.18754442748104       -1.05843331423996
C            7.98259831303895       -5.64784571827373       -0.81288819587205
C            8.07099513434965       -4.30631771337261       -0.46810591749244
C            9.17218313473695       -3.42923074735156       -0.17426293488145
C           10.54645528258398       -3.61008565224473       -0.10426270477444
C           11.34003563145409       -2.52938615457387        0.23298372622042
C           10.77746879625724       -1.28617916695240        0.51448706108394
C            9.41183035017049       -1.08145669042173        0.45145041460590
C            8.61197433247151       -2.15683475512252        0.08831187506669
C            6.53995834295269        0.03527569821530       -0.53275544055536
C            5.64760770180017        1.07756499653471       -0.37162284915211
C            4.03581481700100        2.89392340711844        1.86756834633405
C            4.22623187491242        2.46611388961745        3.16333797749117
C            4.67105357988520        3.38193696000255        4.10901044914085
C            4.92337380038430        4.69983581288902        3.75787963733299
C            4.73671121650023        5.13500791246272        2.45582177197716
C            4.29166753425776        4.22621123810694        1.50781646013183
C            4.01108621329091        4.38724464583145        0.09237013669591
C            4.08149961685848        5.50178531265792       -0.72914832587886
C            3.75771965482028        5.36306998097829       -2.06854221363283
C            3.36636750841982        4.13288868990368       -2.58163692622278
C            3.28510986918483        3.01486347703072       -1.76415373490451
C            3.61727539278134        3.14454552723472       -0.43106067304637
C            1.19543888719048        2.39407012703850        1.49082168275532
C           -0.12839469313588        2.07252152769997        1.48284788853103
C           -2.47610567793131       -0.64816062623186        0.23041597456552
C           -3.79528166205813       -0.96716724017005        0.21935519288096
H           -6.52779803341717       -1.85742968292940       -2.73949853364020
H           -4.33343274950073       -1.34752035495471       -3.75490310980638
H           -3.39797755266800        0.92876021954012       -3.59478257650046
H           -4.66778254471520        2.70931542636331       -2.45354446494472
H           -6.87543480120812        2.18978920900666       -1.44332132327593
H           -7.06555693601068       -2.45973193882983       -0.04336263151458
H           -7.64766618053457       -4.85926324054173       -0.00028305903660
H           -9.68430096118718       -5.65574774995331       -1.13993960933367
H          -11.14643275572599       -4.05460989768690       -2.32137702900585
H          -10.55048267048483       -1.64273329920674       -2.35555747634869
H          -10.25846208476236        1.14332213812223        0.51978110857790
H          -10.12152075467176        1.89543285896877        2.88756871842922
H           -8.02750911451974        1.54010856028078        4.15671052993155
H           -6.09035568896110        0.46479172353512        3.08008574619142
H           -5.08635640966291        1.96088259368213        1.39773730097715
H           -2.73895149275266        2.53634858137058        1.44777635573260
H            0.01985962401769       -0.58374025238016       -0.65724410182879
H            2.35432590671810        0.02614668231772       -0.64265540168613
H            3.50058823557141       -0.37114488764185        1.78981490346013
H            5.10152742641320       -2.21936408910609        1.53671577756533
H            4.75367091945284       -3.46241859335942       -0.58932567373563
H            4.62454997688682       -5.85007930738080       -1.18935617071655
H            6.64364075191770       -7.22985781266447       -1.32680786646560
H            8.87297480082851       -6.25334095868654       -0.89168931828978
H           10.98319285531812       -4.57649435871537       -0.30645054370920
H           12.41197129685074       -2.64899457352105        0.28946647771093
H           11.42229583011552       -0.46487777366329        0.79095752622147
H            8.98306606719877       -0.11933583874423        0.68743074519704
H            7.38337758223643        0.14012513427746       -1.19877983991425
H            5.80969119809668        2.00253786377704       -0.90478691459978
H            4.03321944921529        1.44184656746819        3.44518001596797
H            4.82285016912446        3.06231394144794        5.12975978093933
H            5.26948444347573        5.39461060120101        4.50969378105668
H            4.93426859479111        6.16178140585491        2.18544448903884
H            4.38188855157851        6.46042570671093       -0.33249045635301
H            3.80705133918007        6.22146293762941       -2.72302846785170
H            3.11994963526665        4.04591690941430       -3.62989800399299
H            2.97350162991272        2.06277187868861       -2.16755453899716
H            1.53865161167331        3.22728118478944        2.08776848142457
H           -0.80461776296397        2.64438621450985        2.09788122902006
H           -1.76216893037173       -1.38770857827043       -0.09218296409505
H           -4.13408337221153       -1.93010015173592       -0.13117787332797

          :  Hamiltonian                  GFN2-xTB          :
         :: gradient norm              0.000089585911 Eh/a0 ::
         :: HOMO-LUMO gap              0.297810811763 eV    ::
         :: SCC energy              -168.704130321006 Eh    ::
         :: -> dispersion             -0.161013323359 Eh    ::
         :: -> Gsolv                  -0.071685322526 Eh    ::
         :: repulsion energy           3.041350116644 Eh    ::

    * Orbital Energies and Occupations

         #    Occupation            Energy/Eh            Energy/eV
      -------------------------------------------------------------
         1        2.0000           -0.7403248             -20.1453
       ...           ...                  ...                  ...
       143        2.0000           -0.4093339             -11.1385
       144        2.0000           -0.4079915             -11.1020
       145        2.0000           -0.4058962             -11.0450
       146        2.0000           -0.4048881             -11.0176
       147        2.0000           -0.4011203             -10.9150
       148        2.0000           -0.4003955             -10.8953
       149        2.0000           -0.3984026             -10.8411
       150        2.0000           -0.3948556             -10.7446
       151        2.0000           -0.3835314             -10.4364
       152        2.0000           -0.3812463             -10.3742
       153        1.9258           -0.3669214              -9.9844
       154        1.0742           -0.3621246              -9.8539
       155        0.9966           -0.2660492              -7.2396 (HOMO)
       156        0.0029           -0.2551054              -6.9418 (LUMO)
       157        0.0005           -0.2533398              -6.8937
       158        0.0000           -0.2502269              -6.8090
       159                         -0.2422546              -6.5921
       160                         -0.2384384              -6.4882
       161                         -0.2382917              -6.4842
       162                         -0.2340406              -6.3686
       163                         -0.2329988              -6.3402
       164                         -0.2323073              -6.3214
       165                         -0.2306632              -6.2767
       166                         -0.2270750              -6.1790
       ...                                ...                  ...
       307                          1.1981770              32.6041
      -------------------------------------------------------------
                  HL-Gap            0.0109438 Eh            0.2978 eV

     #   Z          covCN         q      C6AA      α(0)
     1   8 O        0.808    -0.409    21.892     6.272
     2  15 P        4.066     0.050   158.025    22.581
     3   6 C        2.921     0.020    27.554     8.608
     4   6 C        2.970    -0.023    28.573     8.768
     5   6 C        2.920    -0.026    28.661     8.779
     6   6 C        2.920    -0.026    28.647     8.777
     7   6 C        2.919    -0.027    28.685     8.783
     8   6 C        3.030    -0.019    28.446     8.748
     9   6 C        2.920     0.012    27.759     8.640
    10   6 C        2.974    -0.028    28.695     8.787
    11   6 C        2.919    -0.028    28.705     8.786
    12   6 C        2.920    -0.026    28.664     8.780
    13   6 C        2.918    -0.028    28.705     8.786
    14   6 C        3.025    -0.021    28.501     8.757
    15   6 C        2.916    -0.016    28.402     8.739
    16   6 C        3.014    -0.021    28.503     8.758
    17   6 C        2.916    -0.040    28.985     8.828
    18   6 C        2.920    -0.031    28.774     8.796
    19   6 C        2.914    -0.053    29.312     8.878
    20   6 C        2.921     0.133    25.096     8.215
    21   8 O        1.710    -0.226    17.743     5.687
    22   6 C        2.863     0.126    25.238     8.235
    23   6 C        2.905    -0.055    29.366     8.885
    24   6 C        2.916    -0.039    28.973     8.827
    25   6 C        2.965     0.001    28.010     8.681
    26   6 C        2.965     0.004    27.933     8.669
    27   6 C        2.915    -0.040    28.991     8.829
    28   6 C        2.911    -0.035    28.869     8.810
    29   6 C        2.983     0.008    27.836     8.654
    30   6 C        3.945     0.012    20.306     6.403
    31   6 C        2.977     0.018    27.602     8.618
    32   6 C        2.924    -0.030    28.761     8.795
    33   6 C        2.921    -0.042    29.043     8.838
    34   6 C        2.913     0.061    26.638     8.463
    35   7 N        2.802    -0.033    21.878     6.947
    36   6 C        3.075     0.047    26.858     8.497
    37   6 C        2.909    -0.048    29.198     8.860
    38   6 C        2.923    -0.033    28.829     8.805
    39   6 C        2.920    -0.039    28.967     8.826
    40   6 C        2.912    -0.032    28.809     8.801
    41   6 C        3.066    -0.016    28.336     8.729
    42   6 C        3.066    -0.016    28.337     8.729
    43   6 C        2.912    -0.033    28.811     8.802
    44   6 C        2.920    -0.039    28.966     8.826
    45   6 C        2.923    -0.033    28.828     8.805
    46   6 C        2.909    -0.048    29.195     8.860
    47   6 C        3.075     0.047    26.859     8.497
    48   6 C        2.921    -0.041    29.027     8.835
    49   6 C        2.923    -0.033    28.822     8.804
    50   6 C        3.055     0.004    27.877     8.659
    51   6 C        2.914    -0.035    28.866     8.810
    52   6 C        2.922    -0.034    28.839     8.806
    53   6 C        2.920    -0.033    28.827     8.805
    54   6 C        2.914    -0.035    28.883     8.813
    55   6 C        3.033     0.000    27.987     8.677
    56   6 C        3.033    -0.001    28.014     8.682
    57   6 C        2.914    -0.035    28.863     8.810
    58   6 C        2.920    -0.034    28.847     8.808
    59   6 C        2.922    -0.034    28.844     8.807
    60   6 C        2.913    -0.034    28.845     8.807
    61   6 C        3.062     0.004    27.867     8.657
    62   6 C        2.911    -0.035    28.874     8.811
    63   6 C        2.915    -0.039    28.982     8.828
    64   6 C        2.915    -0.039    28.966     8.825
    65   6 C        2.907    -0.049    29.213     8.862
    66   1 H        0.926     0.039     2.468     2.457
    67   1 H        0.926     0.045     2.378     2.412
    68   1 H        0.926     0.046     2.376     2.410
    69   1 H        0.926     0.041     2.434     2.440
    70   1 H        0.925     0.032     2.558     2.501
    71   1 H        0.926     0.051     2.308     2.376
    72   1 H        0.926     0.043     2.411     2.428
    73   1 H        0.926     0.044     2.401     2.423
    74   1 H        0.926     0.041     2.436     2.441
    75   1 H        0.925     0.046     2.366     2.405
    76   1 H        0.925     0.052     2.296     2.370
    77   1 H        0.926     0.047     2.357     2.401
    78   1 H        0.926     0.051     2.306     2.375
    79   1 H        0.926     0.051     2.309     2.376
    80   1 H        0.926     0.034     2.528     2.486
    81   1 H        0.926     0.042     2.422     2.434
    82   1 H        0.926     0.034     2.526     2.485
    83   1 H        0.926     0.030     2.582     2.513
    84   1 H        0.926     0.045     2.377     2.411
    85   1 H        0.926     0.046     2.368     2.407
    86   1 H        0.926     0.035     2.512     2.478
    87   1 H        0.926     0.034     2.523     2.484
    88   1 H        0.926     0.032     2.553     2.499
    89   1 H        0.926     0.035     2.521     2.483
    90   1 H        0.926     0.035     2.518     2.482
    91   1 H        0.926     0.032     2.552     2.498
    92   1 H        0.926     0.034     2.529     2.487
    93   1 H        0.926     0.035     2.521     2.483
    94   1 H        0.926     0.045     2.384     2.415
    95   1 H        0.926     0.042     2.428     2.436
    96   1 H        0.926     0.032     2.555     2.500
    97   1 H        0.926     0.032     2.557     2.500
    98   1 H        0.926     0.032     2.565     2.504
    99   1 H        0.926     0.032     2.554     2.499
   100   1 H        0.926     0.033     2.549     2.496
   101   1 H        0.926     0.031     2.568     2.506
   102   1 H        0.926     0.032     2.561     2.503
   103   1 H        0.926     0.032     2.559     2.502
   104   1 H        0.926     0.026     2.639     2.540
   105   1 H        0.926     0.031     2.568     2.506
   106   1 H        0.926     0.046     2.369     2.407
   107   1 H        0.926     0.044     2.401     2.423

molecular dipole:
                 x           y           z       tot (Debye)
 q only:        4.005      -0.936       1.142
   full:        3.957      -0.852       1.263      10.779

 projected vibrational frequencies (cm⁻¹)
eigval :       -0.00    -0.00    -0.00     0.00     0.00     0.00
eigval :        4.65     7.83    10.31    15.00    16.34    20.91
eigval :       29.11    30.53    35.26    39.57    42.67    46.62
eigval :       49.64    52.13    55.76    61.10    62.95    69.19
eigval :       78.70    85.63    86.55    98.29   105.69   109.97
eigval :      124.65   136.63   141.89   146.34   151.31   155.29
eigval :      174.90   181.27   191.37   196.66   206.10   217.66
eigval :      225.02   232.15   239.53   253.27   256.80   267.80
eigval :      270.62   272.55   279.43   289.24   300.71   313.87
eigval :      341.94   355.49   360.58   361.71   362.79   367.93
eigval :      374.33   384.90   388.19   389.51   390.88   392.25
eigval :      407.03   411.01   412.85   417.18   424.03   433.29
eigval :      436.31   441.08   446.29   460.15   466.86   471.04
eigval :      485.87   497.13   505.57   510.40   512.06   517.45
eigval :      535.10   537.37   539.55   556.37   572.87   579.24
eigval :      585.51   585.65   585.78   589.16   595.20   598.53
eigval :      605.61   618.59   622.48   627.23   643.87   654.52
eigval :      655.10   659.03   666.00   671.28   674.75   675.52
eigval :      691.92   705.11   708.16   710.84   716.72   722.53
eigval :      730.80   739.22   742.02   753.03   755.58   764.95
eigval :      767.96   769.89   776.12   777.93   779.67   781.82
eigval :      787.87   791.26   800.41   819.77   843.99   867.14
eigval :      872.64   873.12   874.99   877.15   877.23   880.64
eigval :      882.05   888.18   889.05   892.52   897.96   898.62
eigval :      900.40   901.81   903.08   904.58   905.07   906.34
eigval :      910.96   911.19   912.24   915.09   919.24   921.50
eigval :      922.57   923.48   924.99   925.65   927.98   929.21
eigval :      930.57   932.26   938.41   949.81   952.25   970.67
eigval :      971.75   974.82   988.19  1001.12  1010.73  1021.84
eigval :     1036.81  1067.48  1071.00  1073.47  1075.24  1076.17
eigval :     1077.47  1078.90  1102.00  1112.88  1112.95  1114.02
eigval :     1115.84  1122.85  1125.78  1138.38  1141.01  1141.40
eigval :     1143.86  1147.36  1159.71  1168.93  1170.25  1171.49
eigval :     1173.78  1178.30  1178.46  1178.62  1181.24  1183.10
eigval :     1189.63  1190.91  1194.78  1200.65  1204.89  1209.12
eigval :     1210.66  1220.89  1228.44  1232.34  1234.36  1237.13
eigval :     1240.20  1245.30  1250.43  1253.68  1265.84  1267.90
eigval :     1269.83  1272.15  1282.74  1294.14  1295.51  1307.11
eigval :     1316.71  1319.80  1321.89  1324.30  1328.80  1334.93
eigval :     1345.58  1351.13  1351.35  1358.54  1361.76  1363.35
eigval :     1367.54  1396.12  1405.29  1408.74  1413.46  1418.84
eigval :     1419.02  1420.53  1423.46  1424.94  1425.05  1440.65
eigval :     1448.74  1454.80  1457.42  1464.88  1466.88  1474.47
eigval :     1483.90  1485.74  1496.85  1506.46  1526.36  1545.88
eigval :     1561.35  1561.95  1567.83  1569.73  1569.96  1574.94
eigval :     1582.52  1583.14  1585.46  1587.06  1587.24  1588.95
eigval :     1592.82  1597.11  1609.09  3040.71  3065.90  3067.58
eigval :     3068.48  3069.09  3069.53  3069.98  3072.50  3073.36
eigval :     3073.72  3074.61  3074.96  3075.57  3075.87  3076.97
eigval :     3077.51  3078.62  3079.79  3080.08  3080.22  3080.82
eigval :     3083.25  3084.29  3084.77  3088.09  3089.02  3089.19
eigval :     3089.32  3089.40  3090.47  3091.54  3091.76  3092.77
eigval :     3094.00  3094.95  3095.63  3097.11  3099.69  3100.28
eigval :     3106.44  3107.60  3112.23

   temp. (K)  partition function   enthalpy   heat capacity  entropy
                                   cal/mol     cal/K/mol   cal/K/mol   J/K/mol
 298.15  VIB  0.417E+27            32035.279    198.149    202.685
         ROT  0.293E+09              888.752      2.981     41.724
         INT  0.122E+36            32924.032    201.129    244.409
         TR   0.241E+29             1481.254      4.968     46.083
         TOT                       34405.2855   206.0976   290.4919  1215.4181

       T/K    H(0)-H(T)+PV         H(T)/Eh          T*S/Eh         G(T)/Eh
   ------------------------------------------------------------------------
    298.15    0.548283E-01    0.871563E+00    0.138022E+00    0.733541E+00
   ------------------------------------------------------------------------

         :::::::::::::::::::::::::::::::::::::::::::::::::::::
         ::                  THERMODYNAMIC                  ::
         :::::::::::::::::::::::::::::::::::::::::::::::::::::
         :: total free energy        -164.929239699784 Eh   ::
         ::.................................................::
         :: total energy             -165.662780210497 Eh   ::
         :: zero point energy           0.816734276577 Eh   ::
         :: G(RRHO) w/o ZPVE           -0.083193765865 Eh   ::
         :: G(RRHO) contrib.            0.733540510713 Eh   ::
         :::::::::::::::::::::::::::::::::::::::::::::::::::::

           -------------------------------------------------
          | TOTAL ENERGY             -165.662780210497 Eh   |
          | TOTAL ENTHALPY           -164.791217621544 Eh   |
          | TOTAL FREE ENERGY        -164.929239699784 Eh   |
          | GRADIENT NORM               0.000089922782 Eh/α |
          | HOMO-LUMO GAP               0.297796256880 eV   |
           -------------------------------------------------

 * finished run on 2025/09/07 at 00:55:01.321
