   * xtb version 6.7.1 (edcfbbe) compiled by 'albert@albert-system' on 2024-07-22

   ID    Z sym.   atoms
    1    8 O      1, 21
    2   15 P      2
    3    6 C      3-20, 22-34, 36-65
    4    7 N      35
    5    1 H      66-107

          program call               : xtb data2507/toluene/9CzFDPESPO/9CzFDPESPO_toluene_T1_crest.xyz --gfn 2 --uhf 2 --gbsa toluene --ohess vtight --parallel 40 --molden --ceasefiles --namespace data2507/toluene/9CzFDPESPO/9CzFDPESPO_toluene_T1_finalOpt
      * Solvation model:               GBSA
        Solvent                        toluene
        Solvent mass                       9.2140E+01 g/mol
          :  Hamiltonian                  GFN2-xTB          :
 * total energy  :  -165.6616187 Eh     change       -0.3614019E-08 Eh
 * total energy  :  -165.6617603 Eh     change       -0.1416404E-03 Eh
 * total energy  :  -165.6618301 Eh     change       -0.6978174E-04 Eh
 * total energy  :  -165.6618500 Eh     change       -0.1988789E-04 Eh
 * total energy  :  -165.6618698 Eh     change       -0.1973798E-04 Eh
 * total energy  :  -165.6618906 Eh     change       -0.2083805E-04 Eh
 * total energy  :  -165.6619032 Eh     change       -0.1262418E-04 Eh
 * total energy  :  -165.6619191 Eh     change       -0.1591132E-04 Eh
 * total energy  :  -165.6619391 Eh     change       -0.1993282E-04 Eh
 * total energy  :  -165.6619508 Eh     change       -0.1172995E-04 Eh
 * total energy  :  -165.6622674 Eh     change       -0.3562880E-06 Eh
 * total energy  :  -165.6622678 Eh     change       -0.4430096E-06 Eh
 * total energy  :  -165.6622683 Eh     change       -0.4994872E-06 Eh
 * total energy  :  -165.6622691 Eh     change       -0.8003818E-06 Eh
 * total energy  :  -165.6622700 Eh     change       -0.8902411E-06 Eh
 * total energy  :  -165.6622712 Eh     change       -0.1196235E-05 Eh
 * total energy  :  -165.6622725 Eh     change       -0.1293737E-05 Eh
 * total energy  :  -165.6622737 Eh     change       -0.1245300E-05 Eh
 * total energy  :  -165.6622737 Eh     change       -0.5697871E-08 Eh
   *** GEOMETRY OPTIMIZATION CONVERGED AFTER 122 ITERATIONS ***

 final structure:
================
107
 xtb: 6.7.1 (edcfbbe)
O           -4.48100344211606       -2.07241399471376        0.00282474460196
P           -5.76918424985389       -1.41621078736041       -0.28942292285446
C           -6.78956355439807       -2.39398348627275       -1.44390213770769
C           -6.11638935082654       -3.31043925196823       -2.24259148403378
C           -6.80027258605981       -4.04065362825526       -3.19711069751899
C           -8.16323522063152       -3.85070403322180       -3.36423355881438
C           -8.83803881401214       -2.93317890966933       -2.57280435698797
C           -8.15668952908113       -2.20285828354785       -1.61747028937687
C           -5.61968143237715        0.15612299730718       -1.17521105380613
C           -6.72526284318192        0.94892623674227       -1.48527981019853
C           -6.56556402338902        2.06239715538929       -2.28386012703045
C           -5.31575863573141        2.38457128013459       -2.79670088104896
C           -4.21809372713671        1.58735226931702       -2.50226856001149
C           -4.36951919323896        0.47490147905567       -1.70004961516706
C           -6.87006513106720       -1.26353495584280        1.16777984607047
C           -7.50573328888503       -2.44393126223581        1.53376353673574
C           -8.44656863378863       -2.47194560053294        2.54540601401145
C           -8.79628963870696       -1.28701126051371        3.18445895765286
C           -8.16468082077225       -0.10831172704062        2.85036051992066
C           -7.17541543878297       -0.08953941627133        1.86350358233272
O           -6.58080926509700        1.11511264356635        1.61347464543733
C           -5.24254434780266        1.17896245366906        1.38226858543908
C           -4.30731312923858        0.24692587592578        1.89151973978288
C           -2.97411253247642        0.45262865043977        1.73109880679139
C           -2.44557383647781        1.59811186009069        1.03679504066718
C           -1.06769283370687        1.77602960469976        0.81164549605125
C           -0.55529553731789        2.81795001381126       -0.03343450197970
C            0.78031109495778        2.98768724840546       -0.24881669493453
C            1.73472352881368        2.14177193245480        0.34515963956675
C            3.21136729288050        2.39180219234542        0.18695000797542
C            4.03765165125399        1.12569076783267        0.19063677066878
C            3.57586796104728       -0.01115716319736       -0.46605592200944
C            4.34250820916068       -1.15780432640934       -0.52116275361750
C            5.59503881367862       -1.18969855306527        0.08639158870807
N            6.37244512335894       -2.35630740821354        0.04471886125390
C            5.94707262282924       -3.62101531005925        0.39772640103674
C            4.72077679578045       -4.03250052882582        0.90266995615376
C            4.56302972334495       -5.37291666646205        1.20151365557986
C            5.59825093309037       -6.28629717509638        1.01429585887432
C            6.82901085579294       -5.87849687191469        0.53443428791686
C            7.01129709055127       -4.53748070188576        0.22681256309887
C            8.12989047004328       -3.77637119793871       -0.26068111609114
C            9.42621334894149       -4.11045262344543       -0.62706159994926
C           10.26216744159662       -3.11062505568464       -1.08844368361421
C            9.81477082794791       -1.79574214931059       -1.19841460380779
C            8.52823105051135       -1.43872060558421       -0.84020547572416
C            7.69131192210507       -2.43448403376134       -0.35427467652623
C            6.06747208009416       -0.05284297163883        0.73589142830123
C            5.29668878393433        1.09291918844733        0.77816947456850
C            3.58241027878024        3.37857729461087        1.28242023793493
C            3.48118050865304        3.22565554960447        2.64994432768691
C            3.85498188857011        4.28309080552440        3.46713253222965
C            4.30781961439071        5.47759693396675        2.92302026668199
C            4.40267502315653        5.64011499352673        1.55060708676461
C            4.03855870111981        4.58541174232289        0.72833196552713
C            4.04176591301510        4.45996749135301       -0.71889046132475
C            4.42753420020703        5.35149391346117       -1.70786322340202
C            4.32722420609978        4.95855569291712       -3.03286621593974
C            3.85161484405731        3.69888429261405       -3.36568723651732
C            3.46345107090831        2.80104938983083       -2.37901279298689
C            3.55717742202184        3.18823961318510       -1.05977669647770
C            1.26087795789379        1.12351162949401        1.19550854701430
C           -0.07129904276178        0.93544148210505        1.41260038982153
C           -3.42604788324400        2.56162367204211        0.60591999339181
C           -4.75562122623863        2.37231286897841        0.79361214967440
H           -5.05433208653443       -3.44568659184167       -2.08867387344111
H           -6.27207094008589       -4.75629081216127       -3.81042542724820
H           -8.70078170839968       -4.41910413018698       -4.10878887098681
H           -9.90104461192485       -2.78837686583564       -2.70056583118713
H           -8.68711107908110       -1.49946931416238       -0.99145641614558
H           -7.69730273927084        0.69625937090220       -1.08673931844508
H           -7.41990265458856        2.68203178533193       -2.51644367288291
H           -5.19949608262878        3.25446585037866       -3.42581868783367
H           -3.24631476326060        1.83157486377839       -2.90563183424146
H           -3.52993352987955       -0.16013092838247       -1.45312645288517
H           -7.24442671609825       -3.34758213870979        0.99657674969484
H           -8.91710809401996       -3.40220150060555        2.82331843417145
H           -9.55238943019449       -1.28934442230194        3.95459378853475
H           -8.40331720295645        0.81905069132776        3.34873647854021
H           -4.66083374509380       -0.61868616290723        2.43401668303360
H           -2.29988786727343       -0.28521933496669        2.13226667707835
H           -1.24348856029961        3.47480766806720       -0.53924652165835
H            1.11721511542428        3.78293729585071       -0.89867249356546
H            2.60349206426366        0.00199743228881       -0.93633732662744
H            3.98164945476239       -2.02872564685543       -1.04780514619687
H            3.91754968175594       -3.33022060228912        1.06581441099886
H            3.61713376345141       -5.71887721585675        1.59191464806142
H            5.43535829649438       -7.32603118159877        1.25700447831835
H            7.63489125148902       -6.58509322227347        0.40461248891011
H            9.76968330346318       -5.13156098726615       -0.55663964998842
H           11.27515379390384       -3.34982321570720       -1.37685619190753
H           10.48640352748603       -1.03901721173091       -1.57650977689066
H            8.18514901614723       -0.42072413713459       -0.94547758865781
H            7.03190518273266       -0.07673313934821        1.22082423802012
H            5.67387535800902        1.96828301084011        1.28578947357991
H            3.12435490985531        2.30159837069382        3.07977473243935
H            3.79051492337988        4.17560380861402        4.54019163627272
H            4.58752155017667        6.28939286362326        3.57892109879790
H            4.75299677747971        6.57116004238374        1.13013591643822
H            4.79955271087112        6.33245917434732       -1.45187034850066
H            4.62331014034793        5.64040312387652       -3.81713391569860
H            3.78192758621050        3.41118603423252       -4.40466820841971
H            3.09385733061101        1.82224566267888       -2.64612298617260
H            1.97460200437230        0.47508024109741        1.68418989670722
H           -0.37598347626923        0.14805946007882        2.08230114823869
H           -3.09956482945676        3.48297908839492        0.15378241675255
H           -5.47729601799683        3.11077250663917        0.47977686983478

          :  Hamiltonian                  GFN2-xTB          :
         :: gradient norm              0.000061478279 Eh/a0 ::
         :: HOMO-LUMO gap              0.369258485406 eV    ::
         :: SCC energy              -168.702328433394 Eh    ::
         :: -> dispersion             -0.165868166829 Eh    ::
         :: -> Gsolv                  -0.069479652946 Eh    ::
         :: repulsion energy           3.040054701287 Eh    ::

    * Orbital Energies and Occupations

         #    Occupation            Energy/Eh            Energy/eV
      -------------------------------------------------------------
         1        2.0000           -0.7395497             -20.1242
       ...           ...                  ...                  ...
       143        2.0000           -0.4069942             -11.0749
       144        2.0000           -0.4066307             -11.0650
       145        2.0000           -0.4055926             -11.0367
       146        2.0000           -0.4039544             -10.9922
       147        2.0000           -0.4007482             -10.9049
       148        2.0000           -0.3991573             -10.8616
       149        2.0000           -0.3974467             -10.8151
       150        2.0000           -0.3953875             -10.7590
       151        2.0000           -0.3829360             -10.4202
       152        2.0000           -0.3812213             -10.3736
       153        1.9246           -0.3663424              -9.9687
       154        1.0754           -0.3615800              -9.8391
       155        0.9992           -0.2678658              -7.2890 (HOMO)
       156        0.0007           -0.2542955              -6.9197 (LUMO)
       157        0.0001           -0.2522462              -6.8640
       158        0.0000           -0.2496479              -6.7933
       159        0.0000           -0.2488031              -6.7703
       160                         -0.2379458              -6.4748
       161                         -0.2366687              -6.4401
       162                         -0.2334479              -6.3524
       163                         -0.2310188              -6.2863
       164                         -0.2301898              -6.2638
       165                         -0.2271102              -6.1800
       166                         -0.2264925              -6.1632
       ...                                ...                  ...
       307                          1.2201052              33.2008
      -------------------------------------------------------------
                  HL-Gap            0.0135703 Eh            0.3693 eV

     #   Z          covCN         q      C6AA      α(0)
     1   8 O        0.808    -0.396    21.617     6.232
     2  15 P        4.079     0.022   159.239    22.668
     3   6 C        2.919     0.008    27.848     8.654
     4   6 C        3.028    -0.022    28.515     8.759
     5   6 C        2.918    -0.029    28.717     8.788
     6   6 C        2.920    -0.028    28.692     8.784
     7   6 C        2.919    -0.028    28.701     8.785
     8   6 C        2.967    -0.026    28.657     8.781
     9   6 C        2.920     0.010    27.798     8.646
    10   6 C        2.978    -0.028    28.686     8.786
    11   6 C        2.919    -0.029    28.730     8.790
    12   6 C        2.920    -0.032    28.806     8.801
    13   6 C        2.918    -0.029    28.723     8.789
    14   6 C        3.026    -0.023    28.548     8.764
    15   6 C        2.913    -0.011    28.301     8.723
    16   6 C        3.049    -0.020    28.454     8.748
    17   6 C        2.916    -0.037    28.926     8.819
    18   6 C        2.919    -0.026    28.654     8.778
    19   6 C        2.917    -0.050    29.250     8.869
    20   6 C        2.902     0.138    24.995     8.197
    21   8 O        1.709    -0.238    17.935     5.718
    22   6 C        2.872     0.135    25.059     8.206
    23   6 C        2.907    -0.040    29.003     8.831
    24   6 C        2.916    -0.032    28.797     8.800
    25   6 C        2.964     0.004    27.943     8.671
    26   6 C        2.964     0.007    27.861     8.658
    27   6 C        2.916    -0.038    28.952     8.823
    28   6 C        2.912    -0.035    28.869     8.810
    29   6 C        2.982     0.010    27.788     8.647
    30   6 C        3.945     0.012    20.309     6.404
    31   6 C        2.978     0.018    27.598     8.617
    32   6 C        2.923    -0.030    28.758     8.794
    33   6 C        2.921    -0.042    29.035     8.836
    34   6 C        2.913     0.061    26.635     8.463
    35   7 N        2.802    -0.033    21.873     6.946
    36   6 C        3.074     0.048    26.857     8.497
    37   6 C        2.909    -0.048    29.190     8.859
    38   6 C        2.923    -0.033    28.824     8.804
    39   6 C        2.920    -0.039    28.963     8.825
    40   6 C        2.912    -0.032    28.809     8.801
    41   6 C        3.066    -0.016    28.334     8.729
    42   6 C        3.066    -0.016    28.333     8.728
    43   6 C        2.912    -0.032    28.809     8.801
    44   6 C        2.920    -0.039    28.965     8.826
    45   6 C        2.923    -0.033    28.827     8.805
    46   6 C        2.909    -0.048    29.194     8.860
    47   6 C        3.074     0.047    26.859     8.497
    48   6 C        2.921    -0.041    29.029     8.835
    49   6 C        2.923    -0.033    28.821     8.804
    50   6 C        3.061     0.005    27.857     8.655
    51   6 C        2.913    -0.034    28.840     8.806
    52   6 C        2.922    -0.033    28.826     8.805
    53   6 C        2.920    -0.034    28.835     8.806
    54   6 C        2.914    -0.034    28.857     8.809
    55   6 C        3.033     0.000    27.992     8.678
    56   6 C        3.033     0.001    27.973     8.675
    57   6 C        2.914    -0.035    28.870     8.811
    58   6 C        2.920    -0.033    28.821     8.804
    59   6 C        2.922    -0.033    28.824     8.804
    60   6 C        2.914    -0.034    28.854     8.808
    61   6 C        3.055     0.004    27.870     8.658
    62   6 C        2.912    -0.034    28.847     8.807
    63   6 C        2.915    -0.038    28.938     8.821
    64   6 C        2.915    -0.037    28.926     8.819
    65   6 C        2.906    -0.049    29.219     8.863
    66   1 H        0.925     0.043     2.415     2.430
    67   1 H        0.926     0.040     2.449     2.447
    68   1 H        0.926     0.043     2.411     2.428
    69   1 H        0.926     0.042     2.421     2.433
    70   1 H        0.926     0.034     2.530     2.488
    71   1 H        0.926     0.033     2.548     2.496
    72   1 H        0.926     0.039     2.467     2.456
    73   1 H        0.926     0.040     2.447     2.446
    74   1 H        0.926     0.038     2.472     2.459
    75   1 H        0.925     0.039     2.461     2.453
    76   1 H        0.925     0.045     2.382     2.414
    77   1 H        0.926     0.051     2.312     2.378
    78   1 H        0.926     0.056     2.247     2.344
    79   1 H        0.926     0.057     2.234     2.337
    80   1 H        0.926     0.035     2.518     2.481
    81   1 H        0.926     0.045     2.387     2.416
    82   1 H        0.926     0.034     2.527     2.486
    83   1 H        0.926     0.030     2.590     2.517
    84   1 H        0.926     0.044     2.393     2.419
    85   1 H        0.926     0.045     2.378     2.411
    86   1 H        0.926     0.035     2.522     2.483
    87   1 H        0.926     0.034     2.532     2.488
    88   1 H        0.926     0.033     2.551     2.498
    89   1 H        0.926     0.035     2.514     2.479
    90   1 H        0.926     0.035     2.515     2.480
    91   1 H        0.926     0.033     2.547     2.496
    92   1 H        0.926     0.035     2.523     2.484
    93   1 H        0.926     0.035     2.516     2.481
    94   1 H        0.926     0.046     2.373     2.409
    95   1 H        0.926     0.042     2.417     2.431
    96   1 H        0.926     0.032     2.555     2.500
    97   1 H        0.926     0.033     2.549     2.497
    98   1 H        0.926     0.033     2.550     2.497
    99   1 H        0.926     0.034     2.529     2.487
   100   1 H        0.926     0.034     2.534     2.489
   101   1 H        0.926     0.033     2.551     2.497
   102   1 H        0.926     0.033     2.549     2.497
   103   1 H        0.926     0.032     2.559     2.502
   104   1 H        0.926     0.031     2.566     2.505
   105   1 H        0.926     0.033     2.542     2.493
   106   1 H        0.926     0.047     2.359     2.402
   107   1 H        0.926     0.044     2.396     2.421

molecular dipole:
                 x           y           z       tot (Debye)
 q only:        1.184       0.727      -0.097
   full:        0.906       0.733      -0.141       2.983

 projected vibrational frequencies (cm⁻¹)
eigval :       -0.00    -0.00     0.00     0.00     0.00     0.00
eigval :        5.11     6.63     9.95    12.23    14.31    21.10
eigval :       29.63    31.68    36.05    37.34    45.48    49.73
eigval :       54.96    57.25    61.70    68.74    73.40    81.39
eigval :       85.94    89.55    97.40   102.08   103.27   118.92
eigval :      119.39   135.15   142.32   145.30   154.54   158.77
eigval :      171.20   177.13   191.95   195.69   198.02   214.05
eigval :      225.33   229.20   237.60   251.97   257.72   266.94
eigval :      271.33   280.02   286.62   288.96   302.32   319.22
eigval :      340.26   359.77   361.73   363.38   363.77   369.79
eigval :      374.55   381.56   384.58   386.06   389.56   389.81
eigval :      397.94   406.82   413.09   419.21   425.43   428.09
eigval :      435.92   442.11   444.90   454.43   463.70   483.20
eigval :      485.79   496.00   499.39   504.70   516.00   518.03
eigval :      535.96   538.06   539.34   559.70   570.87   580.40
eigval :      583.14   585.60   586.13   587.98   594.16   598.46
eigval :      603.50   617.66   619.44   622.86   641.21   652.08
eigval :      652.58   658.88   660.76   668.34   674.38   675.29
eigval :      691.20   695.97   706.67   709.17   712.48   723.00
eigval :      730.08   731.06   739.79   753.12   756.14   764.46
eigval :      765.99   767.93   769.85   773.90   780.11   780.21
eigval :      782.71   787.47   798.66   819.39   846.65   862.16
eigval :      867.56   872.07   872.83   873.23   874.11   876.40
eigval :      880.95   884.10   884.49   889.42   891.32   894.10
eigval :      897.90   897.92   903.56   904.70   904.98   906.92
eigval :      908.74   909.60   912.19   915.21   916.04   918.73
eigval :      920.19   922.98   923.09   924.05   925.73   926.62
eigval :      926.97   927.42   935.88   947.27   952.22   969.23
eigval :      971.45   974.13   990.70  1001.78  1010.74  1020.62
eigval :     1046.56  1068.06  1070.05  1070.99  1073.79  1076.38
eigval :     1078.91  1081.28  1101.14  1103.41  1109.68  1114.20
eigval :     1115.19  1117.29  1126.48  1134.15  1140.29  1140.93
eigval :     1143.34  1147.46  1160.27  1168.81  1172.05  1172.49
eigval :     1173.48  1174.38  1177.40  1178.87  1180.10  1180.78
eigval :     1188.14  1193.40  1195.15  1198.79  1204.19  1209.94
eigval :     1218.63  1222.98  1226.92  1231.44  1232.58  1236.33
eigval :     1240.43  1246.47  1253.18  1256.26  1265.44  1265.82
eigval :     1269.11  1273.34  1283.78  1293.87  1295.06  1306.09
eigval :     1316.16  1320.51  1323.59  1324.65  1328.73  1334.13
eigval :     1345.72  1350.66  1355.75  1360.22  1361.76  1363.04
eigval :     1378.41  1400.68  1400.93  1404.85  1418.11  1418.92
eigval :     1419.51  1421.31  1423.56  1425.71  1432.65  1436.06
eigval :     1445.68  1451.56  1457.61  1465.85  1466.52  1470.47
eigval :     1483.53  1484.94  1500.02  1514.49  1535.72  1544.75
eigval :     1551.92  1561.29  1561.66  1568.63  1569.51  1571.40
eigval :     1573.40  1580.39  1582.87  1587.04  1588.17  1591.33
eigval :     1594.08  1598.32  1609.40  3042.83  3064.70  3065.08
eigval :     3067.13  3067.44  3068.38  3069.15  3070.23  3070.70
eigval :     3072.85  3074.38  3074.85  3075.20  3075.34  3076.66
eigval :     3077.51  3079.20  3079.64  3080.02  3080.25  3081.26
eigval :     3083.81  3084.18  3085.33  3087.51  3087.78  3089.09
eigval :     3090.25  3090.65  3090.70  3092.15  3092.75  3092.80
eigval :     3094.23  3095.24  3095.53  3095.79  3102.76  3102.98
eigval :     3106.58  3116.50  3118.79

   temp. (K)  partition function   enthalpy   heat capacity  entropy
                                   cal/mol     cal/K/mol   cal/K/mol   J/K/mol
 298.15  VIB  0.249E+27            31990.947    199.196    202.234
         ROT  0.259E+09              888.752      2.981     41.481
         INT  0.645E+35            32879.699    202.177    243.716
         TR   0.241E+29             1481.254      4.968     46.083
         TOT                       34360.9528   207.1454   289.7986  1212.5174

       T/K    H(0)-H(T)+PV         H(T)/Eh          T*S/Eh         G(T)/Eh
   ------------------------------------------------------------------------
    298.15    0.547577E-01    0.871224E+00    0.137693E+00    0.733531E+00
   ------------------------------------------------------------------------

         :::::::::::::::::::::::::::::::::::::::::::::::::::::
         ::                  THERMODYNAMIC                  ::
         :::::::::::::::::::::::::::::::::::::::::::::::::::::
         :: total free energy        -164.928742629100 Eh   ::
         ::.................................................::
         :: total energy             -165.662273735290 Eh   ::
         :: zero point energy           0.816466114613 Eh   ::
         :: G(RRHO) w/o ZPVE           -0.082935008423 Eh   ::
         :: G(RRHO) contrib.            0.733531106190 Eh   ::
         :::::::::::::::::::::::::::::::::::::::::::::::::::::

           -------------------------------------------------
          | TOTAL ENERGY             -165.662273735290 Eh   |
          | TOTAL ENTHALPY           -164.791049956873 Eh   |
          | TOTAL FREE ENERGY        -164.928742629100 Eh   |
          | GRADIENT NORM               0.000062098195 Eh/α |
          | HOMO-LUMO GAP               0.369267806837 eV   |
           -------------------------------------------------

 * finished run on 2025/09/07 at 01:14:43.382
