   * xtb version 6.7.1 (edcfbbe) compiled by 'albert@albert-system' on 2024-07-22

   ID    Z sym.   atoms
    1    8 O      1, 21
    2   15 P      2
    3    6 C      3-20, 22-34, 36-65
    4    7 N      35
    5    1 H      66-107

          program call               : xtb data2507/toluene/9CzFDPESPO/9CzFDPESPO_toluene_S0_crest.xyz --gfn 2 --gbsa toluene --ohess vtight --parallel 40 --molden --ceasefiles --namespace data2507/toluene/9CzFDPESPO/9CzFDPESPO_toluene_S0_finalOpt
      * Solvation model:               GBSA
        Solvent                        toluene
        Solvent mass                       9.2140E+01 g/mol
          :  Hamiltonian                  GFN2-xTB          :
 * total energy  :  -165.7693760 Eh     change       -0.2282974E-08 Eh
 * total energy  :  -165.7694975 Eh     change       -0.1214701E-03 Eh
 * total energy  :  -165.7695651 Eh     change       -0.6758356E-04 Eh
 * total energy  :  -165.7695906 Eh     change       -0.2547760E-04 Eh
 * total energy  :  -165.7696150 Eh     change       -0.2447571E-04 Eh
 * total energy  :  -165.7696524 Eh     change       -0.3733153E-04 Eh
 * total energy  :  -165.7696857 Eh     change       -0.3331204E-04 Eh
 * total energy  :  -165.7696954 Eh     change       -0.9670641E-05 Eh
 * total energy  :  -165.7697205 Eh     change       -0.2512853E-04 Eh
 * total energy  :  -165.7697313 Eh     change       -0.1082021E-04 Eh
 * total energy  :  -165.7703008 Eh     change       -0.1355966E-05 Eh
 * total energy  :  -165.7703019 Eh     change       -0.1101367E-05 Eh
 * total energy  :  -165.7703029 Eh     change       -0.1034565E-05 Eh
 * total energy  :  -165.7703039 Eh     change       -0.9946340E-06 Eh
 * total energy  :  -165.7703049 Eh     change       -0.1030425E-05 Eh
 * total energy  :  -165.7703060 Eh     change       -0.1084026E-05 Eh
 * total energy  :  -165.7703072 Eh     change       -0.1189324E-05 Eh
 * total energy  :  -165.7703085 Eh     change       -0.1245530E-05 Eh
 * total energy  :  -165.7703085 Eh     change       -0.7922296E-08 Eh
   *** GEOMETRY OPTIMIZATION CONVERGED AFTER 122 ITERATIONS ***

 final structure:
================
107
 xtb: 6.7.1 (edcfbbe)
O           -9.20081775107779        0.00569308478461       -2.12563423193796
P           -8.24029786072002       -0.51582967284285       -1.13228777170904
C           -6.53001481922890       -0.50557568052466       -1.76639082612649
C           -5.75588588648633       -1.64450508503811       -1.92178446139631
C           -4.47061697890797       -1.53426394628898       -2.42466123014726
C           -3.96162848514735       -0.29423534418363       -2.77321697603172
C           -4.74051843360438        0.84297818488947       -2.63021156604959
C           -6.02454293566405        0.73625935927725       -2.12911674310473
C           -8.63889059218480       -2.20699980296312       -0.59319097749203
C           -7.97931887902544       -2.84634914010603        0.45011094808443
C           -8.34808504405158       -4.13083522697932        0.80703935962045
C           -9.37158090149148       -4.77745253597802        0.13060755803499
C          -10.03150405566296       -4.13928421458020       -0.90716039484205
C           -9.66597237670491       -2.85411101812007       -1.26746104640447
C           -8.20706646270933        0.52776787764716        0.36338339173188
C           -9.30359566698255        1.33876716405236        0.61681478349639
C           -9.31358649125967        2.18210232323877        1.71304061104690
C           -8.21816656543899        2.21531058089017        2.56210016742635
C           -7.11709200232587        1.41232849146954        2.32151200781093
C           -7.10773820075546        0.56437831839739        1.22049864451200
O           -6.08538351397725       -0.31331662366038        0.97203493630252
C           -4.78035994302934        0.11687628933344        0.95352876454735
C           -4.40875792046177        1.44308424627745        0.77581720421103
C           -3.07004240602331        1.77465457469435        0.69736811236184
C           -2.07947046873722        0.79955804667632        0.77446853007956
C           -0.65873642889682        1.15894642968068        0.65858940517620
C            0.20965238828891        0.38412635707909       -0.10717308164292
C            1.54316927379220        0.72270171268585       -0.22453848581003
C            2.05623014152990        1.83545402412830        0.43366578887464
C            3.50714015476938        2.23514323326640        0.24842598950295
C            4.43679927369313        1.04213678637587        0.15608275298806
C            4.24137961024045       -0.06261505581563        0.97884221982624
C            5.11266560579103       -1.13360102614846        0.94714328979201
C            6.20399028284454       -1.12104160941270        0.08397372212724
N            7.08421307044810       -2.21434241872269        0.03765240886806
C            6.72331985015414       -3.53302068571170       -0.15173888154251
C            5.46715081265119       -4.08463325377524       -0.36301809077028
C            5.38555785938212       -5.45038855169607       -0.55622267135261
C            6.52281833695407       -6.25595758763663       -0.54793962179960
C            7.77710610296859       -5.71098709569996       -0.35753994714714
C            7.88520895126033       -4.33985031447008       -0.16159119236121
C            8.99774254002756       -3.45393360813472        0.03906546234942
C           10.36984308977243       -3.64782756546718        0.13825959761548
C           11.17943974702519       -2.55092420541777        0.35686974195319
C           10.63612103275611       -1.27406276018368        0.48866764473116
C            9.27497347506566       -1.05554064447456        0.39425783450354
C            8.45790402646910       -2.15132533086906        0.15230958104362
C            6.41201499940207       -0.01502712248683       -0.73321614501610
C            5.54087316702044        1.05716239420017       -0.68724022971727
C            4.03000383502265        3.14528731154460        1.34565026053066
C            4.22394951405388        2.86188129764311        2.68092020864564
C            4.73846007285920        3.85405446945742        3.50545206306958
C            5.05661661854381        5.10518318053095        2.99872628743692
C            4.86872975006214        5.39442254920056        1.65648498297359
C            4.35510174720575        4.40823872494942        0.82982883722491
C            4.05900311362640        4.41804692581437       -0.59410975470816
C            4.18530958310705        5.42165526928503       -1.54108641334225
C            3.82307688019838        5.14889778291980       -2.85065531265505
C            3.34076081746576        3.89844901704781       -3.20741248808358
C            3.21001112322357        2.88993351544544       -2.26157532036515
C            3.57555392333324        3.15331755208597       -0.95852442547134
C            1.19052623397492        2.61648152228915        1.18899390024433
C           -0.14638277233350        2.28396161663550        1.29939270642758
C           -2.46930796501120       -0.52750078755861        0.94703128891787
C           -3.80209549540253       -0.86846506520417        1.04105204854208
H           -6.15710471668008       -2.60891417736199       -1.64420844650008
H           -3.86410480567559       -2.42042841703246       -2.54219640225127
H           -2.95682019859761       -0.21138620601872       -3.15989477375918
H           -4.34573289281072        1.80991768047346       -2.90561823659001
H           -6.65435366093987        1.61014630616992       -2.01409688271509
H           -7.18282476421495       -2.33777877738139        0.97009787347875
H           -7.83664297126946       -4.63008586812386        1.61720965204683
H           -9.65557526035115       -5.78024785155479        0.41435557016469
H          -10.83022651544240       -4.64049275651880       -1.43414278514973
H          -10.16736123538413       -2.33230203126962       -2.07086133401727
H          -10.13366154521455        1.30308035338447       -0.07487776520202
H          -10.16851689365820        2.81271380377990        1.90348289215765
H           -8.21897764465470        2.86976148227825        3.42074412671591
H           -6.26348081565488        1.43145588440653        2.98373137251542
H           -5.16425513317734        2.20944413075392        0.68218210156441
H           -2.79254951910664        2.80654803966731        0.54122369613182
H           -0.17045151361868       -0.47945071362182       -0.63319116732219
H            2.19568331076255        0.11047811586786       -0.83027947298287
H            3.39510101273224       -0.08897001501607        1.64925646239959
H            4.95786002500617       -1.98052525671993        1.59912709606427
H            4.58170165023447       -3.46742435595099       -0.38575760860704
H            4.41891320290339       -5.90414448430513       -0.72079778258041
H            6.41727000788582       -7.32016401938123       -0.70082062620372
H            8.65938559959587       -6.33375662495122       -0.36478476995568
H           10.79034553862936       -4.63865274254023        0.05028204966975
H           12.24911161624778       -2.68029825556984        0.43498595553914
H           11.29404266869057       -0.43715125155033        0.67345597707154
H            8.86163152839592       -0.06517935899173        0.51344490936124
H            7.25231641475360       -0.00294626234611       -1.41147025768761
H            5.71802620531551        1.90968836436260       -1.32602206867898
H            3.97961793922620        1.89031618160999        3.08384350606033
H            4.89294457935651        3.64763624265248        4.55465937008345
H            5.45667233393485        5.86202667251753        3.65819724468750
H            5.11909805907434        6.36894626317228        1.26401278823965
H            4.55850061603950        6.39707932809885       -1.26599643697400
H            3.91555999918404        5.91922434864100       -3.60280462078899
H            3.06276038055175        3.70627663212514       -4.23362707699398
H            2.83270902550772        1.91896895185106       -2.54614610879901
H            1.56462756195007        3.49265990121799        1.69845998535712
H           -0.79777924994991        2.89508101605560        1.90710863201712
H           -1.71834594113607       -1.29920806647163        1.02526058388117
H           -4.10537310972109       -1.89541044813890        1.17299848645001

          :  Hamiltonian                  GFN2-xTB          :
         :: gradient norm              0.000071185694 Eh/a0 ::
         :: HOMO-LUMO gap              2.756272086161 eV    ::
         :: SCC energy              -168.833445102586 Eh    ::
         :: -> dispersion             -0.162192072725 Eh    ::
         :: -> Gsolv                  -0.070466246127 Eh    ::
         :: repulsion energy           3.063136628258 Eh    ::

    * Orbital Energies and Occupations

         #    Occupation            Energy/Eh            Energy/eV
      -------------------------------------------------------------
         1        2.0000           -0.7346140             -19.9899
       ...           ...                  ...                  ...
       142        2.0000           -0.4109831             -11.1834
       143        2.0000           -0.4102766             -11.1642
       144        2.0000           -0.4069693             -11.0742
       145        2.0000           -0.4059414             -11.0462
       146        2.0000           -0.4042267             -10.9996
       147        2.0000           -0.4030198             -10.9667
       148        2.0000           -0.3992839             -10.8651
       149        2.0000           -0.3987220             -10.8498
       150        2.0000           -0.3962043             -10.7813
       151        2.0000           -0.3815242             -10.3818
       152        2.0000           -0.3775573             -10.2739
       153        2.0000           -0.3767070             -10.2507
       154        2.0000           -0.3607361              -9.8161 (HOMO)
       155                         -0.2594450              -7.0599 (LUMO)
       156                         -0.2540518              -6.9131
       157                         -0.2481939              -6.7537
       158                         -0.2461468              -6.6980
       159                         -0.2449709              -6.6660
       160                         -0.2417438              -6.5782
       161                         -0.2360136              -6.4223
       162                         -0.2346102              -6.3841
       163                         -0.2343314              -6.3765
       164                         -0.2332099              -6.3460
       165                         -0.2308958              -6.2830
       ...                                ...                  ...
       307                          1.1924892              32.4493
      -------------------------------------------------------------
                  HL-Gap            0.1012911 Eh            2.7563 eV

     #   Z          covCN         q      C6AA      α(0)
     1   8 O        0.808    -0.411    21.919     6.276
     2  15 P        4.071     0.072   157.061    22.512
     3   6 C        2.921     0.018    27.603     8.616
     4   6 C        2.968    -0.023    28.574     8.768
     5   6 C        2.921    -0.026    28.657     8.779
     6   6 C        2.920    -0.026    28.643     8.776
     7   6 C        2.919    -0.027    28.678     8.782
     8   6 C        3.036    -0.019    28.448     8.748
     9   6 C        2.920     0.012    27.748     8.638
    10   6 C        2.973    -0.027    28.670     8.783
    11   6 C        2.920    -0.027    28.678     8.782
    12   6 C        2.920    -0.024    28.598     8.770
    13   6 C        2.918    -0.027    28.676     8.781
    14   6 C        3.029    -0.020    28.471     8.752
    15   6 C        2.918    -0.012    28.323     8.727
    16   6 C        3.014    -0.021    28.499     8.757
    17   6 C        2.917    -0.034    28.855     8.809
    18   6 C        2.921    -0.025    28.632     8.775
    19   6 C        2.917    -0.053    29.309     8.878
    20   6 C        2.923     0.143    24.885     8.181
    21   8 O        1.709    -0.263    18.353     5.784
    22   6 C        2.868     0.138    24.983     8.193
    23   6 C        2.915    -0.058    29.448     8.899
    24   6 C        2.927    -0.034    28.848     8.808
    25   6 C        2.975     0.004    27.920     8.667
    26   6 C        2.976     0.008    27.828     8.653
    27   6 C        2.924    -0.036    28.890     8.814
    28   6 C        2.922    -0.035    28.869     8.811
    29   6 C        2.979     0.015    27.662     8.627
    30   6 C        3.946     0.008    20.372     6.414
    31   6 C        2.978     0.016    27.656     8.626
    32   6 C        2.924    -0.033    28.815     8.803
    33   6 C        2.921    -0.043    29.077     8.843
    34   6 C        2.912     0.061    26.628     8.462
    35   7 N        2.802    -0.047    22.147     6.990
    36   6 C        3.076     0.048    26.852     8.496
    37   6 C        2.909    -0.052    29.294     8.875
    38   6 C        2.924    -0.035    28.881     8.813
    39   6 C        2.919    -0.043    29.073     8.842
    40   6 C        2.912    -0.035    28.874     8.811
    41   6 C        3.067    -0.019    28.416     8.741
    42   6 C        3.067    -0.019    28.418     8.741
    43   6 C        2.912    -0.035    28.877     8.812
    44   6 C        2.919    -0.043    29.072     8.842
    45   6 C        2.924    -0.035    28.879     8.813
    46   6 C        2.909    -0.052    29.289     8.874
    47   6 C        3.076     0.048    26.852     8.496
    48   6 C        2.921    -0.043    29.069     8.842
    49   6 C        2.923    -0.035    28.860     8.810
    50   6 C        3.056     0.004    27.887     8.660
    51   6 C        2.914    -0.035    28.861     8.809
    52   6 C        2.922    -0.033    28.825     8.804
    53   6 C        2.921    -0.033    28.833     8.806
    54   6 C        2.914    -0.035    28.870     8.811
    55   6 C        3.034     0.000    27.989     8.678
    56   6 C        3.034     0.000    27.991     8.678
    57   6 C        2.914    -0.035    28.868     8.811
    58   6 C        2.921    -0.033    28.833     8.806
    59   6 C        2.922    -0.033    28.824     8.804
    60   6 C        2.914    -0.034    28.856     8.809
    61   6 C        3.057     0.004    27.889     8.661
    62   6 C        2.922    -0.036    28.895     8.815
    63   6 C        2.924    -0.035    28.880     8.813
    64   6 C        2.926    -0.034    28.837     8.807
    65   6 C        2.917    -0.052    29.301     8.877
    66   1 H        0.926     0.040     2.443     2.444
    67   1 H        0.926     0.046     2.368     2.406
    68   1 H        0.926     0.046     2.367     2.406
    69   1 H        0.926     0.043     2.411     2.428
    70   1 H        0.925     0.035     2.519     2.482
    71   1 H        0.926     0.056     2.245     2.343
    72   1 H        0.926     0.046     2.377     2.411
    73   1 H        0.926     0.046     2.365     2.405
    74   1 H        0.926     0.044     2.401     2.423
    75   1 H        0.925     0.049     2.330     2.387
    76   1 H        0.926     0.057     2.233     2.337
    77   1 H        0.926     0.053     2.283     2.363
    78   1 H        0.926     0.056     2.241     2.341
    79   1 H        0.926     0.053     2.284     2.364
    80   1 H        0.926     0.033     2.541     2.493
    81   1 H        0.926     0.044     2.402     2.424
    82   1 H        0.926     0.036     2.500     2.472
    83   1 H        0.926     0.034     2.536     2.490
    84   1 H        0.926     0.042     2.426     2.436
    85   1 H        0.926     0.042     2.417     2.431
    86   1 H        0.926     0.030     2.587     2.515
    87   1 H        0.926     0.030     2.591     2.517
    88   1 H        0.926     0.027     2.631     2.537
    89   1 H        0.926     0.029     2.601     2.522
    90   1 H        0.926     0.029     2.597     2.520
    91   1 H        0.926     0.027     2.631     2.537
    92   1 H        0.926     0.029     2.601     2.522
    93   1 H        0.926     0.029     2.604     2.523
    94   1 H        0.926     0.041     2.438     2.442
    95   1 H        0.926     0.038     2.476     2.461
    96   1 H        0.926     0.032     2.559     2.501
    97   1 H        0.926     0.032     2.557     2.500
    98   1 H        0.926     0.032     2.563     2.504
    99   1 H        0.926     0.033     2.549     2.497
   100   1 H        0.926     0.033     2.549     2.497
   101   1 H        0.926     0.032     2.564     2.504
   102   1 H        0.926     0.032     2.557     2.501
   103   1 H        0.926     0.032     2.560     2.502
   104   1 H        0.926     0.031     2.573     2.508
   105   1 H        0.926     0.034     2.532     2.488
   106   1 H        0.926     0.048     2.346     2.395
   107   1 H        0.926     0.048     2.342     2.393

molecular dipole:
                 x           y           z       tot (Debye)
 q only:        1.024       0.159       1.456
   full:        1.026       0.272       1.573       4.822

 projected vibrational frequencies (cm⁻¹)
eigval :       -0.00    -0.00    -0.00     0.00     0.00     0.00
eigval :        6.37     8.40    12.83    14.79    17.51    22.97
eigval :       29.39    31.14    35.78    42.62    43.76    47.63
eigval :       48.51    52.64    57.20    61.12    66.35    73.60
eigval :       81.38    85.93    88.34    97.82   105.95   109.15
eigval :      131.56   137.78   141.23   144.71   156.29   167.70
eigval :      174.25   181.68   190.02   197.00   205.48   219.61
eigval :      229.47   235.86   243.21   251.54   269.49   271.95
eigval :      272.99   276.26   282.37   299.46   312.56   339.16
eigval :      354.14   359.76   361.12   365.18   374.94   381.40
eigval :      385.80   388.05   390.43   392.85   396.91   407.57
eigval :      409.55   414.23   416.09   422.70   429.30   437.66
eigval :      445.90   456.64   469.05   474.00   483.91   496.59
eigval :      503.86   508.92   516.22   519.16   523.62   533.86
eigval :      537.35   540.45   543.84   565.65   580.82   585.41
eigval :      585.58   588.32   590.31   596.02   601.02   607.62
eigval :      614.47   623.50   624.61   652.45   655.89   660.90
eigval :      664.34   674.31   675.08   676.20   684.63   692.96
eigval :      699.24   708.67   710.09   719.04   722.07   729.11
eigval :      738.11   744.17   746.20   754.29   757.06   767.46
eigval :      767.92   778.61   778.93   784.25   799.65   812.60
eigval :      820.15   830.89   864.79   866.37   867.30   871.32
eigval :      873.90   876.71   877.56   877.97   881.81   883.04
eigval :      883.87   896.15   900.53   900.98   901.96   902.44
eigval :      903.98   908.05   908.36   909.71   911.66   915.21
eigval :      918.51   920.30   921.61   922.61   925.51   925.63
eigval :      927.21   928.28   928.63   930.08   931.64   933.16
eigval :      935.16   937.51   938.39   955.40   971.03   975.34
eigval :      989.94  1006.71  1011.15  1017.40  1025.86  1051.50
eigval :     1068.35  1072.66  1074.48  1076.49  1077.98  1079.61
eigval :     1082.18  1084.04  1107.02  1111.35  1112.69  1117.05
eigval :     1119.80  1127.78  1131.83  1139.96  1142.90  1147.10
eigval :     1150.44  1152.82  1169.50  1173.37  1174.97  1174.99
eigval :     1175.16  1176.51  1177.79  1179.31  1182.61  1184.26
eigval :     1188.96  1190.00  1201.79  1203.51  1205.53  1208.68
eigval :     1216.52  1224.43  1226.02  1235.49  1235.87  1238.89
eigval :     1240.03  1249.19  1260.80  1267.09  1268.54  1270.49
eigval :     1271.93  1276.30  1283.98  1299.45  1302.24  1306.42
eigval :     1312.82  1316.26  1319.67  1319.87  1320.57  1324.11
eigval :     1324.97  1355.35  1360.65  1364.08  1365.57  1392.83
eigval :     1405.64  1413.93  1420.52  1421.39  1423.83  1426.97
eigval :     1427.56  1429.61  1431.05  1441.90  1449.55  1454.78
eigval :     1460.37  1468.60  1470.56  1474.39  1486.91  1490.85
eigval :     1503.35  1562.32  1566.80  1569.84  1573.94  1576.50
eigval :     1579.92  1580.82  1584.25  1584.48  1585.04  1587.19
eigval :     1587.67  1592.70  1595.13  1596.90  1597.30  1600.71
eigval :     1602.64  1605.14  1613.41  3043.27  3069.05  3069.52
eigval :     3069.77  3069.93  3070.03  3070.58  3071.92  3073.47
eigval :     3074.22  3075.39  3075.59  3075.76  3076.19  3076.42
eigval :     3077.17  3078.83  3080.76  3080.91  3081.08  3082.03
eigval :     3082.73  3083.09  3083.63  3083.90  3084.27  3084.82
eigval :     3086.43  3087.24  3089.15  3089.68  3090.15  3090.77
eigval :     3091.12  3091.50  3092.41  3092.59  3093.62  3095.14
eigval :     3099.04  3101.66  3111.27

   temp. (K)  partition function   enthalpy   heat capacity  entropy
                                   cal/mol     cal/K/mol   cal/K/mol   J/K/mol
 298.15  VIB  0.868E+26            31574.160    195.918    199.254
         ROT  0.286E+09              888.752      2.981     41.678
         INT  0.248E+35            32462.912    198.899    240.932
         TR   0.241E+29             1481.254      4.968     46.083
         TOT                       33944.1661   203.8668   287.0151  1200.8712

       T/K    H(0)-H(T)+PV         H(T)/Eh          T*S/Eh         G(T)/Eh
   ------------------------------------------------------------------------
    298.15    0.540935E-01    0.875781E+00    0.136370E+00    0.739411E+00
   ------------------------------------------------------------------------

         :::::::::::::::::::::::::::::::::::::::::::::::::::::
         ::                  THERMODYNAMIC                  ::
         :::::::::::::::::::::::::::::::::::::::::::::::::::::
         :: total free energy        -165.030897495455 Eh   ::
         ::.................................................::
         :: total energy             -165.770308473073 Eh   ::
         :: zero point energy           0.821687648159 Eh   ::
         :: G(RRHO) w/o ZPVE           -0.082276670542 Eh   ::
         :: G(RRHO) contrib.            0.739410977617 Eh   ::
         :::::::::::::::::::::::::::::::::::::::::::::::::::::

           -------------------------------------------------
          | TOTAL ENERGY             -165.770308473073 Eh   |
          | TOTAL ENTHALPY           -164.894527353045 Eh   |
          | TOTAL FREE ENERGY        -165.030897495455 Eh   |
          | GRADIENT NORM               0.000071179205 Eh/α |
          | HOMO-LUMO GAP               2.756271542134 eV   |
           -------------------------------------------------

 * finished run on 2025/09/07 at 00:54:25.530
