   * xtb version 6.7.1 (edcfbbe) compiled by 'albert@albert-system' on 2024-07-22

   ID    Z sym.   atoms
    1    6 C      1-28
    2    1 H      29-56

          program call               : xtb data2507/gas/HPVAnt/HPVAnt_gas_S0_crest.xyz --gfn 2 --ohess vtight --parallel 40 --molden --ceasefiles --namespace data2507/gas/HPVAnt/HPVAnt_gas_S0_finalOpt
          :  Hamiltonian                  GFN2-xTB          :
 * total energy  :   -74.2283585 Eh     change       -0.2280331E-08 Eh
 * total energy  :   -74.2283598 Eh     change       -0.1257619E-05 Eh
 * total energy  :   -74.2283619 Eh     change       -0.2137931E-05 Eh
 * total energy  :   -74.2283635 Eh     change       -0.1541337E-05 Eh
 * total energy  :   -74.2283646 Eh     change       -0.1099537E-05 Eh
 * total energy  :   -74.2283654 Eh     change       -0.8244971E-06 Eh
 * total energy  :   -74.2283662 Eh     change       -0.8306919E-06 Eh
 * total energy  :   -74.2283675 Eh     change       -0.1258873E-05 Eh
 * total energy  :   -74.2283692 Eh     change       -0.1698685E-05 Eh
 * total energy  :   -74.2283707 Eh     change       -0.1536161E-05 Eh
 * total energy  :   -74.2283898 Eh     change       -0.4078006E-06 Eh
 * total energy  :   -74.2283902 Eh     change       -0.4218007E-06 Eh
 * total energy  :   -74.2283907 Eh     change       -0.4278675E-06 Eh
 * total energy  :   -74.2283911 Eh     change       -0.4107893E-06 Eh
 * total energy  :   -74.2283915 Eh     change       -0.4184298E-06 Eh
 * total energy  :   -74.2283920 Eh     change       -0.5050344E-06 Eh
 * total energy  :   -74.2283927 Eh     change       -0.7328643E-06 Eh
 * total energy  :   -74.2283938 Eh     change       -0.1055702E-05 Eh
 * total energy  :   -74.2283938 Eh     change       -0.2821125E-08 Eh
   *** GEOMETRY OPTIMIZATION CONVERGED AFTER 44 ITERATIONS ***

 final structure:
================
56
 xtb: 6.7.1 (edcfbbe)
C           -7.55103526345045        4.43684775657614        1.35463387132620
C           -6.89497775431373        3.43080254974970        0.41706565564724
C           -7.39863404733178        2.01052836727481        0.66244308417532
C           -6.73700202595232        0.99985135784891       -0.27057405628777
C           -7.23146451566231       -0.42171649118059       -0.01841613899025
C           -6.56478022279973       -1.44329465816292       -0.95055553655421
C           -5.08756059211744       -1.52105259279809       -0.70082683151869
C           -4.59346097508959       -2.21536114980639        0.39787423377329
C           -3.24063693635685       -2.25058107036678        0.66238003543605
C           -2.32417733924424       -1.58324809437157       -0.15636058047201
C           -0.91559316081963       -1.63159227340098        0.18358262414157
C            0.05750351010709       -0.89173376898311       -0.36927344033842
C            1.46232657566566       -0.91005085961870       -0.01808560857729
C            2.01715199913591       -1.86812647633637        0.87748312147628
C            3.33585592611379       -1.85175868530109        1.19735919915639
C            4.21641677068107       -0.87836666328585        0.65610278335053
C            5.56790968612373       -0.83498810423137        0.97579697088333
C            6.41436256210014        0.13018564068640        0.43328197476177
C            7.79392506506474        0.18921754818186        0.75299468661856
C            8.59804020161982        1.14388746206447        0.20929027515962
C            8.07011508609430        2.09675798116281       -0.68747392451422
C            6.75050353551244        2.07345846857525       -1.02006076702371
C            5.87869455983595        1.09604930797350       -0.47573847289204
C            4.52512423019525        1.05023129251748       -0.79718541235219
C            3.67844223683736        0.08689107001366       -0.25241341337077
C            2.30208972445722        0.03255245285286       -0.56515542082495
C           -2.82562982279806       -0.90069868733857       -1.26728269840968
C           -4.17972098972228       -0.87317873359551       -1.53052892151692
H           -7.33814826702536        4.18631060522631        2.39168513600141
H           -7.17972680930970        5.44059965428152        1.16106034163425
H           -8.63043772040690        4.43790913532587        1.21838389531215
H           -5.81182469447746        3.45648020116741        0.55712595704649
H           -7.10076200800363        3.71228354827841       -0.61835132308521
H           -7.19486430771996        1.73107386541995        1.69898650460931
H           -8.48187572333451        1.98231634867697        0.51988063519121
H           -5.65438755751192        1.03464277867927       -0.12885714675529
H           -6.94519117571367        1.27642835281651       -1.30723394989024
H           -7.02480164695075       -0.69567062917536        1.01862441760922
H           -8.31351033524356       -0.46021251891998       -0.16517918949668
H           -7.01710351883450       -2.42303499831732       -0.77840295780710
H           -6.75267161382639       -1.15801863713267       -1.98760876425053
H           -5.28075026167932       -2.73594980013260        1.05023478341378
H           -2.87933136516064       -2.79620752143138        1.52326782751469
H           -0.67465697807886       -2.31948495665290        0.98357328254255
H           -0.19661044387110       -0.17627027404667       -1.14061107705712
H            1.37558569106996       -2.62577011026209        1.30008743838978
H            3.74393910979125       -2.58731476971075        1.87663134158729
H            5.97298784633266       -1.56570811992661        1.66283605679315
H            8.19326723710884       -0.54301377699292        1.44066604018246
H            9.64852727507978        1.18225714969071        0.45857124564489
H            8.72745010153908        2.84493686096800       -1.10622471841789
H            6.34067444298775        2.80113475262225       -1.70636314322089
H            4.12059096900402        1.78105256469573       -1.48433081206489
H            1.90812277023413        0.76936557189685       -1.25244752180549
H           -2.15026470861398       -0.39268808380240       -1.93860077413294
H           -4.54236727187321       -0.33845185974117       -2.39735301914759

          :  Hamiltonian                  GFN2-xTB          :
         :: gradient norm              0.000054021798 Eh/a0 ::
         :: HOMO-LUMO gap              2.031854415523 eV    ::
         :: SCC energy               -75.606652603757 Eh    ::
         :: -> dispersion             -0.057848360216 Eh    ::
         :: repulsion energy           1.378258818949 Eh    ::

    * Orbital Energies and Occupations

         #    Occupation            Energy/Eh            Energy/eV
      -------------------------------------------------------------
         1        2.0000           -0.6484915             -17.6464
       ...           ...                  ...                  ...
        58        2.0000           -0.4258066             -11.5868
        59        2.0000           -0.4223301             -11.4922
        60        2.0000           -0.4198718             -11.4253
        61        2.0000           -0.4189484             -11.4002
        62        2.0000           -0.4162967             -11.3280
        63        2.0000           -0.4132744             -11.2458
        64        2.0000           -0.4100042             -11.1568
        65        2.0000           -0.4074276             -11.0867
        66        2.0000           -0.4038907             -10.9904
        67        2.0000           -0.4000176             -10.8850
        68        2.0000           -0.3978081             -10.8249
        69        2.0000           -0.3726457             -10.1402
        70        2.0000           -0.3554252              -9.6716 (HOMO)
        71                         -0.2807559              -7.6398 (LUMO)
        72                         -0.2559488              -6.9647
        73                         -0.2218002              -6.0355
        74                         -0.2171551              -5.9091
        75                         -0.2130650              -5.7978
        76                         -0.1821322              -4.9561
        77                         -0.1715023              -4.6668
        78                         -0.1429841              -3.8908
        79                         -0.0904144              -2.4603
        80                         -0.0712617              -1.9391
        81                         -0.0360140              -0.9800
       ...                                ...                  ...
       140                          0.7228898              19.6708
      -------------------------------------------------------------
                  HL-Gap            0.0746693 Eh            2.0319 eV

     #   Z          covCN         q      C6AA      α(0)
     1   6 C        3.752    -0.102    22.510     6.766
     2   6 C        3.801    -0.053    21.520     6.605
     3   6 C        3.803    -0.059    21.630     6.621
     4   6 C        3.803    -0.058    21.617     6.619
     5   6 C        3.804    -0.053    21.524     6.605
     6   6 C        3.808    -0.062    21.692     6.630
     7   6 C        2.970     0.014    27.699     8.633
     8   6 C        2.922    -0.038    28.945     8.823
     9   6 C        2.927    -0.036    28.897     8.816
    10   6 C        2.970     0.009    27.804     8.649
    11   6 C        2.901    -0.038    28.951     8.822
    12   6 C        2.903    -0.041    29.008     8.831
    13   6 C        2.965     0.014    27.707     8.634
    14   6 C        2.917    -0.034    28.849     8.808
    15   6 C        2.914    -0.036    28.901     8.816
    16   6 C        2.983     0.010    27.781     8.646
    17   6 C        2.921    -0.043    29.063     8.841
    18   6 C        2.983     0.012    27.748     8.641
    19   6 C        2.917    -0.035    28.871     8.811
    20   6 C        2.915    -0.030    28.750     8.792
    21   6 C        2.914    -0.030    28.747     8.792
    22   6 C        2.917    -0.035    28.874     8.812
    23   6 C        2.982     0.012    27.744     8.640
    24   6 C        2.922    -0.043    29.076     8.843
    25   6 C        2.980     0.011    27.764     8.643
    26   6 C        2.928    -0.042    29.039     8.837
    27   6 C        2.922    -0.036    28.888     8.814
    28   6 C        2.923    -0.038    28.952     8.824
    29   1 H        0.925     0.033     2.540     2.492
    30   1 H        0.925     0.033     2.545     2.495
    31   1 H        0.925     0.033     2.541     2.493
    32   1 H        0.924     0.029     2.601     2.522
    33   1 H        0.924     0.029     2.608     2.525
    34   1 H        0.924     0.029     2.597     2.520
    35   1 H        0.924     0.029     2.598     2.521
    36   1 H        0.924     0.032     2.558     2.501
    37   1 H        0.924     0.029     2.601     2.522
    38   1 H        0.924     0.032     2.556     2.500
    39   1 H        0.924     0.030     2.582     2.513
    40   1 H        0.924     0.037     2.496     2.471
    41   1 H        0.924     0.036     2.510     2.477
    42   1 H        0.926     0.028     2.613     2.528
    43   1 H        0.925     0.028     2.618     2.530
    44   1 H        0.925     0.034     2.530     2.488
    45   1 H        0.925     0.033     2.538     2.491
    46   1 H        0.926     0.032     2.560     2.502
    47   1 H        0.926     0.029     2.596     2.519
    48   1 H        0.925     0.030     2.580     2.512
    49   1 H        0.926     0.029     2.595     2.519
    50   1 H        0.926     0.028     2.611     2.527
    51   1 H        0.926     0.028     2.611     2.527
    52   1 H        0.926     0.029     2.594     2.519
    53   1 H        0.925     0.030     2.580     2.512
    54   1 H        0.925     0.029     2.595     2.519
    55   1 H        0.926     0.031     2.576     2.510
    56   1 H        0.926     0.028     2.608     2.526

molecular dipole:
                 x           y           z       tot (Debye)
 q only:       -0.335       0.013      -0.010
   full:       -0.327       0.016       0.007       0.831

 projected vibrational frequencies (cm⁻¹)
eigval :       -0.00    -0.00    -0.00     0.00     0.00     0.00
eigval :        6.22    13.21    24.33    33.56    40.15    48.19
eigval :       54.20    85.60    91.66   101.95   114.27   126.29
eigval :      144.91   155.93   163.73   187.94   214.88   229.04
eigval :      233.79   266.20   279.84   318.13   343.22   348.05
eigval :      364.17   371.33   388.67   402.30   414.84   432.40
eigval :      449.00   459.82   469.80   484.74   503.14   520.63
eigval :      552.16   583.67   588.93   595.26   612.03   654.65
eigval :      685.88   698.70   725.56   748.60   755.69   771.69
eigval :      775.16   784.64   798.14   808.65   810.37   819.79
eigval :      851.31   863.51   864.27   864.49   868.45   868.87
eigval :      873.74   873.92   888.65   908.65   913.46   914.78
eigval :      916.17   925.59   926.26   941.19   975.00   979.98
eigval :      986.54  1013.77  1032.66  1066.52  1070.86  1087.40
eigval :     1107.14  1117.46  1125.76  1140.77  1148.33  1164.99
eigval :     1169.89  1180.10  1182.75  1186.37  1198.82  1205.37
eigval :     1213.26  1221.38  1250.02  1253.01  1258.23  1265.65
eigval :     1267.97  1283.57  1284.54  1286.74  1292.07  1295.12
eigval :     1310.96  1318.03  1322.76  1331.14  1333.03  1341.83
eigval :     1347.15  1363.79  1378.75  1410.99  1415.98  1416.32
eigval :     1421.32  1438.45  1449.21  1476.77  1482.54  1489.44
eigval :     1496.49  1497.81  1499.45  1502.42  1504.84  1507.80
eigval :     1531.72  1543.11  1568.52  1579.42  1590.23  1602.66
eigval :     1620.36  1641.79  2954.07  2958.81  2964.21  2965.86
eigval :     2972.50  2973.98  2978.34  2979.69  2984.77  2988.48
eigval :     3029.68  3032.02  3037.44  3052.43  3058.91  3061.43
eigval :     3062.37  3064.11  3066.09  3067.70  3068.42  3069.06
eigval :     3070.65  3075.47  3079.09  3088.86  3092.08  3095.90

   temp. (K)  partition function   enthalpy   heat capacity  entropy
                                   cal/mol     cal/K/mol   cal/K/mol   J/K/mol
 298.15  VIB  0.860E+12            14422.362     89.204     91.347
         ROT  0.328E+08              888.752      2.981     37.373
         INT  0.282E+20            15311.115     92.185    128.720
         TR   0.673E+28             1481.254      4.968     43.554
         TOT                       16792.3684    97.1530   172.2737   720.7930

       T/K    H(0)-H(T)+PV         H(T)/Eh          T*S/Eh         G(T)/Eh
   ------------------------------------------------------------------------
    298.15    0.267603E-01    0.493462E+00    0.818528E-01    0.411610E+00
   ------------------------------------------------------------------------

         :::::::::::::::::::::::::::::::::::::::::::::::::::::
         ::                  THERMODYNAMIC                  ::
         :::::::::::::::::::::::::::::::::::::::::::::::::::::
         :: total free energy         -73.816784144886 Eh   ::
         ::.................................................::
         :: total energy              -74.228393784808 Eh   ::
         :: zero point energy           0.466702070595 Eh   ::
         :: G(RRHO) w/o ZPVE           -0.055092430674 Eh   ::
         :: G(RRHO) contrib.            0.411609639922 Eh   ::
         :::::::::::::::::::::::::::::::::::::::::::::::::::::

           -------------------------------------------------
          | TOTAL ENERGY              -74.228393784808 Eh   |
          | TOTAL ENTHALPY            -73.734931371735 Eh   |
          | TOTAL FREE ENERGY         -73.816784144886 Eh   |
          | GRADIENT NORM               0.000054021786 Eh/α |
          | HOMO-LUMO GAP               2.031854404850 eV   |
           -------------------------------------------------

 * finished run on 2025/09/13 at 05:54:04.402
