   * xtb version 6.7.1 (edcfbbe) compiled by 'albert@albert-system' on 2024-07-22

   ID    Z sym.   atoms
    1    6 C      1-28
    2    1 H      29-56

          program call               : xtb data2507/gas/HPVAnt/HPVAnt.xyz --gfn 2 --ohess vtight --parallel 40 --molden --ceasefiles --namespace data2507/gas/HPVAnt/HPVAnt_gas_S0_preOpt
          :  Hamiltonian                  GFN2-xTB          :
 * total energy  :   -74.2151785 Eh     change       -0.3358366E-08 Eh
 * total energy  :   -74.2220154 Eh     change       -0.6836819E-02 Eh
 * total energy  :   -74.2238098 Eh     change       -0.1794482E-02 Eh
 * total energy  :   -74.2243692 Eh     change       -0.5593575E-03 Eh
 * total energy  :   -74.2250116 Eh     change       -0.6424349E-03 Eh
 * total energy  :   -74.2253036 Eh     change       -0.2919725E-03 Eh
 * total energy  :   -74.2256470 Eh     change       -0.3433518E-03 Eh
 * total energy  :   -74.2258666 Eh     change       -0.2196430E-03 Eh
 * total energy  :   -74.2260406 Eh     change       -0.1740080E-03 Eh
 * total energy  :   -74.2261357 Eh     change       -0.9509158E-04 Eh
 * total energy  :   -74.2266920 Eh     change       -0.2378471E-05 Eh
 * total energy  :   -74.2266936 Eh     change       -0.1631886E-05 Eh
 * total energy  :   -74.2266947 Eh     change       -0.1087125E-05 Eh
 * total energy  :   -74.2266954 Eh     change       -0.7665440E-06 Eh
 * total energy  :   -74.2266961 Eh     change       -0.6366982E-06 Eh
 * total energy  :   -74.2266967 Eh     change       -0.6073679E-06 Eh
 * total energy  :   -74.2266972 Eh     change       -0.5154379E-06 Eh
 * total energy  :   -74.2266977 Eh     change       -0.4576789E-06 Eh
 * total energy  :   -74.2266977 Eh     change       -0.6513872E-08 Eh
   *** GEOMETRY OPTIMIZATION CONVERGED AFTER 44 ITERATIONS ***

 final structure:
================
56
 xtb: 6.7.1 (edcfbbe)
C           -9.32995338796274       -1.54859005243132       -0.09536903300729
C           -8.21770270595533       -0.74938324022354        0.57313403927780
C           -8.07398673876606        0.63814729501124       -0.04811012773620
C           -7.07121534158752        1.53472720408530        0.67998838161653
C           -5.63542558961217        1.00986786654870        0.70837491005770
C           -5.02335803369590        0.84359023305075       -0.68819168932988
C           -3.57944743208097        0.45369704561002       -0.57915777963001
C           -3.20697578897848       -0.88216465409242       -0.48800723613279
C           -1.88165860579939       -1.23877192878267       -0.35185811324706
C           -0.87133253520876       -0.27327146984348       -0.30183729851909
C            0.50454211883749       -0.70937405624252       -0.16918046456247
C            1.59356744303005        0.07471316955930       -0.17055599134367
C            2.97064987569350       -0.35619452792975       -0.04909218953079
C            3.33607203042836       -1.71776642516621        0.15310293007512
C            4.63681909945211       -2.09028800000602        0.25637862114704
C            5.68812024574640       -1.14031892468036        0.16672253575501
C            7.02718738119512       -1.49790844564045        0.26426606852503
C            8.04335002973347       -0.54842712051974        0.17316672173176
C            9.41349885327699       -0.89849701405641        0.26800063027827
C           10.38608714628400        0.04970420968759        0.17511337773368
C           10.04603093481740        1.40544450419085       -0.01759530219716
C            8.74161152025011        1.78210328630167       -0.11359119520874
C            7.69810016562495        0.82577471753337       -0.02306471750813
C            6.35617934893965        1.18293923788487       -0.11999624769464
C            5.34041428194648        0.23313772224936       -0.03124155019321
C            3.97508024304515        0.58079994695340       -0.13189981709837
C           -1.25407101318202        1.06820638862486       -0.38620694115369
C           -2.58097888088022        1.41953894376157       -0.52014502976985
H           -9.41512820285780       -2.53651361889594        0.35162627056433
H          -10.28545617854613       -1.03967887403884        0.01331453183326
H           -9.12740974533674       -1.66919124246292       -1.15770114177354
H           -7.27949490771288       -1.29804249458793        0.47605869717932
H           -8.43469593669994       -0.64616394727827        1.63896829336796
H           -7.78842893483129        0.53776380726426       -1.09691116626931
H           -9.04873785852457        1.13276002911013       -0.02562051273644
H           -7.40701696179679        1.67017586361989        1.71139550993809
H           -7.07574071560533        2.51770599179410        0.20156543564774
H           -5.02137025839594        1.71524981734010        1.27439367533700
H           -5.59636526282982        0.05432105817658        1.23374923521292
H           -5.56782349254720        0.07393824494997       -1.23686806405805
H           -5.11526673706296        1.78641773252169       -1.23198904952485
H           -3.96661136094742       -1.65050317685589       -0.52908516965592
H           -1.61544319238519       -2.28488603928767       -0.28692821013440
H            0.62004981873735       -1.78106239340777       -0.07236962256941
H            1.47484129890847        1.14462833761130       -0.28202689190544
H            2.56148163272476       -2.46494596631301        0.22871325884898
H            4.89870995137413       -3.12791568620147        0.41046606372645
H            7.28804071298558       -2.53703631026702        0.41336220460724
H            9.66857411481043       -1.93852272160037        0.41569283232125
H           11.42824165560644       -0.22554774601078        0.24787777818600
H           10.83499665851439        2.14014649868015       -0.08805576415325
H            8.47539042476847        2.81929734978666       -0.26133873683705
H            6.09592415261333        2.22218759002838       -0.26882046961099
H            3.72692391424502        1.62297383002608       -0.28292572045929
H           -0.50774758754132        1.84660628049992       -0.34484227768012
H           -2.85163966625904        2.46439887436095       -0.58485048173847

          :  Hamiltonian                  GFN2-xTB          :
         :: gradient norm              0.000062212000 Eh/a0 ::
         :: HOMO-LUMO gap              2.025478510632 eV    ::
         :: SCC energy               -75.604873216482 Eh    ::
         :: -> dispersion             -0.058040817784 Eh    ::
         :: repulsion energy           1.378175548685 Eh    ::

    * Orbital Energies and Occupations

         #    Occupation            Energy/Eh            Energy/eV
      -------------------------------------------------------------
         1        2.0000           -0.6483492             -17.6425
       ...           ...                  ...                  ...
        58        2.0000           -0.4247605             -11.5583
        59        2.0000           -0.4227962             -11.5049
        60        2.0000           -0.4191644             -11.4060
        61        2.0000           -0.4182985             -11.3825
        62        2.0000           -0.4160736             -11.3219
        63        2.0000           -0.4126210             -11.2280
        64        2.0000           -0.4099717             -11.1559
        65        2.0000           -0.4071780             -11.0799
        66        2.0000           -0.4037658             -10.9870
        67        2.0000           -0.4000765             -10.8866
        68        2.0000           -0.3977212             -10.8225
        69        2.0000           -0.3723131             -10.1312
        70        2.0000           -0.3551551              -9.6643 (HOMO)
        71                         -0.2807201              -7.6388 (LUMO)
        72                         -0.2560464              -6.9674
        73                         -0.2216530              -6.0315
        74                         -0.2170298              -5.9057
        75                         -0.2128436              -5.7918
        76                         -0.1816689              -4.9435
        77                         -0.1713619              -4.6630
        78                         -0.1424366              -3.8759
        79                         -0.0902291              -2.4553
        80                         -0.0701850              -1.9098
        81                         -0.0357332              -0.9724
       ...                                ...                  ...
       140                          0.7233113              19.6823
      -------------------------------------------------------------
                  HL-Gap            0.0744350 Eh            2.0255 eV

     #   Z          covCN         q      C6AA      α(0)
     1   6 C        3.752    -0.102    22.504     6.765
     2   6 C        3.800    -0.052    21.511     6.604
     3   6 C        3.802    -0.058    21.625     6.621
     4   6 C        3.801    -0.057    21.606     6.618
     5   6 C        3.803    -0.052    21.509     6.603
     6   6 C        3.808    -0.062    21.690     6.630
     7   6 C        2.971     0.012    27.754     8.641
     8   6 C        2.922    -0.039    28.968     8.826
     9   6 C        2.928    -0.036    28.898     8.816
    10   6 C        2.970     0.009    27.806     8.649
    11   6 C        2.901    -0.038    28.950     8.822
    12   6 C        2.903    -0.041    29.007     8.831
    13   6 C        2.965     0.014    27.706     8.634
    14   6 C        2.917    -0.034    28.847     8.808
    15   6 C        2.914    -0.036    28.902     8.816
    16   6 C        2.983     0.010    27.781     8.646
    17   6 C        2.921    -0.043    29.063     8.841
    18   6 C        2.983     0.012    27.748     8.641
    19   6 C        2.917    -0.035    28.871     8.811
    20   6 C        2.915    -0.030    28.750     8.793
    21   6 C        2.914    -0.030    28.747     8.792
    22   6 C        2.917    -0.035    28.874     8.812
    23   6 C        2.982     0.012    27.744     8.640
    24   6 C        2.922    -0.043    29.076     8.843
    25   6 C        2.979     0.011    27.764     8.643
    26   6 C        2.929    -0.042    29.038     8.837
    27   6 C        2.922    -0.035    28.876     8.812
    28   6 C        2.923    -0.039    28.968     8.826
    29   1 H        0.925     0.032     2.556     2.500
    30   1 H        0.925     0.032     2.557     2.501
    31   1 H        0.925     0.032     2.556     2.500
    32   1 H        0.924     0.031     2.572     2.508
    33   1 H        0.924     0.028     2.611     2.527
    34   1 H        0.924     0.032     2.562     2.503
    35   1 H        0.924     0.029     2.599     2.521
    36   1 H        0.924     0.030     2.589     2.516
    37   1 H        0.924     0.029     2.596     2.520
    38   1 H        0.924     0.029     2.599     2.521
    39   1 H        0.924     0.033     2.541     2.493
    40   1 H        0.924     0.040     2.454     2.450
    41   1 H        0.924     0.035     2.510     2.478
    42   1 H        0.925     0.027     2.623     2.532
    43   1 H        0.925     0.028     2.616     2.529
    44   1 H        0.925     0.034     2.532     2.489
    45   1 H        0.925     0.033     2.542     2.493
    46   1 H        0.926     0.032     2.561     2.502
    47   1 H        0.926     0.029     2.596     2.520
    48   1 H        0.925     0.030     2.581     2.512
    49   1 H        0.926     0.029     2.595     2.519
    50   1 H        0.926     0.028     2.611     2.527
    51   1 H        0.926     0.028     2.611     2.527
    52   1 H        0.926     0.029     2.594     2.519
    53   1 H        0.925     0.030     2.580     2.512
    54   1 H        0.925     0.029     2.596     2.520
    55   1 H        0.926     0.031     2.575     2.509
    56   1 H        0.925     0.028     2.612     2.527

molecular dipole:
                 x           y           z       tot (Debye)
 q only:       -0.383       0.046       0.003
   full:       -0.371       0.049       0.011       0.951

 projected vibrational frequencies (cm⁻¹)
eigval :       -0.00    -0.00    -0.00    -0.00     0.00     0.00
eigval :        3.95    14.59    19.57    22.50    33.88    37.28
eigval :       57.54    69.46    84.75    88.16   103.30   139.08
eigval :      161.66   175.13   194.11   209.54   218.52   231.43
eigval :      243.80   257.96   289.38   310.70   334.48   347.83
eigval :      368.41   370.98   388.59   390.96   419.62   432.47
eigval :      449.38   467.01   482.07   490.56   501.78   517.37
eigval :      554.58   585.37   589.20   596.37   612.43   656.90
eigval :      686.06   698.83   725.57   748.68   756.81   772.05
eigval :      780.71   790.68   801.59   805.53   812.68   822.80
eigval :      850.86   851.10   862.38   864.06   866.22   868.28
eigval :      873.69   873.95   890.46   895.22   911.58   914.15
eigval :      916.07   923.94   926.27   933.79   965.74   974.76
eigval :      985.99  1019.16  1032.31  1039.01  1070.86  1089.23
eigval :     1099.13  1128.27  1140.77  1143.66  1148.25  1164.99
eigval :     1168.97  1169.99  1180.15  1182.77  1199.27  1205.07
eigval :     1221.82  1224.11  1250.44  1252.93  1257.56  1267.73
eigval :     1269.72  1281.82  1285.26  1288.36  1291.28  1295.86
eigval :     1311.17  1312.44  1326.99  1332.30  1342.39  1348.25
eigval :     1355.32  1361.24  1374.51  1411.11  1416.37  1417.35
eigval :     1421.30  1438.60  1449.11  1476.92  1485.32  1488.57
eigval :     1496.05  1497.89  1501.85  1504.05  1505.89  1508.78
eigval :     1531.52  1543.11  1568.79  1579.10  1589.73  1602.63
eigval :     1620.28  1641.33  2955.92  2957.64  2961.92  2969.17
eigval :     2973.34  2976.50  2985.86  2988.64  2992.98  2997.12
eigval :     3027.76  3030.83  3036.45  3052.87  3058.82  3060.93
eigval :     3062.45  3064.11  3066.12  3067.46  3068.06  3068.56
eigval :     3070.76  3074.64  3079.13  3088.81  3093.01  3096.93

   temp. (K)  partition function   enthalpy   heat capacity  entropy
                                   cal/mol     cal/K/mol   cal/K/mol   J/K/mol
 298.15  VIB  0.308E+13            14404.939     88.492     91.699
         ROT  0.252E+08              888.752      2.981     36.849
         INT  0.775E+20            15293.691     91.473    128.548
         TR   0.673E+28             1481.254      4.968     43.554
         TOT                       16774.9451    96.4415   172.1017   720.0734

       T/K    H(0)-H(T)+PV         H(T)/Eh          T*S/Eh         G(T)/Eh
   ------------------------------------------------------------------------
    298.15    0.267326E-01    0.493595E+00    0.817711E-01    0.411824E+00
   ------------------------------------------------------------------------

         :::::::::::::::::::::::::::::::::::::::::::::::::::::
         ::                  THERMODYNAMIC                  ::
         :::::::::::::::::::::::::::::::::::::::::::::::::::::
         :: total free energy         -73.814873787905 Eh   ::
         ::.................................................::
         :: total energy              -74.226697667797 Eh   ::
         :: zero point energy           0.466862359960 Eh   ::
         :: G(RRHO) w/o ZPVE           -0.055038480069 Eh   ::
         :: G(RRHO) contrib.            0.411823879891 Eh   ::
         :::::::::::::::::::::::::::::::::::::::::::::::::::::

           -------------------------------------------------
          | TOTAL ENERGY              -74.226697667797 Eh   |
          | TOTAL ENTHALPY            -73.733102731185 Eh   |
          | TOTAL FREE ENERGY         -73.814873787905 Eh   |
          | GRADIENT NORM               0.000062187817 Eh/α |
          | HOMO-LUMO GAP               2.025478493105 eV   |
           -------------------------------------------------

 * finished run on 2025/09/13 at 05:44:44.982
