   * xtb version 6.7.1 (edcfbbe) compiled by 'albert@albert-system' on 2024-07-22

   ID    Z sym.   atoms
    1    6 C      1-28
    2    1 H      29-56

          program call               : xtb data2507/gas/HPVAnt/HPVAnt_gas_S0_finalOpt.xtbopt.xyz --gfn 2 --spinpol --tblite --uhf 2 --ohess vtight --parallel 40 --molden --ceasefiles --namespace data2507/gas/HPVAnt/HPVAnt_gas_T1_preOpt
 * total energy  :   -74.1584605 Eh     change       -0.5456513E-08 Eh
 * total energy  :   -74.1640178 Eh     change       -0.5557368E-02 Eh
 * total energy  :   -74.1652942 Eh     change       -0.1276354E-02 Eh
 * total energy  :   -74.1653708 Eh     change       -0.7659456E-04 Eh
 * total energy  :   -74.1653998 Eh     change       -0.2906329E-04 Eh
 * total energy  :   -74.1654079 Eh     change       -0.8085725E-05 Eh
 * total energy  :   -74.1654158 Eh     change       -0.7892423E-05 Eh
 * total energy  :   -74.1654289 Eh     change       -0.1307035E-04 Eh
 * total energy  :   -74.1654416 Eh     change       -0.1271548E-04 Eh
 * total energy  :   -74.1654523 Eh     change       -0.1074076E-04 Eh
 * total energy  :   -74.1655976 Eh     change       -0.3456470E-06 Eh
 * total energy  :   -74.1655975 Eh     change        0.1399046E-06 Eh
 * total energy  :   -74.1655977 Eh     change       -0.2065028E-06 Eh
 * total energy  :   -74.1655979 Eh     change       -0.2539427E-06 Eh
 * total energy  :   -74.1655982 Eh     change       -0.2420779E-06 Eh
 * total energy  :   -74.1655984 Eh     change       -0.1945048E-06 Eh
 * total energy  :   -74.1655987 Eh     change       -0.3493661E-06 Eh
 * total energy  :   -74.1655987 Eh     change        0.5904909E-08 Eh
 * total energy  :   -74.1655987 Eh     change       -0.1363878E-07 Eh
   *** GEOMETRY OPTIMIZATION CONVERGED AFTER 69 ITERATIONS ***

 final structure:
================
56
 xtb: 6.7.1 (edcfbbe)
C           -7.68479335264196        4.28199066339053        1.63338353386868
C           -6.98100604786386        3.38369235812748        0.62379482604839
C           -7.47405991812754        1.94090232460144        0.70378754367894
C           -6.76204121820722        1.03705725506961       -0.29913400583235
C           -7.24649382841071       -0.40749566365953       -0.21296958933246
C           -6.52662731531500       -1.32312935219414       -1.21423387911501
C           -5.06202460532704       -1.41230371496854       -0.90852768471213
C           -4.60486507585241       -2.21608775304824        0.13378037018702
C           -3.26904471339904       -2.26194145516859        0.45809019536628
C           -2.31840227177550       -1.49729374062350       -0.24176371302313
C           -0.94595813724158       -1.56239721182748        0.15823918121848
C            0.08513981402649       -0.83098739518210       -0.36235615855660
C            1.44156976974477       -0.86952881504346        0.04315233785586
C            1.94658843017540       -1.71772629379906        1.04260284099898
C            3.27055043422292       -1.69595027869001        1.39885264807464
C            4.19593976737424       -0.81810126239306        0.78238956685709
C            5.53412626656304       -0.77837966947993        1.13830942647251
C            6.45547417799714        0.10882368843772        0.51598539427109
C            7.79951673034568        0.15197660144707        0.87666567966962
C            8.67999963108217        1.03082207256762        0.25200173716438
C            8.22500715940941        1.87817576686308       -0.74329184917672
C            6.89152475958157        1.85619662718537       -1.12264763248872
C            5.98254962008463        0.98102948836169       -0.50939982300352
C            4.62451233861388        0.93832583131319       -0.87207323210241
C            3.70916554151239        0.05583325795883       -0.24649802213727
C            2.37098255345753        0.01388003506111       -0.59348616878638
C           -2.78841474829868       -0.70214740149500       -1.30021584363572
C           -4.12680295749276       -0.66562749427072       -1.62054169271040
H           -7.50823561977099        3.92767125321216        2.64671266043966
H           -7.31895386968065        5.30345370129057        1.55858024290182
H           -8.75817054255576        4.28789517242252        1.45595129930859
H           -5.90421400750796        3.40546383973241        0.80698894199392
H           -7.15218364755150        3.76772550301796       -0.38460171392136
H           -7.30700673548126        1.55962764901869        1.71410979851841
H           -8.55038253901465        1.91649620442799        0.51554901437545
H           -5.68653541632040        1.06788768803258       -0.11009911795252
H           -6.93254316389219        1.41596405357894       -1.30999818748816
H           -7.07944280945337       -0.78328252046069        0.79898663317769
H           -8.32067895161457       -0.44188341249651       -0.40957615454322
H           -6.97320788551838       -2.31911449985394       -1.16130257152427
H           -6.67421255373604       -0.93515337572884       -2.22409708697331
H           -5.31348386126055       -2.81155172235123        0.69260098199396
H           -2.93683465885083       -2.89203656451801        1.27148977558103
H           -0.73943205344130       -2.25220421468862        0.96558508815801
H           -0.13317175896115       -0.13112199009817       -1.15847856359747
H            1.28189377874701       -2.40507276109599        1.54336053147846
H            3.63277165212548       -2.35985066500334        2.17121236534321
H            5.89875270721586       -1.43755303725538        1.91387188206692
H            8.15876287541349       -0.50806371332657        1.65347238713340
H            9.71866989278663        1.04869092511109        0.54711863526098
H            8.90896966067650        2.55983879063804       -1.22746004316085
H            6.53750640497234        2.51842841899507       -1.89966571454334
H            4.26527468507528        1.59851932702002       -1.64849843111242
H            2.00648265708106        0.67356894177991       -1.36867395887808
H           -2.09564303369962       -0.10912792985957       -1.87692413174519
H           -4.46113201781414       -0.04402798037882       -2.43953954821799

 projected vibrational frequencies (cm⁻¹)
eigval :       -0.00    -0.00    -0.00    -0.00     0.00     0.00
eigval :        8.47    13.43    25.94    37.24    40.27    47.86
eigval :       54.97    84.39    96.73   103.52   117.81   126.31
eigval :      147.91   159.32   166.90   197.44   212.82   232.39
eigval :      233.68   261.15   274.59   289.34   337.61   345.37
eigval :      351.81   369.43   384.33   392.38   398.71   408.01
eigval :      423.78   465.64   466.78   482.08   491.82   515.33
eigval :      542.84   561.90   573.84   582.36   609.32   656.51
eigval :      675.63   684.27   700.30   734.68   750.04   752.49
eigval :      768.84   773.35   777.20   790.97   797.07   803.75
eigval :      808.44   814.90   818.58   845.87   851.70   861.64
eigval :      867.21   868.68   885.36   886.34   893.51   907.70
eigval :      908.31   910.98   923.23   932.83   940.93   966.40
eigval :      978.89  1006.75  1029.71  1042.08  1065.52  1086.62
eigval :     1088.53  1106.90  1116.37  1125.28  1125.65  1143.29
eigval :     1150.86  1171.51  1179.80  1184.01  1185.88  1203.79
eigval :     1212.83  1216.06  1222.07  1245.79  1254.30  1256.04
eigval :     1256.94  1262.01  1265.57  1278.26  1283.28  1285.43
eigval :     1291.60  1303.71  1317.44  1321.85  1328.05  1340.42
eigval :     1349.40  1356.77  1362.96  1378.14  1402.64  1412.06
eigval :     1415.08  1415.68  1430.60  1444.62  1454.48  1480.99
eigval :     1481.69  1488.75  1491.57  1496.10  1498.81  1501.92
eigval :     1504.49  1505.88  1507.54  1527.05  1540.85  1543.70
eigval :     1562.45  1594.20  2954.03  2958.88  2963.32  2965.90
eigval :     2972.16  2973.36  2977.75  2979.21  2984.20  2988.24
eigval :     3029.68  3032.04  3037.43  3054.48  3061.97  3064.52
eigval :     3066.07  3068.37  3069.22  3069.73  3071.21  3072.42
eigval :     3075.08  3076.11  3080.97  3091.03  3092.05  3094.83

   temp. (K)  partition function   enthalpy   heat capacity  entropy
                                   cal/mol     cal/K/mol   cal/K/mol   J/K/mol
 298.15  VIB  0.579E+12            14609.754     90.927     91.820
         ROT  0.327E+08              888.752      2.981     37.364
         INT  0.189E+20            15498.506     93.908    129.183
         TR   0.673E+28             1481.254      4.968     43.554
         TOT                       16979.7600    98.8757   172.7371   722.7321

       T/K    H(0)-H(T)+PV         H(T)/Eh          T*S/Eh         G(T)/Eh
   ------------------------------------------------------------------------
    298.15    0.270590E-01    0.489981E+00    0.820730E-01    0.407908E+00
   ------------------------------------------------------------------------

         :::::::::::::::::::::::::::::::::::::::::::::::::::::
         ::                  THERMODYNAMIC                  ::
         :::::::::::::::::::::::::::::::::::::::::::::::::::::
         :: total free energy         -73.757690483180 Eh   ::
         ::.................................................::
         :: total energy              -74.165598714390 Eh   ::
         :: zero point energy           0.462922242674 Eh   ::
         :: G(RRHO) w/o ZPVE           -0.055014011465 Eh   ::
         :: G(RRHO) contrib.            0.407908231209 Eh   ::
         :::::::::::::::::::::::::::::::::::::::::::::::::::::

           -------------------------------------------------
          | TOTAL ENERGY              -74.165598714390 Eh   |
          | TOTAL ENTHALPY            -73.675617501806 Eh   |
          | TOTAL FREE ENERGY         -73.757690483180 Eh   |
          | GRADIENT NORM               0.000077938962 Eh/α |
           -------------------------------------------------

 * finished run on 2025/09/13 at 05:54:09.149
