   * xtb version 6.7.1 (edcfbbe) compiled by 'albert@albert-system' on 2024-07-22

   ID    Z sym.   atoms
    1    6 C      1-28
    2    1 H      29-56

          program call               : xtb data2507/gas/HPVAnt/HPVAnt_gas_T1_crest.xyz --gfn 2 --spinpol --tblite --uhf 2 --ohess vtight --parallel 40 --molden --ceasefiles --namespace data2507/gas/HPVAnt/HPVAnt_gas_T1_finalOpt
 * total energy  :   -74.1655876 Eh     change        0.4223254E-07 Eh
 * total energy  :   -74.1656310 Eh     change       -0.4343747E-04 Eh
 * total energy  :   -74.1656597 Eh     change       -0.2868524E-04 Eh
 * total energy  :   -74.1656637 Eh     change       -0.4020959E-05 Eh
 * total energy  :   -74.1656660 Eh     change       -0.2289099E-05 Eh
 * total energy  :   -74.1656665 Eh     change       -0.4954212E-06 Eh
 * total energy  :   -74.1656668 Eh     change       -0.2403021E-06 Eh
 * total energy  :   -74.1656672 Eh     change       -0.4596884E-06 Eh
 * total energy  :   -74.1656677 Eh     change       -0.4994899E-06 Eh
 * total energy  :   -74.1656678 Eh     change       -0.1170903E-06 Eh
 * total energy  :   -74.1656686 Eh     change       -0.4960083E-06 Eh
 * total energy  :   -74.1656692 Eh     change       -0.5194848E-06 Eh
 * total energy  :   -74.1656696 Eh     change       -0.4835174E-06 Eh
 * total energy  :   -74.1656701 Eh     change       -0.4708603E-06 Eh
 * total energy  :   -74.1656705 Eh     change       -0.3804665E-06 Eh
 * total energy  :   -74.1656708 Eh     change       -0.2551630E-06 Eh
 * total energy  :   -74.1656709 Eh     change       -0.1105673E-06 Eh
 * total energy  :   -74.1656710 Eh     change       -0.1423727E-06 Eh
 * total energy  :   -74.1656711 Eh     change       -0.4235589E-07 Eh
   *** GEOMETRY OPTIMIZATION CONVERGED AFTER 20 ITERATIONS ***

 final structure:
================
56
 xtb: 6.7.1 (edcfbbe)
C           -8.51396285695314        4.05019319070609        0.18901914862628
C           -7.86640993087558        2.74543949234477        0.63614944322984
C           -7.78086183790121        1.73291678569858       -0.50330104419009
C           -7.12650895713220        0.42651812813355       -0.06173374091588
C           -7.04119343215812       -0.58295198630747       -1.20295601528196
C           -6.38072146296428       -1.89874670360161       -0.76702980254614
C           -4.95119352665117       -1.68678118055128       -0.36877090489257
C           -4.56997793506796       -1.63897981824451        0.96938022434880
C           -3.26079325570719       -1.40526696235536        1.32391944481484
C           -2.26282697557549       -1.20549082235924        0.35395997130235
C           -0.91960505395409       -0.96204031210454        0.78280589888355
C            0.16392592892173       -0.74424751067982       -0.02212293152479
C            1.49441999416468       -0.49920508241520        0.39704862735563
C            1.90498798734939       -0.44498007899153        1.73950583406733
C            3.21055825506870       -0.20118216121709        2.08022348531185
C            4.21189331961981        0.00864297303639        1.10030635552656
C            5.53422449764943        0.25720515388669        1.42975255643845
C            6.53304249279696        0.46726001994172        0.43907863520037
C            7.86195880150231        0.71786460968564        0.77008073939972
C            8.81978388712165        0.92009522566531       -0.21958223918995
C            8.45821634290328        0.87369187537540       -1.55478955666726
C            7.14184062603703        0.62597001876216       -1.91301434735946
C            6.15629957345999        0.41879237450709       -0.93625755602200
C            4.81373550555511        0.16606736795568       -1.26997608414614
C            3.82163392196109       -0.04189727849652       -0.27972744376260
C            2.49930937021934       -0.28968765066750       -0.60095832242114
C           -2.65821972472389       -1.25998869291176       -0.99368023486072
C           -3.96911283576331       -1.49461249362543       -1.33879348399437
H           -8.56541151663944        4.75590995571732        1.01491632496042
H           -7.93949925402941        4.50462601861494       -0.61536850519517
H           -9.52429422894990        3.87051490003972       -0.17242443297714
H           -8.44525026414985        2.31601439800027        1.45722904912435
H           -6.86098405445293        2.94881757607815        1.01193179918806
H           -8.78656397448630        1.52669226138160       -0.87829026486366
H           -7.20448657071293        2.16463928212322       -1.32515473164357
H           -7.70253649945710       -0.00513382521453        0.76065772994115
H           -6.12089631720816        0.63463246573093        0.31098002612670
H           -8.04666675685336       -0.79665934575223       -1.57329268019881
H           -6.46746669885777       -0.14907470866551       -2.02489536227222
H           -6.94135442444518       -2.32061085698361        0.06956465544150
H           -6.42610757878542       -2.60530628290364       -1.59969967649882
H           -5.31472883737747       -1.78799990242829        1.73869411465273
H           -2.98793342933128       -1.37216071087205        2.36958582270943
H           -0.78022107505084       -0.95376923999893        1.85558025019911
H            0.01738721631788       -0.75348104383737       -1.09437490565738
H            1.18025409407929       -0.59794708304465        2.52454884788150
H            3.49901073696358       -0.16477054364634        3.12135955376373
H            5.82582562488112        0.29488971867574        2.47018608520384
H            8.14829984860655        0.75486675541103        1.81161028385007
H            9.84523107253982        1.11321890420037        0.05864084873220
H            9.20218516418068        1.03074864367878       -2.32208321169940
H            6.86092505253274        0.59003344072520       -2.95581848397570
H            4.52747868701815        0.12918337811496       -2.31134305276625
H            2.20780207561188       -0.32716142465911       -1.64143735504840
H           -1.92756350053556       -1.11781084157215       -1.77481892763604
H           -4.24620719291433       -1.53454071498358       -2.38325240117290

 projected vibrational frequencies (cm⁻¹)
eigval :       -0.00    -0.00    -0.00    -0.00     0.00     0.00
eigval :        7.83    14.81    24.83    38.12    40.50    46.92
eigval :       52.25    83.52    96.20   103.41   120.99   126.14
eigval :      139.01   158.87   178.33   197.57   209.88   232.53
eigval :      233.60   259.59   274.36   290.58   336.93   343.31
eigval :      351.17   369.84   384.27   390.10   398.57   411.42
eigval :      424.02   465.23   467.72   480.88   491.96   515.51
eigval :      542.35   561.94   573.78   581.81   609.09   656.45
eigval :      675.56   683.81   700.37   734.84   750.21   752.71
eigval :      768.82   773.23   777.12   791.11   797.63   803.75
eigval :      807.54   815.48   818.79   846.05   851.09   861.46
eigval :      867.31   868.06   886.41   886.51   893.48   906.83
eigval :      908.47   911.09   922.99   933.80   941.00   965.51
eigval :      978.77  1006.88  1030.38  1041.41  1065.86  1086.70
eigval :     1088.40  1106.79  1116.83  1125.38  1125.75  1143.12
eigval :     1151.35  1171.44  1179.72  1184.01  1186.00  1204.17
eigval :     1212.82  1215.71  1221.68  1245.58  1254.49  1255.97
eigval :     1256.93  1264.00  1264.72  1277.36  1282.62  1284.48
eigval :     1291.07  1302.51  1318.41  1323.95  1328.95  1337.55
eigval :     1350.92  1356.52  1362.86  1378.09  1402.43  1411.98
eigval :     1415.31  1415.52  1430.70  1444.53  1454.35  1480.34
eigval :     1481.85  1488.55  1491.32  1495.63  1498.40  1501.36
eigval :     1504.41  1505.80  1507.05  1527.08  1540.88  1543.62
eigval :     1562.33  1594.01  2953.87  2958.71  2961.26  2965.88
eigval :     2971.81  2973.24  2977.54  2979.12  2984.03  2988.21
eigval :     3029.47  3031.99  3037.26  3054.23  3062.26  3064.57
eigval :     3066.06  3067.29  3068.76  3069.66  3071.03  3072.35
eigval :     3074.95  3076.67  3080.83  3090.85  3092.21  3094.36

   temp. (K)  partition function   enthalpy   heat capacity  entropy
                                   cal/mol     cal/K/mol   cal/K/mol   J/K/mol
 298.15  VIB  0.620E+12            14615.715     90.876     91.872
         ROT  0.316E+08              888.752      2.981     37.296
         INT  0.196E+20            15504.468     93.856    129.168
         TR   0.673E+28             1481.254      4.968     43.554
         TOT                       16985.7216    98.8246   172.7218   722.6682

       T/K    H(0)-H(T)+PV         H(T)/Eh          T*S/Eh         G(T)/Eh
   ------------------------------------------------------------------------
    298.15    0.270685E-01    0.489954E+00    0.820657E-01    0.407889E+00
   ------------------------------------------------------------------------

         :::::::::::::::::::::::::::::::::::::::::::::::::::::
         ::                  THERMODYNAMIC                  ::
         :::::::::::::::::::::::::::::::::::::::::::::::::::::
         :: total free energy         -73.757782568816 Eh   ::
         ::.................................................::
         :: total energy              -74.165671111668 Eh   ::
         :: zero point energy           0.462885791753 Eh   ::
         :: G(RRHO) w/o ZPVE           -0.054997248901 Eh   ::
         :: G(RRHO) contrib.            0.407888542852 Eh   ::
         :::::::::::::::::::::::::::::::::::::::::::::::::::::

           -------------------------------------------------
          | TOTAL ENERGY              -74.165671111668 Eh   |
          | TOTAL ENTHALPY            -73.675716849623 Eh   |
          | TOTAL FREE ENERGY         -73.757782568816 Eh   |
          | GRADIENT NORM               0.000043019325 Eh/α |
           -------------------------------------------------

 * finished run on 2025/09/13 at 06:02:17.439
