   * xtb version 6.7.1 (edcfbbe) compiled by 'albert@albert-system' on 2024-07-22

   ID    Z sym.   atoms
    1    7 N      1, 7, 15, 23, 27
    2    6 C      2-6, 8-14, 16-22, 24-26, 28-40, 42
    3   16 S      41
    4    1 H      43-63

          program call               : xtb data2507/toluene/BTITrz/BTITrz.xyz --gfn 2 --gbsa toluene --ohess vtight --parallel 40 --molden --ceasefiles --namespace data2507/toluene/BTITrz/BTITrz_toluene_S0_preOpt
      * Solvation model:               GBSA
        Solvent                        toluene
        Solvent mass                       9.2140E+01 g/mol
          :  Hamiltonian                  GFN2-xTB          :
 * total energy  :  -105.6949295 Eh     change       -0.4203926E-08 Eh
 * total energy  :  -105.7108072 Eh     change       -0.1587768E-01 Eh
 * total energy  :  -105.7134301 Eh     change       -0.2622972E-02 Eh
 * total energy  :  -105.7148446 Eh     change       -0.1414464E-02 Eh
 * total energy  :  -105.7164040 Eh     change       -0.1559441E-02 Eh
 * total energy  :  -105.7169690 Eh     change       -0.5649272E-03 Eh
 * total energy  :  -105.7172547 Eh     change       -0.2857444E-03 Eh
 * total energy  :  -105.7174054 Eh     change       -0.1507163E-03 Eh
 * total energy  :  -105.7174750 Eh     change       -0.6960411E-04 Eh
 * total energy  :  -105.7174973 Eh     change       -0.2228648E-04 Eh
 * total energy  :  -105.7175858 Eh     change       -0.1026523E-05 Eh
 * total energy  :  -105.7175867 Eh     change       -0.9178066E-06 Eh
 * total energy  :  -105.7175874 Eh     change       -0.6949944E-06 Eh
 * total energy  :  -105.7175879 Eh     change       -0.5291869E-06 Eh
 * total energy  :  -105.7175884 Eh     change       -0.4212450E-06 Eh
 * total energy  :  -105.7175887 Eh     change       -0.3752803E-06 Eh
 * total energy  :  -105.7175891 Eh     change       -0.3412131E-06 Eh
 * total energy  :  -105.7175894 Eh     change       -0.3304470E-06 Eh
 * total energy  :  -105.7175894 Eh     change       -0.7631314E-08 Eh
   *** GEOMETRY OPTIMIZATION CONVERGED AFTER 44 ITERATIONS ***

 final structure:
================
63
 xtb: 6.7.1 (edcfbbe)
N            2.11952808065765        3.65207041553232       -0.73699103652999
C            1.68892163360159        2.64381917999729       -0.39846129675727
C            1.10678950883952        1.40219391551998       -0.05506314752055
C           -0.27817202029468        1.28210790970377       -0.12353348240031
C           -0.89025508755115        0.05463284861289        0.09574966901141
C           -2.34941145882040       -0.06030576995988        0.02430591945327
N           -3.04289153747127        1.03645761796798       -0.26147819218512
C           -4.36656138132772        0.88844322811567       -0.31751345644485
C           -5.17651937746407        2.06288870956792       -0.63502571643176
C           -6.56841927186800        1.97260708885413       -0.64696862670461
C           -7.33205617627890        3.08388289650439       -0.94754938770620
C           -6.71714404320460        4.29212363933006       -1.23999130819310
C           -5.33372224127674        4.38845014397622       -1.23019538374878
C           -4.56423302884686        3.28117929060217       -0.92931962530008
N           -4.99141303429002       -0.26558893019249       -0.09988166772138
C           -4.21886241183690       -1.31085399194180        0.18331006351098
C           -4.86458079356045       -2.59701724167373        0.43808690394854
C           -6.25121403409774       -2.71687544451501        0.34507897413760
C           -6.85956411572791       -3.93238517417614        0.59204610903436
C           -6.09355397278285       -5.03728171277237        0.93249421279880
C           -4.71438219377484       -4.92500297488553        1.02538311440037
C           -4.09973374885607       -3.71242592566437        0.77964556403624
N           -2.88849348555340       -1.25284088729871        0.25183753225394
C           -0.10118940444179       -1.06512059659162        0.36834211724779
C            1.27003888512813       -0.95360061694055        0.44698419409444
C            1.89605224877000        0.27803832138691        0.25722199867188
N            3.27981340318258        0.37692552906248        0.34863764346112
C            4.02094200927676        1.34912373367603        1.01884359684204
C            3.58331591976630        2.35745264546064        1.86183447574327
C            4.53778001124054        3.17115451980482        2.44223153336473
C            5.89679433197146        2.97595480724652        2.20571132541525
C            6.34249089306166        1.94561675317615        1.40366559894439
C            5.40314025734224        1.11107292872935        0.80770631818927
C            5.48753484193826       -0.05544459540460       -0.01685328391951
C            6.43442797027595       -0.90100240585695       -0.67123527911492
C            7.82624324159003       -0.84594138464000       -0.70709133994145
C            8.52824741254713       -1.79606677912668       -1.41948444535149
C            7.86659494561687       -2.81135327922573       -2.10418905451550
C            6.48610971489301       -2.88836997439471       -2.08861515156828
C            5.78173565572301       -1.93455439312553       -1.37681008996182
S            4.02299978430232       -1.86382316757217       -1.24410564661393
C            4.18672148916929       -0.46667259638423       -0.23896582020840
H           -0.88448101139259        2.14231321821973       -0.36132930224681
H           -7.02937332991946        1.02497910726432       -0.41628222586328
H           -8.40930452844306        3.00994120782679       -0.95481534552069
H           -7.31606797114414        5.15927703049173       -1.47544531399985
H           -4.85492522384127        5.32913750416092       -1.45835371302085
H           -3.48699009933801        3.33936384635422       -0.91878537492900
H           -6.83116346184400       -1.84742681529551        0.07797016311587
H           -7.93332236894021       -4.02046906400324        0.51900002118559
H           -6.57157529251138       -5.98624044414613        1.12534863579085
H           -4.11853143663454       -5.78568991472345        1.29043094266583
H           -3.02841529448158       -3.60735325485279        0.84875965336694
H           -0.58564886099067       -2.01527509778259        0.52496500923952
H            1.87404778467223       -1.81964568422755        0.67008682396903
H            2.53433268763908        2.50567560465492        2.06963873002788
H            4.22153538552164        3.97014026205754        3.09544419821565
H            6.61194337330692        3.63590927463244        2.67350149498504
H            7.39709187044113        1.78187574529776        1.24776585389789
H            8.34131806675122       -0.06013822195461       -0.17731986203202
H            9.60691393354221       -1.75318226099122       -1.44732239470322
H            8.43430993817185       -3.54606579035378       -2.65473236450777
H            5.96446141986399       -3.67079553311883       -2.61832305535835

          :  Hamiltonian                  GFN2-xTB          :
         :: gradient norm              0.000075943848 Eh/a0 ::
         :: HOMO-LUMO gap              1.746364852450 eV    ::
         :: SCC energy              -107.632147788708 Eh    ::
         :: -> dispersion             -0.088770310974 Eh    ::
         :: -> Gsolv                  -0.051680995585 Eh    ::
         :: repulsion energy           1.914558380492 Eh    ::

    * Orbital Energies and Occupations

         #    Occupation            Energy/Eh            Energy/eV
      -------------------------------------------------------------
         1        2.0000           -0.7402828             -20.1441
       ...           ...                  ...                  ...
        86        2.0000           -0.4335095             -11.7964
        87        2.0000           -0.4306234             -11.7179
        88        2.0000           -0.4256757             -11.5832
        89        2.0000           -0.4193876             -11.4121
        90        2.0000           -0.4193306             -11.4106
        91        2.0000           -0.4169098             -11.3447
        92        2.0000           -0.4165399             -11.3346
        93        2.0000           -0.4137595             -11.2590
        94        2.0000           -0.4071774             -11.0799
        95        2.0000           -0.3887870             -10.5794
        96        2.0000           -0.3873123             -10.5393
        97        2.0000           -0.3829038             -10.4193
        98        2.0000           -0.3713303             -10.1044 (HOMO)
        99                         -0.3071525              -8.3580 (LUMO)
       100                         -0.2994057              -8.1472
       101                         -0.2887586              -7.8575
       102                         -0.2635382              -7.1712
       103                         -0.2519912              -6.8570
       104                         -0.2365137              -6.4359
       105                         -0.2364279              -6.4335
       106                         -0.2363996              -6.4328
       107                         -0.2327411              -6.3332
       108                         -0.2294931              -6.2448
       109                         -0.2255118              -6.1365
       ...                                ...                  ...
       194                          1.1456671              31.1752
      -------------------------------------------------------------
                  HL-Gap            0.0641778 Eh            1.7464 eV

     #   Z          covCN         q      C6AA      α(0)
     1   7 N        0.911    -0.254    26.594     7.459
     2   6 C        1.912     0.124    28.056     8.554
     3   6 C        2.972     0.005    27.902     8.664
     4   6 C        2.935    -0.016    28.413     8.742
     5   6 C        2.981    -0.006    28.172     8.707
     6   6 C        2.983     0.214    23.493     7.951
     7   7 N        1.844    -0.321    29.165     8.004
     8   6 C        2.979     0.216    23.455     7.944
     9   6 C        2.983    -0.009    28.246     8.718
    10   6 C        2.923    -0.025    28.627     8.774
    11   6 C        2.918    -0.026    28.658     8.779
    12   6 C        2.920    -0.021    28.521     8.758
    13   6 C        2.918    -0.026    28.660     8.779
    14   6 C        2.923    -0.025    28.624     8.774
    15   7 N        1.844    -0.314    28.996     7.980
    16   6 C        2.979     0.215    23.468     7.946
    17   6 C        2.983    -0.009    28.240     8.717
    18   6 C        2.923    -0.025    28.624     8.774
    19   6 C        2.918    -0.026    28.659     8.779
    20   6 C        2.920    -0.021    28.523     8.758
    21   6 C        2.918    -0.026    28.662     8.779
    22   6 C        2.923    -0.025    28.633     8.775
    23   7 N        1.844    -0.317    29.069     7.990
    24   6 C        2.922    -0.017    28.429     8.744
    25   6 C        2.920    -0.037    28.931     8.820
    26   6 C        2.914     0.078    26.264     8.404
    27   7 N        2.803    -0.038    21.981     6.963
    28   6 C        3.102     0.039    26.992     8.514
    29   6 C        2.909    -0.043    29.075     8.842
    30   6 C        2.924    -0.033    28.823     8.804
    31   6 C        2.920    -0.035    28.882     8.813
    32   6 C        2.912    -0.034    28.845     8.807
    33   6 C        3.087    -0.009    28.143     8.696
    34   6 C        3.186    -0.042    28.567     8.721
    35   6 C        3.094     0.002    27.859     8.651
    36   6 C        2.916    -0.035    28.868     8.811
    37   6 C        2.918    -0.033    28.819     8.803
    38   6 C        2.923    -0.034    28.838     8.806
    39   6 C        2.934    -0.037    28.924     8.820
    40   6 C        3.014     0.031    27.278     8.567
    41  16 S        2.173    -0.101   145.282    20.287
    42   6 C        3.134     0.066    26.303     8.395
    43   1 H        0.926     0.066     2.128     2.281
    44   1 H        0.926     0.053     2.285     2.364
    45   1 H        0.926     0.050     2.320     2.382
    46   1 H        0.926     0.052     2.295     2.369
    47   1 H        0.926     0.049     2.336     2.390
    48   1 H        0.926     0.049     2.338     2.391
    49   1 H        0.926     0.052     2.294     2.368
    50   1 H        0.926     0.049     2.329     2.387
    51   1 H        0.926     0.052     2.300     2.372
    52   1 H        0.926     0.049     2.327     2.386
    53   1 H        0.926     0.052     2.298     2.371
    54   1 H        0.926     0.074     2.041     2.234
    55   1 H        0.926     0.069     2.102     2.267
    56   1 H        0.926     0.026     2.650     2.545
    57   1 H        0.926     0.040     2.447     2.446
    58   1 H        0.926     0.041     2.430     2.437
    59   1 H        0.926     0.043     2.415     2.430
    60   1 H        0.926     0.043     2.408     2.427
    61   1 H        0.926     0.041     2.437     2.441
    62   1 H        0.926     0.041     2.429     2.437
    63   1 H        0.926     0.042     2.423     2.434

molecular dipole:
                 x           y           z       tot (Debye)
 q only:       -0.678      -1.145       0.468
   full:       -0.815      -1.386       0.572       4.338

 projected vibrational frequencies (cm⁻¹)
eigval :       -0.00    -0.00    -0.00     0.00     0.00     0.00
eigval :        6.89    15.96    21.24    28.13    37.99    43.33
eigval :       45.13    50.26    57.14    78.74    81.11    88.45
eigval :       91.01   115.07   121.56   131.05   149.56   158.54
eigval :      166.41   168.35   182.07   204.06   209.92   238.53
eigval :      259.18   283.84   299.56   303.78   312.07   353.38
eigval :      359.57   362.42   363.83   364.60   383.72   402.50
eigval :      405.32   411.43   412.35   419.89   432.88   439.31
eigval :      466.75   483.87   488.58   500.86   534.02   544.65
eigval :      557.56   577.90   586.42   586.83   591.31   596.55
eigval :      607.92   613.10   626.71   628.77   645.09   651.80
eigval :      668.37   672.53   673.35   674.80   689.52   694.24
eigval :      700.52   750.06   754.47   764.96   772.76   773.91
eigval :      775.02   795.72   839.10   846.64   859.87   869.75
eigval :      872.28   874.82   875.34   888.26   899.77   902.67
eigval :      909.36   909.62   912.07   918.52   922.04   922.54
eigval :      927.81   928.73   930.24   931.34   933.77   956.51
eigval :      983.22   988.75  1037.27  1048.22  1069.49  1073.12
eigval :     1073.72  1075.38  1087.54  1105.99  1107.16  1110.50
eigval :     1125.19  1149.28  1154.03  1164.86  1169.97  1173.75
eigval :     1174.93  1176.94  1183.65  1189.28  1198.67  1204.75
eigval :     1208.37  1224.33  1229.99  1238.33  1258.56  1265.98
eigval :     1267.79  1301.93  1321.14  1326.53  1328.20  1330.98
eigval :     1350.79  1351.25  1367.33  1369.61  1381.71  1385.36
eigval :     1407.02  1415.13  1418.84  1427.89  1429.65  1445.24
eigval :     1461.76  1470.20  1475.22  1480.81  1500.38  1502.72
eigval :     1512.49  1546.61  1565.25  1573.64  1580.16  1580.96
eigval :     1582.22  1588.53  1591.49  1592.48  1605.94  2361.50
eigval :     3078.74  3079.42  3080.11  3080.50  3084.03  3084.27
eigval :     3084.37  3086.56  3093.00  3093.30  3094.83  3095.75
eigval :     3100.22  3101.61  3103.35  3103.47  3104.79  3105.83
eigval :     3107.10  3107.99  3118.00

   temp. (K)  partition function   enthalpy   heat capacity  entropy
                                   cal/mol     cal/K/mol   cal/K/mol   J/K/mol
 298.15  VIB  0.201E+16            19256.726    119.349    120.947
         ROT  0.754E+08              888.752      2.981     39.027
         INT  0.151E+24            20145.479    122.330    159.973
         TR   0.127E+29             1481.254      4.968     44.810
         TOT                       21626.7325   127.2982   204.7830   856.8121

       T/K    H(0)-H(T)+PV         H(T)/Eh          T*S/Eh         G(T)/Eh
   ------------------------------------------------------------------------
    298.15    0.344644E-01    0.494147E+00    0.972990E-01    0.396848E+00
   ------------------------------------------------------------------------

         :::::::::::::::::::::::::::::::::::::::::::::::::::::
         ::                  THERMODYNAMIC                  ::
         :::::::::::::::::::::::::::::::::::::::::::::::::::::
         :: total free energy        -105.320741535094 Eh   ::
         ::.................................................::
         :: total energy             -105.717589412179 Eh   ::
         :: zero point energy           0.459682496494 Eh   ::
         :: G(RRHO) w/o ZPVE           -0.062834619408 Eh   ::
         :: G(RRHO) contrib.            0.396847877085 Eh   ::
         :::::::::::::::::::::::::::::::::::::::::::::::::::::

           -------------------------------------------------
          | TOTAL ENERGY             -105.717589412179 Eh   |
          | TOTAL ENTHALPY           -105.223442523748 Eh   |
          | TOTAL FREE ENERGY        -105.320741535094 Eh   |
          | GRADIENT NORM               0.000075917892 Eh/α |
          | HOMO-LUMO GAP               1.746365588697 eV   |
           -------------------------------------------------

 * finished run on 2025/09/07 at 04:52:37.220
