   * xtb version 6.7.1 (edcfbbe) compiled by 'albert@albert-system' on 2024-07-22

   ID    Z sym.   atoms
    1    7 N      1, 7, 15, 23, 27
    2    6 C      2-6, 8-14, 16-22, 24-26, 28-40, 42
    3   16 S      41
    4    1 H      43-63

          program call               : xtb data2507/toluene/BTITrz/BTITrz_toluene_T1_crest.xyz --gfn 2 --uhf 2 --gbsa toluene --ohess vtight --parallel 40 --molden --ceasefiles --namespace data2507/toluene/BTITrz/BTITrz_toluene_T1_finalOpt
      * Solvation model:               GBSA
        Solvent                        toluene
        Solvent mass                       9.2140E+01 g/mol
          :  Hamiltonian                  GFN2-xTB          :
 * total energy  :  -105.6417404 Eh     change       -0.3097745E-07 Eh
 * total energy  :  -105.6418551 Eh     change       -0.1146595E-03 Eh
 * total energy  :  -105.6418977 Eh     change       -0.4262644E-04 Eh
 * total energy  :  -105.6418941 Eh     change        0.3588691E-05 Eh
 * total energy  :  -105.6419061 Eh     change       -0.1197282E-04 Eh
 * total energy  :  -105.6419098 Eh     change       -0.3739756E-05 Eh
 * total energy  :  -105.6419119 Eh     change       -0.2055375E-05 Eh
 * total energy  :  -105.6419152 Eh     change       -0.3320616E-05 Eh
 * total energy  :  -105.6419166 Eh     change       -0.1366394E-05 Eh
 * total energy  :  -105.6419177 Eh     change       -0.1113111E-05 Eh
 * total energy  :  -105.6419218 Eh     change       -0.6028961E-06 Eh
 * total energy  :  -105.6419222 Eh     change       -0.4120279E-06 Eh
 * total energy  :  -105.6419225 Eh     change       -0.2625226E-06 Eh
 * total energy  :  -105.6419226 Eh     change       -0.1675731E-06 Eh
 * total energy  :  -105.6419228 Eh     change       -0.1524676E-06 Eh
 * total energy  :  -105.6419229 Eh     change       -0.1511876E-06 Eh
 * total energy  :  -105.6419231 Eh     change       -0.1819737E-06 Eh
 * total energy  :  -105.6419232 Eh     change       -0.1048870E-06 Eh
 * total energy  :  -105.6419232 Eh     change       -0.2365340E-08 Eh
   *** GEOMETRY OPTIMIZATION CONVERGED AFTER 22 ITERATIONS ***

 final structure:
================
63
 xtb: 6.7.1 (edcfbbe)
N            1.91660422376413        3.60286002957440       -0.78091907820167
C            1.44721545339767        2.61247006880921       -0.43417902058425
C            0.85132374503768        1.39357080517408       -0.05447853342132
C           -0.52269886782683        1.26975043401080       -0.13374871258414
C           -1.15811450023937        0.04738909389637        0.14579086468093
C           -2.56939866152399       -0.06599598684061        0.06867607667027
N           -3.31602745193496        1.01454617453357       -0.26831570302874
C           -4.61683433491237        0.87981325206731       -0.32479813294448
C           -5.43120781176731        2.03934292461819       -0.67911426782147
C           -4.82909501960522        3.26473377488917       -0.96833007179833
C           -5.60441306134869        4.35684557041173       -1.30398972846682
C           -6.98598630352874        4.24177491541646       -1.35614805835402
C           -7.59102729612053        3.02763058954182       -1.06875666277311
C           -6.82119419278343        1.93114851039580       -0.73251342030276
N           -5.25007515061919       -0.28147556453473       -0.07363372771982
C           -4.47038816682450       -1.32802112768671        0.25405331842569
C           -5.12250591779640       -2.60446736463517        0.53583453525749
C           -6.50984225593113       -2.72021670488784        0.44561054442107
C           -7.12516392536229       -3.92713485102670        0.71579181197580
C           -6.36668637862882       -5.03027625586236        1.07709339739653
C           -4.98647247329720       -4.92250831134330        1.16744788012391
C           -4.36526585611405       -3.71903645490220        0.89889942551070
N           -3.16578615481754       -1.25407431240904        0.33565925404422
C           -0.34578624653131       -1.06549013787419        0.49012668091036
C            1.01491293962161       -0.94396910843723        0.57347070887829
C            1.64499458794727        0.28116760044225        0.32624333877995
N            3.03772270751045        0.39510169311119        0.42370476054224
C            3.74804349026115        1.36265987921484        1.13979116202914
C            3.26987116968556        2.35730388680221        1.96960617589624
C            4.19822980327328        3.18522647206390        2.58642979168359
C            5.56509024451803        3.01464830949921        2.39031102822311
C            6.05257241152345        1.99901921493948        1.58998029529345
C            5.14257803310761        1.15102716259742        0.96206495215992
C            5.26669885197823        0.00391330343844        0.12872409708935
C            6.23177969654120       -0.83169065056664       -0.49318172851901
C            7.62748770932164       -0.77262414081768       -0.47273703893688
C            8.35890694953317       -1.71621708910812       -1.16567632960712
C            7.72507515794511       -2.72525929787973       -1.88256716985872
C            6.33897563645309       -2.80599341700562       -1.92169712045159
C            5.60683001756804       -1.86379225668596       -1.23197374791413
S            3.83389201751937       -1.79968058257797       -1.16453212278297
C            3.95158597215344       -0.41265928057006       -0.15456249149316
H           -1.12552126997017        2.11525553222652       -0.42879265457201
H           -3.75314723199901        3.33966540464289       -0.92463500704358
H           -5.13156847626463        5.30202338948725       -1.52716873047751
H           -7.58937739869299        5.09758615670198       -1.61987865653428
H           -8.66655504111545        2.93675792297285       -1.10818214772153
H           -7.27614418930993        0.97913791844365       -0.50597658611228
H           -7.08559001959177       -1.85246586587229        0.16254980189999
H           -8.19975302695416       -4.00941201095984        0.64445798183018
H           -6.84984647846146       -5.97275177478178        1.28808732911859
H           -4.39475296331568       -5.78125625734209        1.44854376852383
H           -3.29272300891975       -3.61908049140512        0.96540193639625
H           -0.83046849762365       -2.00691082900220        0.69109657607225
H            1.62148659826586       -1.79346273152530        0.85101021217284
H            2.21270887051033        2.48956014944229        2.14069033179583
H            3.84741393472526        3.97494694862089        3.23265517792975
H            6.25495365302382        3.68295791869552        2.88239992880248
H            7.11333821079055        1.85987567376166        1.45691620653784
H            8.11799792361914        0.00936535923075        0.08409027465413
H            9.43721101790272       -1.67180801827303       -1.15100587172745
H            8.31260252311238       -3.45540932473335       -2.41740501573808
H            5.84370505792104       -3.58597649152748       -2.47853291313510

          :  Hamiltonian                  GFN2-xTB          :
         :: gradient norm              0.000049201075 Eh/a0 ::
         :: HOMO-LUMO gap              0.298817527656 eV    ::
         :: SCC energy              -107.547004706668 Eh    ::
         :: -> dispersion             -0.088638294743 Eh    ::
         :: -> Gsolv                  -0.055542782051 Eh    ::
         :: repulsion energy           1.905081485695 Eh    ::

    * Orbital Energies and Occupations

         #    Occupation            Energy/Eh            Energy/eV
      -------------------------------------------------------------
         1        2.0000           -0.7506593             -20.4265
       ...           ...                  ...                  ...
        87        2.0000           -0.4251515             -11.5690
        88        2.0000           -0.4239470             -11.5362
        89        2.0000           -0.4201832             -11.4338
        90        2.0000           -0.4149976             -11.2927
        91        2.0000           -0.4146675             -11.2837
        92        2.0000           -0.4143674             -11.2755
        93        2.0000           -0.4106238             -11.1736
        94        2.0000           -0.4095397             -11.1441
        95        2.0000           -0.3904834             -10.6256
        96        1.7812           -0.3812541             -10.3745
        97        1.7558           -0.3811183             -10.3708
        98        1.4630           -0.3799041             -10.3377
        99        0.9969           -0.2984354              -8.1208 (HOMO)
       100        0.0031           -0.2874537              -7.8220 (LUMO)
       101                         -0.2734193              -7.4401
       102                         -0.2655960              -7.2272
       103                         -0.2508859              -6.8270
       104                         -0.2480659              -6.7502
       105                         -0.2441611              -6.6440
       106                         -0.2317327              -6.3058
       107                         -0.2317048              -6.3050
       108                         -0.2288280              -6.2267
       109                         -0.2268620              -6.1732
       110                         -0.2152827              -5.8581
       ...                                ...                  ...
       194                          1.1530333              31.3756
      -------------------------------------------------------------
                  HL-Gap            0.0109817 Eh            0.2988 eV

     #   Z          covCN         q      C6AA      α(0)
     1   7 N        0.911    -0.284    27.320     7.560
     2   6 C        1.914     0.119    28.175     8.572
     3   6 C        2.967    -0.001    28.061     8.689
     4   6 C        2.934    -0.026    28.644     8.777
     5   6 C        2.975    -0.018    28.450     8.749
     6   6 C        2.936     0.170    24.346     8.092
     7   7 N        1.845    -0.290    28.369     7.894
     8   6 C        2.934     0.209    23.589     7.965
     9   6 C        2.983    -0.008    28.204     8.712
    10   6 C        2.923    -0.028    28.696     8.785
    11   6 C        2.918    -0.028    28.701     8.785
    12   6 C        2.920    -0.025    28.637     8.776
    13   6 C        2.918    -0.028    28.700     8.785
    14   6 C        2.924    -0.028    28.691     8.784
    15   7 N        1.844    -0.323    29.220     8.011
    16   6 C        2.934     0.209    23.593     7.966
    17   6 C        2.983    -0.007    28.197     8.710
    18   6 C        2.924    -0.027    28.685     8.783
    19   6 C        2.918    -0.028    28.699     8.785
    20   6 C        2.920    -0.025    28.637     8.776
    21   6 C        2.918    -0.028    28.701     8.785
    22   6 C        2.923    -0.028    28.702     8.786
    23   7 N        1.845    -0.286    28.269     7.880
    24   6 C        2.919    -0.039    28.972     8.827
    25   6 C        2.913    -0.040    28.997     8.830
    26   6 C        2.914     0.034    27.238     8.558
    27   7 N        2.799    -0.018    21.588     6.901
    28   6 C        3.114     0.043    26.877     8.493
    29   6 C        2.908    -0.033    28.816     8.802
    30   6 C        2.924    -0.024    28.596     8.769
    31   6 C        2.918    -0.031    28.776     8.797
    32   6 C        2.911    -0.023    28.588     8.767
    33   6 C        3.075    -0.007    28.111     8.693
    34   6 C        3.181    -0.024    28.165     8.663
    35   6 C        3.079     0.008    27.747     8.636
    36   6 C        2.915    -0.025    28.636     8.775
    37   6 C        2.916    -0.028    28.701     8.785
    38   6 C        2.923    -0.023    28.571     8.766
    39   6 C        2.932    -0.030    28.761     8.795
    40   6 C        3.013     0.034    27.219     8.558
    41  16 S        2.156    -0.055   143.316    20.149
    42   6 C        3.130     0.073    26.173     8.376
    43   1 H        0.926     0.044     2.397     2.421
    44   1 H        0.926     0.042     2.422     2.434
    45   1 H        0.926     0.045     2.389     2.417
    46   1 H        0.926     0.047     2.355     2.400
    47   1 H        0.926     0.046     2.376     2.410
    48   1 H        0.926     0.047     2.354     2.399
    49   1 H        0.926     0.047     2.363     2.404
    50   1 H        0.926     0.045     2.384     2.414
    51   1 H        0.926     0.047     2.358     2.401
    52   1 H        0.926     0.045     2.378     2.411
    53   1 H        0.926     0.045     2.378     2.412
    54   1 H        0.926     0.048     2.350     2.397
    55   1 H        0.926     0.046     2.368     2.406
    56   1 H        0.926     0.038     2.474     2.460
    57   1 H        0.926     0.052     2.296     2.370
    58   1 H        0.926     0.054     2.274     2.358
    59   1 H        0.926     0.057     2.233     2.337
    60   1 H        0.926     0.058     2.224     2.332
    61   1 H        0.926     0.054     2.265     2.354
    62   1 H        0.926     0.056     2.248     2.345
    63   1 H        0.926     0.055     2.259     2.351

molecular dipole:
                 x           y           z       tot (Debye)
 q only:        2.926      -1.289       0.532
   full:        2.607      -1.520       0.633       7.838

 projected vibrational frequencies (cm⁻¹)
eigval :       -0.00    -0.00     0.00     0.00     0.00     0.00
eigval :       12.25    15.33    20.45    29.06    41.93    42.96
eigval :       45.39    48.81    54.46    76.41    80.37    87.40
eigval :       97.68   115.83   120.66   129.34   145.27   155.78
eigval :      163.09   166.39   195.36   203.26   215.72   232.93
eigval :      249.87   274.18   291.50   299.46   306.67   354.79
eigval :      356.60   364.98   367.55   370.47   375.69   389.34
eigval :      394.04   401.15   406.10   408.77   415.22   423.42
eigval :      440.78   476.82   479.11   488.96   530.29   538.97
eigval :      540.10   558.11   563.18   576.93   586.65   588.05
eigval :      589.94   599.20   606.44   609.09   617.15   635.37
eigval :      655.79   660.24   664.61   665.59   669.66   681.15
eigval :      690.92   694.91   732.41   754.43   759.79   763.42
eigval :      767.01   768.16   801.79   807.32   858.05   860.50
eigval :      862.91   870.15   870.97   873.22   896.47   900.57
eigval :      900.91   901.67   902.36   904.79   914.86   916.14
eigval :      918.13   924.22   926.98   927.82   928.29   932.02
eigval :      949.65   962.67   986.39   993.29  1023.64  1061.03
eigval :     1065.24  1072.71  1073.29  1074.19  1097.01  1105.49
eigval :     1107.79  1119.04  1141.37  1145.35  1159.51  1165.02
eigval :     1170.61  1173.72  1174.73  1178.99  1183.64  1184.57
eigval :     1197.14  1211.05  1218.04  1228.83  1248.76  1263.34
eigval :     1265.21  1269.19  1278.04  1291.54  1302.83  1322.77
eigval :     1328.06  1328.59  1341.55  1348.30  1361.00  1379.38
eigval :     1385.69  1392.90  1402.20  1413.10  1424.24  1429.31
eigval :     1435.11  1447.36  1453.09  1462.23  1463.10  1476.08
eigval :     1481.48  1492.89  1549.45  1550.53  1556.42  1573.42
eigval :     1574.43  1575.48  1580.34  1585.24  1589.94  2339.05
eigval :     3075.54  3075.77  3078.83  3079.41  3083.93  3088.83
eigval :     3088.93  3089.21  3089.73  3093.38  3095.05  3095.44
eigval :     3096.30  3097.29  3098.51  3099.88  3101.93  3103.72
eigval :     3108.23  3111.44  3112.09

   temp. (K)  partition function   enthalpy   heat capacity  entropy
                                   cal/mol     cal/K/mol   cal/K/mol   J/K/mol
 298.15  VIB  0.157E+16            19562.728    121.624    122.073
         ROT  0.757E+08              888.752      2.981     39.035
         INT  0.119E+24            20451.480    124.605    161.107
         TR   0.127E+29             1481.254      4.968     44.810
         TOT                       21932.7339   129.5732   205.9170   861.5565

       T/K    H(0)-H(T)+PV         H(T)/Eh          T*S/Eh         G(T)/Eh
   ------------------------------------------------------------------------
    298.15    0.349520E-01    0.489785E+00    0.978378E-01    0.391947E+00
   ------------------------------------------------------------------------

         :::::::::::::::::::::::::::::::::::::::::::::::::::::
         ::                  THERMODYNAMIC                  ::
         :::::::::::::::::::::::::::::::::::::::::::::::::::::
         :: total free energy        -105.249976445485 Eh   ::
         ::.................................................::
         :: total energy             -105.641923227927 Eh   ::
         :: zero point energy           0.454832536085 Eh   ::
         :: G(RRHO) w/o ZPVE           -0.062885753643 Eh   ::
         :: G(RRHO) contrib.            0.391946782442 Eh   ::
         :::::::::::::::::::::::::::::::::::::::::::::::::::::

           -------------------------------------------------
          | TOTAL ENERGY             -105.641923227927 Eh   |
          | TOTAL ENTHALPY           -105.152138655570 Eh   |
          | TOTAL FREE ENERGY        -105.249976445485 Eh   |
          | GRADIENT NORM               0.000047932183 Eh/α |
          | HOMO-LUMO GAP               0.298827068702 eV   |
           -------------------------------------------------

 * finished run on 2025/09/07 at 05:00:22.405
