   * xtb version 6.7.1 (edcfbbe) compiled by 'albert@albert-system' on 2024-07-22

   ID    Z sym.   atoms
    1    7 N      1, 7, 15, 23, 27
    2    6 C      2-6, 8-14, 16-22, 24-26, 28-40, 42
    3   16 S      41
    4    1 H      43-63

          program call               : xtb data2507/toluene/BTITrz/BTITrz_toluene_S0_crest.xyz --gfn 2 --gbsa toluene --ohess vtight --parallel 40 --molden --ceasefiles --namespace data2507/toluene/BTITrz/BTITrz_toluene_S0_finalOpt
      * Solvation model:               GBSA
        Solvent                        toluene
        Solvent mass                       9.2140E+01 g/mol
          :  Hamiltonian                  GFN2-xTB          :
 * total energy  :  -105.7174965 Eh     change       -0.4048431E-08 Eh
 * total energy  :  -105.7175338 Eh     change       -0.3731965E-04 Eh
 * total energy  :  -105.7175441 Eh     change       -0.1029438E-04 Eh
 * total energy  :  -105.7175443 Eh     change       -0.2354847E-06 Eh
 * total energy  :  -105.7175501 Eh     change       -0.5768570E-05 Eh
 * total energy  :  -105.7175518 Eh     change       -0.1756888E-05 Eh
 * total energy  :  -105.7175553 Eh     change       -0.3479892E-05 Eh
 * total energy  :  -105.7175582 Eh     change       -0.2864641E-05 Eh
 * total energy  :  -105.7175611 Eh     change       -0.2967360E-05 Eh
 * total energy  :  -105.7175642 Eh     change       -0.3085506E-05 Eh
 * total energy  :  -105.7176085 Eh     change       -0.5916433E-06 Eh
 * total energy  :  -105.7176089 Eh     change       -0.3894614E-06 Eh
 * total energy  :  -105.7176091 Eh     change       -0.2469826E-06 Eh
 * total energy  :  -105.7176093 Eh     change       -0.1637330E-06 Eh
 * total energy  :  -105.7176094 Eh     change       -0.1316503E-06 Eh
 * total energy  :  -105.7176096 Eh     change       -0.1314821E-06 Eh
 * total energy  :  -105.7176097 Eh     change       -0.1715477E-06 Eh
 * total energy  :  -105.7176100 Eh     change       -0.2617861E-06 Eh
 * total energy  :  -105.7176100 Eh     change       -0.1835062E-08 Eh
   *** GEOMETRY OPTIMIZATION CONVERGED AFTER 44 ITERATIONS ***

 final structure:
================
63
 xtb: 6.7.1 (edcfbbe)
N            1.82968154942355        3.62672256454961       -0.97928236103199
C            1.40971084682979        2.64713049358055       -0.55417232450900
C            0.84072167312927        1.43349672891778       -0.10501412533603
C           -0.54210523342764        1.28942707753787       -0.17384105697340
C           -1.14057641601710        0.07716917161763        0.14471101617686
C           -2.59725007329778       -0.06452879145275        0.07252941502752
N           -3.31074626231674        1.01595632338266       -0.22566395248908
C           -4.63155740090473        0.84274436636253       -0.27922556085936
C           -5.46436351058188        2.00031767359902       -0.59964989043703
C           -4.87873488356731        3.24194297597480       -0.84690207042152
C           -5.67016816180868        4.33312783593103       -1.14966363497508
C           -7.04901161912168        4.19725319135274       -1.20934236308901
C           -7.63752348719827        2.96570920268740       -0.96350439730112
C           -6.85188827146238        1.87057899097619       -0.66048914861405
N           -5.23433444155239       -0.32206748232758       -0.05667988267988
C           -4.44251763332591       -1.34998677943657        0.23647495434196
C           -5.06299068643527       -2.64793543382253        0.49418493450736
C           -6.44826094225922       -2.79186097595633        0.41672348191085
C           -7.03204292706083       -4.01914485506772        0.66480640013459
C           -6.24263877716330       -5.11191278645717        0.99065271001919
C           -4.86469785642482       -4.97569750008983        1.06808699405520
C           -4.27456535419921       -3.75127759986724        0.82106920957046
N           -3.11410366855374       -1.26450870451222        0.31226063924526
C           -0.33966386335026       -1.00441983440852        0.51844279919221
C            1.02872066050479       -0.86696799843696        0.60221206551709
C            1.64111308533211        0.35236538104547        0.31318951830512
N            3.02195024593649        0.47749005900304        0.41402303088278
C            3.74244260910145        1.51340507910170        1.00743644296195
C            3.28114848611199        2.59410959043741        1.74104680858908
C            4.21820046657981        3.46681530505123        2.26111265848348
C            5.58309332303519        3.26072538679297        2.07301561763922
C            6.05187069055666        2.16110655910811        1.38410873659251
C            5.13038686319558        1.26672271331797        0.85039900560862
C            5.24001235742063        0.02874498916023        0.14109503423999
C            6.20642327832708       -0.86665360922367       -0.41035442112673
C            7.59856438718371       -0.80817698355116       -0.41427008074916
C            8.32141817916476       -1.81441763761341       -1.02097075761786
C            7.68081342178445       -2.88870411856945       -1.63168821485296
C            6.30063061786551       -2.97133956724150       -1.64474693223162
C            5.57552219557160       -1.96272441283757       -1.03695077044500
S            3.81400158273690       -1.89264076806562       -0.95178704664416
C            3.94685941160135       -0.40984944645108       -0.07272020403096
H           -1.15667806232888        2.11744504158449       -0.49145869201338
H           -3.80474188803026        3.33127196474446       -0.79629705179616
H           -5.21204035624139        5.29222059889485       -1.34045653939949
H           -7.66502248625370        5.05183681093807       -1.44669009525028
H           -8.71125975662009        2.86075141141229       -1.00925909805912
H           -7.29215163183710        0.90513672382180       -0.46637555696220
H           -7.04670314963048       -1.93138194761419        0.16160969226833
H           -8.10486541926780       -4.12608252974842        0.60409434014110
H           -6.70152227387082       -6.07008072976149        1.18434157828765
H           -4.25054128252784       -5.82701035626338        1.32139222471680
H           -3.20438867450392       -3.62791563073003        0.87618640456216
H           -0.81341526549650       -1.94416594400208        0.75184150159353
H            1.64131104545987       -1.70162534942562        0.90662085928372
H            2.22727559434050        2.75421114194649        1.91189629404317
H            3.88309567298101        4.32244941203716        2.82737682624102
H            6.28410884597771        3.96813601579088        2.49006008124225
H            7.11051809188719        1.99104004360274        1.26730185343957
H            8.09757136700238        0.02353452357970        0.05766365676909
H            9.40036118691067       -1.76965738650857       -1.02322216815597
H            8.26484374614336       -3.66604290249489       -2.10059391032905
H            5.79480677824031       -3.79969866500430       -2.11682374911273

          :  Hamiltonian                  GFN2-xTB          :
         :: gradient norm              0.000092034605 Eh/a0 ::
         :: HOMO-LUMO gap              1.750338706213 eV    ::
         :: SCC energy              -107.632118674003 Eh    ::
         :: -> dispersion             -0.088765369343 Eh    ::
         :: -> Gsolv                  -0.051690211005 Eh    ::
         :: repulsion energy           1.914508685195 Eh    ::

    * Orbital Energies and Occupations

         #    Occupation            Energy/Eh            Energy/eV
      -------------------------------------------------------------
         1        2.0000           -0.7403222             -20.1452
       ...           ...                  ...                  ...
        86        2.0000           -0.4334806             -11.7956
        87        2.0000           -0.4305830             -11.7168
        88        2.0000           -0.4257082             -11.5841
        89        2.0000           -0.4193838             -11.4120
        90        2.0000           -0.4193098             -11.4100
        91        2.0000           -0.4168968             -11.3443
        92        2.0000           -0.4165134             -11.3339
        93        2.0000           -0.4138080             -11.2603
        94        2.0000           -0.4072260             -11.0812
        95        2.0000           -0.3887479             -10.5784
        96        2.0000           -0.3872632             -10.5380
        97        2.0000           -0.3829535             -10.4207
        98        2.0000           -0.3713952             -10.1062 (HOMO)
        99                         -0.3070715              -8.3558 (LUMO)
       100                         -0.2993976              -8.1470
       101                         -0.2887173              -7.8564
       102                         -0.2635762              -7.1723
       103                         -0.2519881              -6.8569
       104                         -0.2365050              -6.4356
       105                         -0.2364294              -6.4336
       106                         -0.2363968              -6.4327
       107                         -0.2327697              -6.3340
       108                         -0.2294968              -6.2449
       109                         -0.2255080              -6.1364
       ...                                ...                  ...
       194                          1.1454743              31.1699
      -------------------------------------------------------------
                  HL-Gap            0.0643237 Eh            1.7503 eV

     #   Z          covCN         q      C6AA      α(0)
     1   7 N        0.911    -0.254    26.598     7.459
     2   6 C        1.912     0.124    28.057     8.554
     3   6 C        2.972     0.005    27.904     8.665
     4   6 C        2.935    -0.016    28.412     8.742
     5   6 C        2.981    -0.006    28.173     8.707
     6   6 C        2.983     0.214    23.492     7.951
     7   7 N        1.844    -0.321    29.166     8.004
     8   6 C        2.979     0.216    23.455     7.944
     9   6 C        2.983    -0.009    28.247     8.718
    10   6 C        2.923    -0.025    28.625     8.774
    11   6 C        2.918    -0.026    28.661     8.779
    12   6 C        2.920    -0.021    28.521     8.758
    13   6 C        2.918    -0.026    28.658     8.779
    14   6 C        2.923    -0.025    28.627     8.774
    15   7 N        1.844    -0.314    28.997     7.980
    16   6 C        2.979     0.215    23.468     7.946
    17   6 C        2.983    -0.009    28.241     8.717
    18   6 C        2.923    -0.025    28.624     8.774
    19   6 C        2.918    -0.026    28.659     8.779
    20   6 C        2.920    -0.021    28.524     8.758
    21   6 C        2.918    -0.026    28.662     8.779
    22   6 C        2.923    -0.025    28.633     8.775
    23   7 N        1.844    -0.317    29.071     7.991
    24   6 C        2.922    -0.017    28.429     8.744
    25   6 C        2.920    -0.038    28.934     8.821
    26   6 C        2.914     0.078    26.265     8.404
    27   7 N        2.802    -0.038    21.977     6.963
    28   6 C        3.101     0.039    26.993     8.514
    29   6 C        2.909    -0.043    29.074     8.842
    30   6 C        2.924    -0.033    28.823     8.804
    31   6 C        2.920    -0.035    28.882     8.813
    32   6 C        2.912    -0.034    28.845     8.807
    33   6 C        3.087    -0.009    28.142     8.696
    34   6 C        3.186    -0.042    28.565     8.721
    35   6 C        3.094     0.002    27.859     8.651
    36   6 C        2.916    -0.035    28.868     8.811
    37   6 C        2.918    -0.033    28.819     8.803
    38   6 C        2.923    -0.034    28.837     8.806
    39   6 C        2.934    -0.037    28.924     8.820
    40   6 C        3.015     0.031    27.277     8.567
    41  16 S        2.174    -0.101   145.272    20.286
    42   6 C        3.134     0.066    26.305     8.395
    43   1 H        0.926     0.066     2.132     2.283
    44   1 H        0.926     0.049     2.336     2.390
    45   1 H        0.926     0.049     2.336     2.390
    46   1 H        0.926     0.052     2.295     2.369
    47   1 H        0.926     0.050     2.321     2.382
    48   1 H        0.926     0.053     2.284     2.363
    49   1 H        0.926     0.052     2.294     2.369
    50   1 H        0.926     0.049     2.329     2.387
    51   1 H        0.926     0.052     2.300     2.372
    52   1 H        0.926     0.049     2.327     2.386
    53   1 H        0.926     0.052     2.298     2.370
    54   1 H        0.926     0.074     2.041     2.234
    55   1 H        0.926     0.068     2.102     2.267
    56   1 H        0.926     0.026     2.647     2.544
    57   1 H        0.926     0.040     2.446     2.446
    58   1 H        0.926     0.041     2.429     2.437
    59   1 H        0.926     0.043     2.414     2.430
    60   1 H        0.926     0.043     2.408     2.426
    61   1 H        0.926     0.041     2.437     2.441
    62   1 H        0.926     0.041     2.429     2.437
    63   1 H        0.926     0.042     2.422     2.434

molecular dipole:
                 x           y           z       tot (Debye)
 q only:       -0.657      -1.115       0.568
   full:       -0.792      -1.347       0.693       4.346

 projected vibrational frequencies (cm⁻¹)
eigval :       -0.00    -0.00     0.00     0.00     0.00     0.00
eigval :       10.00    16.41    21.31    29.90    36.51    43.34
eigval :       44.12    50.40    56.99    78.00    86.92    88.98
eigval :       89.39   114.21   122.02   133.09   152.55   157.46
eigval :      166.99   169.96   180.00   204.38   210.46   239.48
eigval :      259.25   284.28   299.60   303.91   312.37   353.60
eigval :      359.64   363.11   364.16   364.68   383.85   402.98
eigval :      406.78   411.63   413.65   419.51   433.24   439.39
eigval :      467.59   483.99   489.58   502.16   534.33   545.07
eigval :      555.51   578.76   586.29   586.77   591.51   597.27
eigval :      608.05   613.15   626.37   628.77   645.07   652.05
eigval :      668.50   673.11   673.36   674.44   689.98   694.87
eigval :      700.86   750.16   753.77   768.35   773.09   775.06
eigval :      775.18   795.50   842.03   846.72   866.67   871.56
eigval :      871.74   874.94   875.33   890.80   901.07   905.98
eigval :      909.16   909.48   911.87   920.78   922.30   924.89
eigval :      927.82   929.46   930.17   931.72   934.05   956.51
eigval :      983.29   988.82  1037.33  1048.28  1069.80  1073.05
eigval :     1074.03  1076.74  1087.67  1105.85  1107.23  1110.18
eigval :     1125.56  1150.44  1154.52  1164.96  1169.91  1173.70
eigval :     1174.55  1175.47  1183.85  1190.03  1199.00  1205.00
eigval :     1208.26  1223.45  1229.84  1238.07  1259.29  1265.48
eigval :     1267.60  1301.30  1321.07  1326.55  1328.25  1331.18
eigval :     1350.40  1351.11  1367.22  1369.49  1381.80  1385.32
eigval :     1406.80  1415.02  1418.84  1427.49  1429.15  1445.45
eigval :     1461.69  1470.08  1475.10  1480.72  1500.31  1502.69
eigval :     1512.38  1546.25  1565.48  1573.53  1580.09  1580.96
eigval :     1582.20  1588.53  1591.47  1592.51  1605.83  2360.94
eigval :     3078.59  3079.07  3080.39  3080.92  3083.57  3083.82
eigval :     3084.18  3087.47  3092.78  3092.98  3095.10  3096.96
eigval :     3100.72  3102.27  3103.23  3104.59  3104.94  3105.82
eigval :     3106.87  3107.43  3118.45

   temp. (K)  partition function   enthalpy   heat capacity  entropy
                                   cal/mol     cal/K/mol   cal/K/mol   J/K/mol
 298.15  VIB  0.126E+16            19231.576    119.271    120.339
         ROT  0.754E+08              888.752      2.981     39.026
         INT  0.947E+23            20120.328    122.251    159.365
         TR   0.127E+29             1481.254      4.968     44.810
         TOT                       21601.5821   127.2196   204.1745   854.2663

       T/K    H(0)-H(T)+PV         H(T)/Eh          T*S/Eh         G(T)/Eh
   ------------------------------------------------------------------------
    298.15    0.344243E-01    0.494228E+00    0.970099E-01    0.397219E+00
   ------------------------------------------------------------------------

         :::::::::::::::::::::::::::::::::::::::::::::::::::::
         ::                  THERMODYNAMIC                  ::
         :::::::::::::::::::::::::::::::::::::::::::::::::::::
         :: total free energy        -105.320391487321 Eh   ::
         ::.................................................::
         :: total energy             -105.717609990297 Eh   ::
         :: zero point energy           0.459804100762 Eh   ::
         :: G(RRHO) w/o ZPVE           -0.062585597786 Eh   ::
         :: G(RRHO) contrib.            0.397218502976 Eh   ::
         :::::::::::::::::::::::::::::::::::::::::::::::::::::

           -------------------------------------------------
          | TOTAL ENERGY             -105.717609990297 Eh   |
          | TOTAL ENTHALPY           -105.223381577278 Eh   |
          | TOTAL FREE ENERGY        -105.320391487321 Eh   |
          | GRADIENT NORM               0.000092079099 Eh/α |
          | HOMO-LUMO GAP               1.750338292591 eV   |
           -------------------------------------------------

 * finished run on 2025/09/07 at 04:55:55.980
