   * xtb version 6.7.1 (edcfbbe) compiled by 'albert@albert-system' on 2024-07-22

   ID    Z sym.   atoms
    1    7 N      1, 7, 15, 23, 27
    2    6 C      2-6, 8-14, 16-22, 24-26, 28-40, 42
    3   16 S      41
    4    1 H      43-63

          program call               : xtb data2507/toluene/BTITrz/BTITrz_toluene_S0_finalOpt.xtbopt.xyz --gfn 2 --uhf 2 --gbsa toluene --ohess vtight --parallel 40 --molden --ceasefiles --namespace data2507/toluene/BTITrz/BTITrz_toluene_T1_preOpt
      * Solvation model:               GBSA
        Solvent                        toluene
        Solvent mass                       9.2140E+01 g/mol
          :  Hamiltonian                  GFN2-xTB          :
 * total energy  :  -105.6367357 Eh     change       -0.3212382E-07 Eh
 * total energy  :  -105.6399107 Eh     change       -0.3174988E-02 Eh
 * total energy  :  -105.6415032 Eh     change       -0.1592456E-02 Eh
 * total energy  :  -105.6416315 Eh     change       -0.1282964E-03 Eh
 * total energy  :  -105.6417457 Eh     change       -0.1142142E-03 Eh
 * total energy  :  -105.6417750 Eh     change       -0.2928777E-04 Eh
 * total energy  :  -105.6417881 Eh     change       -0.1317849E-04 Eh
 * total energy  :  -105.6417965 Eh     change       -0.8342092E-05 Eh
 * total energy  :  -105.6418034 Eh     change       -0.6890926E-05 Eh
 * total energy  :  -105.6418132 Eh     change       -0.9829610E-05 Eh
 * total energy  :  -105.6418986 Eh     change       -0.1016955E-05 Eh
 * total energy  :  -105.6418996 Eh     change       -0.9623579E-06 Eh
 * total energy  :  -105.6419005 Eh     change       -0.9275090E-06 Eh
 * total energy  :  -105.6419014 Eh     change       -0.9071017E-06 Eh
 * total energy  :  -105.6419023 Eh     change       -0.8665854E-06 Eh
 * total energy  :  -105.6419031 Eh     change       -0.8304377E-06 Eh
 * total energy  :  -105.6419039 Eh     change       -0.8031102E-06 Eh
 * total energy  :  -105.6419047 Eh     change       -0.7473937E-06 Eh
 * total energy  :  -105.6419047 Eh     change       -0.3987495E-08 Eh
   *** GEOMETRY OPTIMIZATION CONVERGED AFTER 44 ITERATIONS ***

 final structure:
================
63
 xtb: 6.7.1 (edcfbbe)
N            1.88063712596276        3.59747009656934       -0.95514800231295
C            1.42404942880343        2.61777941810136       -0.56370425738511
C            0.84147951215537        1.40976559831273       -0.13190930037665
C           -0.53198446459579        1.27228521611795       -0.19940745465670
C           -1.15608853844719        0.05472611185280        0.12295942393480
C           -2.56685052840315       -0.07285861857565        0.05871379013393
N           -3.32701930719461        0.99717388372207       -0.28127854605424
C           -4.62732596469917        0.85055824419013       -0.31808880961591
C           -5.45760435098690        2.00248207594182       -0.66004538127332
C           -4.87152009966408        3.23415011244731       -0.95540818292276
C           -5.66227833330199        4.32027710805594       -1.27405605786717
C           -7.04347782297755        4.19300945039471       -1.30258812788139
C           -7.63257453576475        2.97241251995501       -1.00947585794901
C           -6.84726708632700        1.88182680616079       -0.69034145071315
N           -5.24630831832569       -0.31562254809397       -0.05453557443350
C           -4.45309010348957       -1.35254391845742        0.27095848755813
C           -5.08897798513804       -2.63553248972973        0.56011580320260
C           -6.47504764777553       -2.76853854138665        0.47434897250179
C           -7.07455687370799       -3.98249096295127        0.74857936690258
C           -6.30141102930625       -5.07542911997145        1.10979651945064
C           -4.92240254882264       -4.95043493493436        1.19600298444671
C           -4.31694659404294       -3.73995916943563        0.92301644565224
N           -3.14883529413035       -1.26388871927890        0.34353119642611
C           -0.33276278957086       -1.03982605566843        0.49845781889464
C            1.02669919011494       -0.90321386878222        0.57539301545139
C            1.64601740469357        0.31843296404903        0.28572984450130
N            3.03743446179565        0.44626111530041        0.37829012435199
C            3.74182716789419        1.45052446891905        1.04895304549884
C            3.25811527762351        2.48298150441736        1.82780748198679
C            4.18175219497973        3.34362715370740        2.40582410821111
C            5.54978426503456        3.16875986148224        2.22243533609159
C            6.04307153093098        2.11556736757362        1.47606397996266
C            5.13776879001545        1.23485919871535        0.88771764643703
C            5.26924487615458        0.04771368753674        0.11388650158423
C            6.24017739623960       -0.81647494980218       -0.45751412842504
C            7.63562232755049       -0.75418668562110       -0.42918047664023
C            8.37332300451114       -1.73224833548551       -1.06532864655046
C            7.74638424425665       -2.77826104046424       -1.73369050330313
C            6.36070617934729       -2.86280937660379       -1.77990818284688
C            5.62231573417143       -1.88692251645095       -1.14600543249650
S            3.84900382671568       -1.82338005296502       -1.09388807463836
C            3.95670208227366       -0.38651618214503       -0.15466740597452
H           -1.14296406880619        2.10222103229789       -0.52080036909499
H           -3.79571628175146        3.31883923021381       -0.92899985512836
H           -5.20190608975600        5.27053317289261       -1.50163224632155
H           -7.65901761957978        5.04443571105981       -1.55208784138210
H           -8.70777505025780        2.87194670831001       -1.03054418412669
H           -7.28968870245693        0.92510235810621       -0.45898064493259
H           -7.06229499843898       -1.90866391528095        0.19085765501779
H           -8.14822044828046       -4.07845274538723        0.68029428253022
H           -6.77224394001577       -6.02343778335381        1.32378004657209
H           -4.31926913363822       -5.80123045904531        1.47702593777888
H           -3.24548577074233       -3.62676381955897        0.98551045379416
H           -0.80843393847075       -1.97850230679371        0.73125339170241
H            1.64093844703052       -1.73751735636536        0.88067190658980
H            2.20023519248337        2.61992816336223        1.99029590630297
H            3.82593120989731        4.16278679251612        3.01134703468480
H            6.23578416134143        3.86324270187696        2.68265970392252
H            7.10470264705525        1.97267859369328        1.35406576692594
H            8.12079471940844        0.05667189877196        0.08977698606297
H            9.45144211770854       -1.68616187635144       -1.04391811812041
H            8.33906009217365       -3.53487487276663       -2.22421611811911
H            5.87047143818729       -3.67157774873047       -2.29884826307343

          :  Hamiltonian                  GFN2-xTB          :
         :: gradient norm              0.000064584171 Eh/a0 ::
         :: HOMO-LUMO gap              0.298838839883 eV    ::
         :: SCC energy              -107.546913701119 Eh    ::
         :: -> dispersion             -0.088643743948 Eh    ::
         :: -> Gsolv                  -0.055534426804 Eh    ::
         :: repulsion energy           1.905009045685 Eh    ::

    * Orbital Energies and Occupations

         #    Occupation            Energy/Eh            Energy/eV
      -------------------------------------------------------------
         1        2.0000           -0.7506251             -20.4255
       ...           ...                  ...                  ...
        87        2.0000           -0.4251440             -11.5688
        88        2.0000           -0.4239198             -11.5354
        89        2.0000           -0.4202141             -11.4346
        90        2.0000           -0.4150209             -11.2933
        91        2.0000           -0.4146712             -11.2838
        92        2.0000           -0.4143941             -11.2762
        93        2.0000           -0.4106233             -11.1736
        94        2.0000           -0.4095625             -11.1448
        95        2.0000           -0.3904206             -10.6239
        96        1.7816           -0.3812503             -10.3743
        97        1.7561           -0.3811136             -10.3706
        98        1.4623           -0.3798951             -10.3375
        99        0.9969           -0.2984468              -8.1211 (HOMO)
       100        0.0031           -0.2874646              -7.8223 (LUMO)
       101                         -0.2734587              -7.4412
       102                         -0.2655667              -7.2264
       103                         -0.2508792              -6.8268
       104                         -0.2480670              -6.7502
       105                         -0.2441513              -6.6437
       106                         -0.2317382              -6.3059
       107                         -0.2317049              -6.3050
       108                         -0.2288156              -6.2264
       109                         -0.2268920              -6.1740
       110                         -0.2153213              -5.8592
       ...                                ...                  ...
       194                          1.1527681              31.3684
      -------------------------------------------------------------
                  HL-Gap            0.0109821 Eh            0.2988 eV

     #   Z          covCN         q      C6AA      α(0)
     1   7 N        0.911    -0.284    27.322     7.560
     2   6 C        1.914     0.119    28.175     8.572
     3   6 C        2.967    -0.002    28.062     8.689
     4   6 C        2.934    -0.026    28.644     8.777
     5   6 C        2.975    -0.018    28.450     8.749
     6   6 C        2.936     0.170    24.343     8.092
     7   7 N        1.845    -0.290    28.373     7.894
     8   6 C        2.934     0.209    23.589     7.965
     9   6 C        2.983    -0.008    28.205     8.712
    10   6 C        2.923    -0.028    28.696     8.785
    11   6 C        2.918    -0.028    28.701     8.785
    12   6 C        2.920    -0.025    28.637     8.776
    13   6 C        2.918    -0.028    28.700     8.785
    14   6 C        2.924    -0.028    28.691     8.784
    15   7 N        1.844    -0.323    29.219     8.011
    16   6 C        2.934     0.209    23.593     7.966
    17   6 C        2.983    -0.007    28.197     8.710
    18   6 C        2.924    -0.027    28.685     8.783
    19   6 C        2.918    -0.028    28.699     8.785
    20   6 C        2.920    -0.025    28.637     8.776
    21   6 C        2.918    -0.028    28.701     8.785
    22   6 C        2.923    -0.028    28.702     8.786
    23   7 N        1.845    -0.286    28.272     7.880
    24   6 C        2.919    -0.039    28.970     8.826
    25   6 C        2.914    -0.040    29.000     8.831
    26   6 C        2.914     0.034    27.236     8.558
    27   7 N        2.799    -0.017    21.581     6.900
    28   6 C        3.113     0.043    26.881     8.493
    29   6 C        2.908    -0.033    28.814     8.802
    30   6 C        2.924    -0.024    28.596     8.769
    31   6 C        2.918    -0.031    28.775     8.796
    32   6 C        2.911    -0.023    28.588     8.768
    33   6 C        3.075    -0.007    28.111     8.693
    34   6 C        3.181    -0.024    28.163     8.663
    35   6 C        3.079     0.008    27.747     8.636
    36   6 C        2.915    -0.025    28.636     8.775
    37   6 C        2.916    -0.028    28.701     8.785
    38   6 C        2.923    -0.023    28.571     8.766
    39   6 C        2.932    -0.031    28.762     8.795
    40   6 C        3.013     0.034    27.219     8.558
    41  16 S        2.157    -0.055   143.320    20.149
    42   6 C        3.130     0.073    26.180     8.377
    43   1 H        0.926     0.044     2.398     2.422
    44   1 H        0.926     0.042     2.422     2.433
    45   1 H        0.926     0.045     2.389     2.417
    46   1 H        0.926     0.047     2.355     2.400
    47   1 H        0.926     0.046     2.376     2.410
    48   1 H        0.926     0.047     2.354     2.399
    49   1 H        0.926     0.047     2.364     2.404
    50   1 H        0.926     0.045     2.384     2.414
    51   1 H        0.926     0.047     2.358     2.401
    52   1 H        0.926     0.045     2.378     2.411
    53   1 H        0.926     0.045     2.378     2.411
    54   1 H        0.926     0.048     2.350     2.397
    55   1 H        0.926     0.046     2.366     2.406
    56   1 H        0.926     0.038     2.473     2.459
    57   1 H        0.926     0.052     2.296     2.370
    58   1 H        0.926     0.054     2.273     2.358
    59   1 H        0.926     0.057     2.233     2.337
    60   1 H        0.926     0.058     2.225     2.332
    61   1 H        0.926     0.054     2.266     2.354
    62   1 H        0.926     0.056     2.249     2.345
    63   1 H        0.926     0.055     2.259     2.351

molecular dipole:
                 x           y           z       tot (Debye)
 q only:        2.938      -1.254       0.600
   full:        2.623      -1.484       0.710       7.869

 projected vibrational frequencies (cm⁻¹)
eigval :       -0.00    -0.00    -0.00    -0.00     0.00     0.00
eigval :       10.03    15.85    20.89    30.70    41.37    42.61
eigval :       45.59    49.32    55.11    75.50    81.76    86.88
eigval :       98.49   116.48   120.12   130.90   144.37   153.88
eigval :      163.04   165.41   195.56   202.73   215.27   231.82
eigval :      250.19   273.99   291.22   298.95   305.16   355.07
eigval :      356.51   365.01   368.08   370.61   375.61   389.12
eigval :      394.22   400.29   406.14   408.34   415.22   423.41
eigval :      441.04   476.92   479.71   488.97   530.06   538.94
eigval :      539.78   557.31   563.40   576.79   586.75   588.06
eigval :      589.82   597.57   605.24   608.45   617.05   635.40
eigval :      655.71   660.03   664.69   665.74   670.76   681.19
eigval :      688.75   694.28   732.33   754.30   760.63   764.77
eigval :      766.60   769.44   803.49   807.05   858.40   865.00
eigval :      866.37   870.05   871.18   873.06   896.39   900.89
eigval :      901.40   903.36   903.91   905.12   914.67   917.28
eigval :      918.17   926.18   926.90   928.85   929.52   930.73
eigval :      949.54   962.99   985.41   993.38  1023.81  1061.02
eigval :     1065.78  1072.30  1073.00  1074.32  1096.98  1106.21
eigval :     1108.49  1118.83  1141.25  1145.14  1159.81  1165.16
eigval :     1170.53  1174.16  1174.92  1179.20  1184.32  1186.21
eigval :     1196.73  1211.05  1217.34  1229.02  1248.65  1263.27
eigval :     1265.55  1268.86  1277.47  1291.32  1302.30  1322.84
eigval :     1328.06  1328.62  1341.58  1348.41  1361.13  1379.55
eigval :     1385.27  1392.51  1401.82  1412.89  1424.18  1429.33
eigval :     1433.86  1447.13  1452.71  1462.24  1463.40  1475.91
eigval :     1481.33  1492.73  1549.37  1550.37  1556.39  1573.42
eigval :     1574.55  1575.37  1580.28  1585.26  1589.91  2338.59
eigval :     3075.55  3075.64  3078.80  3079.36  3084.01  3088.97
eigval :     3089.26  3089.46  3089.84  3093.44  3094.64  3095.17
eigval :     3095.82  3097.27  3098.75  3100.00  3102.46  3104.19
eigval :     3108.61  3111.53  3112.35

   temp. (K)  partition function   enthalpy   heat capacity  entropy
                                   cal/mol     cal/K/mol   cal/K/mol   J/K/mol
 298.15  VIB  0.172E+16            19565.316    121.647    122.221
         ROT  0.757E+08              888.752      2.981     39.035
         INT  0.130E+24            20454.069    124.627    161.256
         TR   0.127E+29             1481.254      4.968     44.810
         TOT                       21935.3228   129.5956   206.0656   862.1786

       T/K    H(0)-H(T)+PV         H(T)/Eh          T*S/Eh         G(T)/Eh
   ------------------------------------------------------------------------
    298.15    0.349562E-01    0.489810E+00    0.979084E-01    0.391901E+00
   ------------------------------------------------------------------------

         :::::::::::::::::::::::::::::::::::::::::::::::::::::
         ::                  THERMODYNAMIC                  ::
         :::::::::::::::::::::::::::::::::::::::::::::::::::::
         :: total free energy        -105.250003230892 Eh   ::
         ::.................................................::
         :: total energy             -105.641904662263 Eh   ::
         :: zero point energy           0.454853695041 Eh   ::
         :: G(RRHO) w/o ZPVE           -0.062952263670 Eh   ::
         :: G(RRHO) contrib.            0.391901431371 Eh   ::
         :::::::::::::::::::::::::::::::::::::::::::::::::::::

           -------------------------------------------------
          | TOTAL ENERGY             -105.641904662263 Eh   |
          | TOTAL ENTHALPY           -105.152094805351 Eh   |
          | TOTAL FREE ENERGY        -105.250003230892 Eh   |
          | GRADIENT NORM               0.000061006710 Eh/α |
          | HOMO-LUMO GAP               0.298839355719 eV   |
           -------------------------------------------------

 * finished run on 2025/09/07 at 04:56:02.473
