   * xtb version 6.7.1 (edcfbbe) compiled by 'albert@albert-system' on 2024-07-22

   ID    Z sym.   atoms
    1    6 C      1, 3, 5, 7-29, 31-50
    2   16 S      2
    3    7 N      4, 6, 30, 51
    4    1 H      52-105

          program call               : xtb data2507/toluene/tCbz-mPYRs/tCbz-mPYRs_toluene_S0_crest.xyz --gfn 2 --gbsa toluene --ohess vtight --parallel 40 --molden --ceasefiles --namespace data2507/toluene/tCbz-mPYRs/tCbz-mPYRs_toluene_S0_finalOpt
      * Solvation model:               GBSA
        Solvent                        toluene
        Solvent mass                       9.2140E+01 g/mol
          :  Hamiltonian                  GFN2-xTB          :
 * total energy  :  -141.1938728 Eh     change       -0.3442750E-08 Eh
 * total energy  :  -141.1940289 Eh     change       -0.1560867E-03 Eh
 * total energy  :  -141.1940885 Eh     change       -0.5958992E-04 Eh
 * total energy  :  -141.1941136 Eh     change       -0.2508429E-04 Eh
 * total energy  :  -141.1941334 Eh     change       -0.1986702E-04 Eh
 * total energy  :  -141.1941483 Eh     change       -0.1491610E-04 Eh
 * total energy  :  -141.1941614 Eh     change       -0.1307160E-04 Eh
 * total energy  :  -141.1941723 Eh     change       -0.1084637E-04 Eh
 * total energy  :  -141.1941795 Eh     change       -0.7220729E-05 Eh
 * total energy  :  -141.1941845 Eh     change       -0.5005002E-05 Eh
 * total energy  :  -141.1942508 Eh     change       -0.2925764E-06 Eh
 * total energy  :  -141.1942516 Eh     change       -0.7939419E-06 Eh
 * total energy  :  -141.1942519 Eh     change       -0.2872845E-06 Eh
 * total energy  :  -141.1942522 Eh     change       -0.2534485E-06 Eh
 * total energy  :  -141.1942524 Eh     change       -0.2252127E-06 Eh
 * total energy  :  -141.1942526 Eh     change       -0.1522808E-06 Eh
 * total energy  :  -141.1942527 Eh     change       -0.1484850E-06 Eh
 * total energy  :  -141.1942529 Eh     change       -0.1499586E-06 Eh
 * total energy  :  -141.1942529 Eh     change       -0.3666946E-07 Eh
   *** GEOMETRY OPTIMIZATION CONVERGED AFTER 52 ITERATIONS ***

 final structure:
================
105
 xtb: 6.7.1 (edcfbbe)
C            1.38070486287817        4.56131915157519       -2.81588056335024
S           -0.35198305142068        4.02050652534718       -2.68913431764914
C           -0.16780079287946        2.56541690069382       -1.74312290034275
N           -1.27835702834955        1.89145148753200       -1.50245809269982
C           -1.17379702479193        0.80701370364384       -0.74246550931646
N           -2.35399834968900        0.12781305528760       -0.48331414412344
C           -3.53070993954333        0.69755701150655       -0.03478578797496
C           -3.77973805420233        2.02894041510787        0.24758060174715
C           -5.01977957846204        2.36778410244491        0.74339261553160
C           -6.00883307972514        1.40581459851575        0.97400030993762
C           -7.35615963377402        1.85715512009965        1.52433161089227
C           -7.14030731422583        2.55451890125988        2.87599693732659
C           -7.99713069836175        2.83739796769849        0.53042616197677
C           -8.33253201290571        0.69704121395903        1.74267942592559
C           -5.73428060047703        0.07655277010418        0.69182927731468
C           -4.49444917225448       -0.31044227575634        0.17911688128132
C           -3.88231734985840       -1.56960440151845       -0.22595614867380
C           -4.28493491640376       -2.91776588023188       -0.31995964604097
C           -5.66136532509984       -3.40198373584418        0.11245713712799
C           -5.83969822978559       -3.11059344343016        1.61250452179448
C           -5.86367100287444       -4.91504207252487       -0.05672612559066
C           -6.72208870578536       -2.72257525314610       -0.77082036824239
C           -3.36596951813052       -3.81652400418796       -0.84561283560177
C           -2.10813025592959       -3.44453715833999       -1.30156653669668
C           -1.69314899480241       -2.13480646922120       -1.21252618771793
C           -2.57011032921079       -1.22843814045480       -0.64041379795386
C            0.04457457848648        0.39329948028338       -0.17861840172382
C            0.12303741304765       -0.63759873184138        0.90197085720534
C            1.15449535292486        1.14303210806640       -0.58635792391226
N            2.43830665386386        0.82303796740618       -0.16815476207949
C            3.05463343013102       -0.40513147733929       -0.29473645408052
C            2.57889330723824       -1.54064348415871       -0.92861459438215
C            3.37901379730134       -2.66230593543303       -0.95295444575341
C            4.65021478528292       -2.66974636099120       -0.37097087038858
C            5.47054224860356       -3.95265937816278       -0.41662699542806
C            4.68532049248163       -5.07433009299500        0.28020794705982
C            6.82584191580862       -3.82007534223614        0.28487408249786
C            5.72798048967156       -4.33090429408384       -1.88309449973520
C            5.13142230065194       -1.50479789829587        0.20706469286452
C            4.35642893945669       -0.34453018656606        0.24812536916619
C            4.55202002588728        1.02287399797596        0.71197503987283
C            5.58585646435715        1.75088530939867        1.33732572874907
C            6.92840393055939        1.13371710925612        1.70277512690866
C            6.69440942479077       -0.00153771626114        2.71446419617794
C            7.89510289120054        2.11760860425135        2.37815479189915
C            7.62253409976368        0.66583991457053        0.41170412107126
C            5.33643920132714        3.08807948349302        1.61447577391221
C            4.13486475302528        3.72007133754299        1.31891071599583
C            3.11239064196012        3.02774645849836        0.71078113852326
C            3.34478496813670        1.69829176085657        0.40525963144468
N            1.04632213245095        2.22489869787939       -1.35501461713986
H            1.38916298047013        5.39205222168343       -3.51302358314229
H            1.73356430544885        4.87589599504816       -1.83957401902667
H            1.98037622945712        3.73642417550326       -3.18492964577117
H           -3.02530989492437        2.77894882318588        0.06571319368069
H           -5.21719179707644        3.40730875019740        0.95434305604295
H           -8.09614763797319        2.86418425961123        3.29338191172786
H           -6.51361078835052        3.43615658346007        2.77403931151153
H           -6.66076883642127        1.87501514717134        3.57808068016097
H           -8.14163401311893        2.35433542239521       -0.43408002182035
H           -8.96572360587923        3.16664227138981        0.90099201467727
H           -7.37442076286762        3.71497679934590        0.37983853576627
H           -9.26909516412323        1.08605896265644        2.13739282846835
H           -8.55067650498971        0.18676918469223        0.80774418808094
H           -7.93776679213267       -0.01721039345014        2.46129332869111
H           -6.49437922228178       -0.65741276487871        0.87516934382206
H           -5.26376681408192       -3.83329442524187        2.18854533969212
H           -5.48536695507995       -2.12395360801542        1.88623786443341
H           -6.88535695279852       -3.20655998708063        1.89723514416461
H           -6.86454581593445       -5.16986927871806        0.28681796885890
H           -5.78245590220711       -5.21784204721741       -1.09818660813543
H           -5.15183747523322       -5.48383478869807        0.53734897511422
H           -6.72309708961654       -3.19042518805755       -1.75403673512165
H           -6.52293044493898       -1.66747300413150       -0.91667361998549
H           -7.71256959393167       -2.84318379392407       -0.33707113249494
H           -3.62853922366644       -4.85618754842475       -0.93517528622751
H           -1.45757086845881       -4.18882522126109       -1.73673296886512
H           -0.73824391052879       -1.81526341631252       -1.60138035474402
H           -0.80436952905777       -0.64216110374037        1.47319583851934
H            0.95051490478936       -0.40716084556439        1.57155738651505
H            0.27820268969409       -1.64424956616404        0.51623516277986
H            1.61473305868308       -1.54072330591936       -1.41500899528178
H            3.00320210158744       -3.54621079874771       -1.44459364788716
H            3.73626475467015       -5.26389899204848       -0.21363981932838
H            5.26264500771434       -5.99643534011411        0.27049900236624
H            4.48289089391497       -4.80471112524565        1.31508013122724
H            6.70001605594312       -3.56152917606034        1.33353051352188
H            7.35059107379065       -4.77212028324718        0.23497306171677
H            7.44748740597416       -3.07137900141707       -0.19992867418024
H            6.32755030747281       -5.23722028361008       -1.93601310538781
H            6.26519113537983       -3.53105093704576       -2.38934407486534
H            4.79841910794044       -4.50711013320620       -2.41759180897026
H            6.12122385406616       -1.50521591926539        0.61949719810415
H            5.84712312963447       -0.62261558599663        2.44955676168101
H            7.58203326121888       -0.62506195372868        2.79896448401928
H            6.48760004415684        0.42789177459130        3.69348375852703
H            8.82027882128460        1.59136850092037        2.60627617153651
H            8.13904173485772        2.95272526379469        1.72549763989922
H            7.49045343933492        2.50080747969981        3.31221627382432
H            6.94201447666090        0.15909588094306       -0.26232959071289
H            8.45408043161235        0.00399728005003        0.64480012723775
H            8.01664405949146        1.53197927249187       -0.11751951628863
H            6.09739246199449        3.68520110891996        2.08618082556274
H            4.00650762852234        4.76241181444603        1.57117468471544
H            2.16894170757194        3.49248481423282        0.47094225873641

          :  Hamiltonian                  GFN2-xTB          :
         :: gradient norm              0.000112003856 Eh/a0 ::
         :: HOMO-LUMO gap              2.521157532974 eV    ::
         :: SCC energy              -143.511880449734 Eh    ::
         :: -> dispersion             -0.140541880016 Eh    ::
         :: -> Gsolv                  -0.055867352519 Eh    ::
         :: repulsion energy           2.317627554342 Eh    ::

    * Orbital Energies and Occupations

         #    Occupation            Energy/Eh            Energy/eV
      -------------------------------------------------------------
         1        2.0000           -0.7310276             -19.8923
       ...           ...                  ...                  ...
       120        2.0000           -0.4192089             -11.4073
       121        2.0000           -0.4141513             -11.2696
       122        2.0000           -0.4123127             -11.2196
       123        2.0000           -0.4109374             -11.1822
       124        2.0000           -0.4095144             -11.1435
       125        2.0000           -0.4006942             -10.9034
       126        2.0000           -0.3996596             -10.8753
       127        2.0000           -0.3874950             -10.5443
       128        2.0000           -0.3835744             -10.4376
       129        2.0000           -0.3813201             -10.3762
       130        2.0000           -0.3797850             -10.3345
       131        2.0000           -0.3697088             -10.0603
       132        2.0000           -0.3677230             -10.0063 (HOMO)
       133                         -0.2750722              -7.4851 (LUMO)
       134                         -0.2609347              -7.1004
       135                         -0.2475638              -6.7366
       136                         -0.2462226              -6.7001
       137                         -0.2241109              -6.0984
       138                         -0.2228305              -6.0635
       139                         -0.2104200              -5.7258
       140                         -0.2005295              -5.4567
       141                         -0.1933512              -5.2614
       142                         -0.1918451              -5.2204
       143                         -0.1906545              -5.1880
       ...                                ...                  ...
       263                          0.7198759              19.5888
      -------------------------------------------------------------
                  HL-Gap            0.0926509 Eh            2.5212 eV

     #   Z          covCN         q      C6AA      α(0)
     1   6 C        3.745    -0.057    21.680     6.642
     2  16 S        2.078    -0.138   146.853    20.396
     3   6 C        2.959     0.234    23.104     7.884
     4   7 N        1.918    -0.316    29.041     7.990
     5   6 C        2.926     0.180    24.138     8.057
     6   7 N        2.802    -0.064    22.480     7.042
     7   6 C        3.075     0.052    26.754     8.481
     8   6 C        2.908    -0.051    29.272     8.872
     9   6 C        2.931    -0.039    28.964     8.826
    10   6 C        2.970    -0.001    28.052     8.688
    11   6 C        3.903     0.025    20.100     6.373
    12   6 C        3.761    -0.106    22.573     6.773
    13   6 C        3.761    -0.106    22.570     6.772
    14   6 C        3.761    -0.110    22.656     6.785
    15   6 C        2.922    -0.055    29.362     8.886
    16   6 C        3.055    -0.019    28.426     8.744
    17   6 C        3.045    -0.022    28.519     8.759
    18   6 C        2.967     0.007    27.853     8.657
    19   6 C        3.901     0.027    20.065     6.367
    20   6 C        3.762    -0.110    22.655     6.785
    21   6 C        3.764    -0.109    22.632     6.781
    22   6 C        3.762    -0.110    22.647     6.784
    23   6 C        2.926    -0.054    29.334     8.882
    24   6 C        2.923    -0.038    28.933     8.821
    25   6 C        2.912    -0.055    29.376     8.887
    26   6 C        3.084     0.049    26.807     8.488
    27   6 C        2.958    -0.045    29.123     8.852
    28   6 C        3.755    -0.103    22.530     6.768
    29   6 C        2.925     0.177    24.214     8.070
    30   7 N        2.802    -0.064    22.476     7.041
    31   6 C        3.073     0.046    26.898     8.503
    32   6 C        2.909    -0.054    29.338     8.882
    33   6 C        2.930    -0.039    28.977     8.828
    34   6 C        2.971    -0.001    28.054     8.688
    35   6 C        3.903     0.025    20.098     6.373
    36   6 C        3.761    -0.106    22.572     6.773
    37   6 C        3.761    -0.110    22.657     6.786
    38   6 C        3.761    -0.106    22.564     6.772
    39   6 C        2.922    -0.054    29.338     8.882
    40   6 C        3.055    -0.017    28.386     8.738
    41   6 C        3.046    -0.024    28.555     8.764
    42   6 C        2.967     0.007    27.871     8.659
    43   6 C        3.901     0.027    20.067     6.368
    44   6 C        3.762    -0.110    22.650     6.784
    45   6 C        3.764    -0.109    22.629     6.780
    46   6 C        3.762    -0.110    22.643     6.783
    47   6 C        2.926    -0.053    29.325     8.881
    48   6 C        2.924    -0.037    28.926     8.820
    49   6 C        2.911    -0.053    29.323     8.880
    50   6 C        3.085     0.054    26.693     8.469
    51   7 N        1.901    -0.320    29.136     8.003
    52   1 H        0.925     0.083     1.952     2.185
    53   1 H        0.925     0.073     2.051     2.240
    54   1 H        0.925     0.075     2.026     2.226
    55   1 H        0.926     0.023     2.693     2.566
    56   1 H        0.926     0.033     2.550     2.497
    57   1 H        0.925     0.040     2.447     2.446
    58   1 H        0.925     0.035     2.522     2.484
    59   1 H        0.925     0.033     2.546     2.495
    60   1 H        0.925     0.033     2.538     2.491
    61   1 H        0.925     0.040     2.448     2.447
    62   1 H        0.925     0.035     2.519     2.482
    63   1 H        0.925     0.039     2.461     2.453
    64   1 H        0.925     0.040     2.451     2.448
    65   1 H        0.925     0.039     2.456     2.451
    66   1 H        0.926     0.068     2.108     2.271
    67   1 H        0.925     0.034     2.526     2.485
    68   1 H        0.925     0.045     2.378     2.411
    69   1 H        0.925     0.040     2.451     2.448
    70   1 H        0.925     0.043     2.413     2.429
    71   1 H        0.925     0.035     2.521     2.483
    72   1 H        0.925     0.035     2.515     2.480
    73   1 H        0.925     0.034     2.535     2.490
    74   1 H        0.925     0.045     2.377     2.411
    75   1 H        0.925     0.040     2.449     2.447
    76   1 H        0.926     0.046     2.374     2.410
    77   1 H        0.926     0.030     2.587     2.515
    78   1 H        0.926     0.009     2.907     2.666
    79   1 H        0.925     0.046     2.365     2.405
    80   1 H        0.925     0.047     2.357     2.401
    81   1 H        0.925     0.061     2.183     2.311
    82   1 H        0.926     0.009     2.905     2.665
    83   1 H        0.926     0.032     2.562     2.503
    84   1 H        0.925     0.035     2.523     2.484
    85   1 H        0.925     0.040     2.449     2.447
    86   1 H        0.925     0.034     2.536     2.490
    87   1 H        0.925     0.040     2.453     2.449
    88   1 H        0.925     0.039     2.462     2.454
    89   1 H        0.925     0.040     2.451     2.448
    90   1 H        0.925     0.040     2.446     2.446
    91   1 H        0.925     0.033     2.541     2.493
    92   1 H        0.925     0.034     2.530     2.488
    93   1 H        0.926     0.069     2.101     2.267
    94   1 H        0.925     0.045     2.382     2.413
    95   1 H        0.925     0.040     2.453     2.449
    96   1 H        0.925     0.034     2.533     2.489
    97   1 H        0.925     0.042     2.419     2.432
    98   1 H        0.925     0.035     2.517     2.481
    99   1 H        0.925     0.035     2.522     2.483
   100   1 H        0.925     0.045     2.383     2.414
   101   1 H        0.925     0.039     2.458     2.452
   102   1 H        0.925     0.034     2.529     2.487
   103   1 H        0.926     0.045     2.382     2.414
   104   1 H        0.926     0.030     2.580     2.512
   105   1 H        0.926     0.020     2.729     2.583

molecular dipole:
                 x           y           z       tot (Debye)
 q only:        0.599      -0.926       0.958
   full:        0.821      -1.157       1.067       4.513

 projected vibrational frequencies (cm⁻¹)
eigval :       -0.00    -0.00    -0.00    -0.00     0.00     0.00
eigval :        8.38    13.02    13.37    21.93    25.83    29.57
eigval :       33.07    39.13    44.36    51.40    68.72    72.08
eigval :       75.00    78.32    81.68    87.07    92.82   101.58
eigval :      107.03   112.26   126.55   133.74   138.43   153.14
eigval :      158.00   163.18   168.85   173.96   181.18   183.84
eigval :      189.58   196.10   210.88   214.41   217.61   223.41
eigval :      224.69   226.97   227.94   239.50   244.28   246.39
eigval :      251.24   272.48   272.67   288.90   300.41   306.71
eigval :      312.80   316.71   322.29   325.15   329.19   331.16
eigval :      336.89   339.92   343.73   345.70   346.47   350.34
eigval :      351.50   365.27   366.87   377.05   389.37   409.21
eigval :      423.93   424.85   430.77   432.42   436.40   445.55
eigval :      451.68   453.38   455.00   458.11   486.16   487.13
eigval :      494.25   512.29   514.98   526.95   542.00   551.96
eigval :      554.62   565.94   583.67   602.74   604.16   610.22
eigval :      615.20   618.19   622.24   622.52   637.13   676.23
eigval :      689.76   691.76   692.23   698.96   704.85   722.86
eigval :      723.53   725.68   729.96   769.93   793.24   798.07
eigval :      799.63   801.50   813.15   826.10   830.48   858.35
eigval :      872.49   875.72   879.54   883.99   898.53   899.73
eigval :      902.45   904.21   913.33   914.59   915.20   919.51
eigval :      943.18   945.50   950.22   955.52   958.13   958.34
eigval :      959.11   960.65   961.61   961.97   963.33   964.69
eigval :      965.21   965.69   978.70   980.89  1007.55  1008.30
eigval :     1028.84  1029.19  1032.89  1034.11  1035.30  1035.52
eigval :     1035.78  1036.22  1037.39  1040.09  1042.99  1095.84
eigval :     1120.43  1127.67  1131.55  1134.47  1143.20  1168.13
eigval :     1169.44  1184.59  1187.16  1194.99  1195.74  1221.31
eigval :     1221.92  1223.58  1223.61  1224.99  1225.25  1229.74
eigval :     1229.98  1237.89  1244.94  1246.37  1261.57  1262.55
eigval :     1269.23  1276.86  1280.71  1285.73  1289.52  1304.95
eigval :     1318.28  1321.19  1326.23  1338.18  1338.31  1343.65
eigval :     1351.12  1357.75  1383.39  1385.59  1400.36  1400.98
eigval :     1401.86  1402.13  1402.85  1403.65  1403.86  1405.31
eigval :     1409.45  1416.59  1421.50  1422.23  1423.61  1426.19
eigval :     1427.61  1428.60  1430.82  1431.88  1445.59  1465.28
eigval :     1465.99  1471.54  1473.05  1484.18  1484.84  1485.47
eigval :     1487.12  1488.58  1489.21  1491.93  1492.01  1494.56
eigval :     1496.29  1499.36  1500.24  1501.73  1502.70  1508.23
eigval :     1508.54  1510.13  1511.15  1512.26  1512.62  1513.75
eigval :     1514.01  1516.25  1517.00  1517.56  1528.29  1529.80
eigval :     1530.42  1566.32  1566.65  1573.99  1575.09  1595.25
eigval :     1597.31  1603.78  1604.91  3002.94  3015.88  3017.08
eigval :     3018.85  3018.96  3018.99  3020.03  3020.35  3021.03
eigval :     3021.05  3021.55  3022.20  3023.06  3023.26  3024.15
eigval :     3025.43  3025.54  3025.67  3025.94  3027.14  3027.29
eigval :     3027.68  3029.01  3029.04  3029.65  3034.71  3034.93
eigval :     3035.07  3035.39  3038.30  3038.74  3043.48  3044.83
eigval :     3046.07  3046.85  3048.25  3052.45  3066.58  3072.42
eigval :     3073.65  3076.84  3085.09  3085.25  3085.82  3086.15
eigval :     3087.78  3087.95  3093.86  3095.17  3096.89  3134.11
eigval :     3134.98  3182.30  3183.93

   temp. (K)  partition function   enthalpy   heat capacity  entropy
                                   cal/mol     cal/K/mol   cal/K/mol   J/K/mol
 298.15  VIB  0.173E+24            30692.963    187.265    190.749
         ROT  0.113E+09              888.752      2.981     39.825
         INT  0.195E+32            31581.715    190.246    230.574
         TR   0.177E+29             1481.254      4.968     45.476
         TOT                       33062.9694   195.2144   276.0503  1154.9946

       T/K    H(0)-H(T)+PV         H(T)/Eh          T*S/Eh         G(T)/Eh
   ------------------------------------------------------------------------
    298.15    0.526892E-01    0.931784E+00    0.131160E+00    0.800623E+00
   ------------------------------------------------------------------------

         :::::::::::::::::::::::::::::::::::::::::::::::::::::
         ::                  THERMODYNAMIC                  ::
         :::::::::::::::::::::::::::::::::::::::::::::::::::::
         :: total free energy        -140.393629696462 Eh   ::
         ::.................................................::
         :: total energy             -141.194252892239 Eh   ::
         :: zero point energy           0.879094422383 Eh   ::
         :: G(RRHO) w/o ZPVE           -0.078471226606 Eh   ::
         :: G(RRHO) contrib.            0.800623195777 Eh   ::
         :::::::::::::::::::::::::::::::::::::::::::::::::::::

           -------------------------------------------------
          | TOTAL ENERGY             -141.194252892239 Eh   |
          | TOTAL ENTHALPY           -140.262469274355 Eh   |
          | TOTAL FREE ENERGY        -140.393629696462 Eh   |
          | GRADIENT NORM               0.000112008558 Eh/α |
          | HOMO-LUMO GAP               2.521158372872 eV   |
           -------------------------------------------------

 * finished run on 2025/08/25 at 14:32:21.613
