   * xtb version 6.7.1 (edcfbbe) compiled by 'albert@albert-system' on 2024-07-22

   ID    Z sym.   atoms
    1    6 C      1, 3, 5, 7-29, 31-50
    2   16 S      2
    3    7 N      4, 6, 30, 51
    4    1 H      52-105

          program call               : xtb data2507/toluene/tCbz-mPYRs/tCbz-mPYRs.xyz --gfn 2 --gbsa toluene --ohess vtight --parallel 40 --molden --ceasefiles --namespace data2507/toluene/tCbz-mPYRs/tCbz-mPYRs_toluene_S0_preOpt
      * Solvation model:               GBSA
        Solvent                        toluene
        Solvent mass                       9.2140E+01 g/mol
          :  Hamiltonian                  GFN2-xTB          :
 * total energy  :  -141.1584037 Eh     change       -0.2086438E-08 Eh
 * total energy  :  -141.1802874 Eh     change       -0.2188367E-01 Eh
 * total energy  :  -141.1871497 Eh     change       -0.6862389E-02 Eh
 * total energy  :  -141.1891408 Eh     change       -0.1991050E-02 Eh
 * total energy  :  -141.1905530 Eh     change       -0.1412205E-02 Eh
 * total energy  :  -141.1913037 Eh     change       -0.7507101E-03 Eh
 * total energy  :  -141.1917992 Eh     change       -0.4955392E-03 Eh
 * total energy  :  -141.1922142 Eh     change       -0.4149834E-03 Eh
 * total energy  :  -141.1925598 Eh     change       -0.3455750E-03 Eh
 * total energy  :  -141.1928316 Eh     change       -0.2718352E-03 Eh
 * total energy  :  -141.1939395 Eh     change       -0.4839464E-06 Eh
 * total energy  :  -141.1939401 Eh     change       -0.5778527E-06 Eh
 * total energy  :  -141.1939407 Eh     change       -0.6005580E-06 Eh
 * total energy  :  -141.1939413 Eh     change       -0.6016558E-06 Eh
 * total energy  :  -141.1939419 Eh     change       -0.6478754E-06 Eh
 * total energy  :  -141.1939425 Eh     change       -0.5981108E-06 Eh
 * total energy  :  -141.1939430 Eh     change       -0.5108399E-06 Eh
 * total energy  :  -141.1939435 Eh     change       -0.4386127E-06 Eh
 * total energy  :  -141.1939435 Eh     change       -0.6800263E-08 Eh
   *** GEOMETRY OPTIMIZATION CONVERGED AFTER 68 ITERATIONS ***

 final structure:
================
105
 xtb: 6.7.1 (edcfbbe)
C            1.69611641057725        3.38621976845641        4.07984563454728
S           -0.08613885788602        3.15148000288228        3.79935384400541
C           -0.06143540630184        1.85275034297505        2.63377807797867
N           -1.24269448093780        1.40427157603522        2.24855684475155
C           -1.25622045326653        0.45472847906754        1.31930380338719
N           -2.50701120714841        0.01945832076234        0.91215532683901
C           -3.56505460849270        0.83352355955077        0.55161952618423
C           -3.60458212493620        2.21607791293900        0.51650631592013
C           -4.75917347139773        2.82313487910251        0.07259591739767
C           -5.86793290463963        2.08022337379986       -0.34624310646634
C           -7.11126019492550        2.82213016959563       -0.82104641192593
C           -7.63829564667540        3.69672652164914        0.32656426902383
C           -6.74167022733643        3.70618646400733       -2.02177867033009
C           -8.23945807894204        1.88167015277322       -1.25655469250256
C           -5.80167429972518        0.69589640080424       -0.31396151385000
C           -4.65390280058140        0.03929478541297        0.13448502060723
C           -4.25086899817197       -1.35071957115322        0.30656015350738
C           -4.84737016570024       -2.61613076886473        0.12954582057406
C           -6.25100817388480       -2.79859226416063       -0.43012526794667
C           -7.25580332401084       -2.15462324344211        0.54098527524497
C           -6.67042225119577       -4.26916595982461       -0.57373470924933
C           -6.30303801468597       -2.19917229846836       -1.84619225076165
C           -4.09850217971604       -3.72480846775916        0.50197752276000
C           -2.82925714296097       -3.63750525410352        1.05852332804888
C           -2.22455965163682       -2.41225370524884        1.22806876638826
C           -2.92693108080545       -1.29420410568525        0.81045827416238
C           -0.08049449384714       -0.04340581793408        0.73294700871232
C           -0.08605756812395       -0.88219756534543       -0.50510326504259
C            1.10149884379744        0.44907635320818        1.29895393466896
N            2.34759859576264        0.01265764106408        0.87086664851791
C            3.38787166366206        0.82527620934888        0.46353279429758
C            3.40271084016590        2.20317871429664        0.36091852115077
C            4.54259608024850        2.81658813193435       -0.12017594346282
C            5.65733932084645        2.07458306243022       -0.51137370479494
C            6.92544062779931        2.72795327981881       -1.04792993747046
C            7.18154416906537        2.23019499165990       -2.47858810510977
C            8.10957146280947        2.34862025456369       -0.14593679780657
C            6.83202447997934        4.25647004506787       -1.08834620339398
C            5.61299322797759        0.68843013980402       -0.41658796244508
C            4.48671503381999        0.02934995422876        0.07091075075815
C            4.10351974918123       -1.35765102851538        0.30266884435242
C            4.71568299530107       -2.62111249276205        0.17278902565841
C            6.12249975122034       -2.80606648300232       -0.37800328218213
C            6.56823705069581       -4.27408760331511       -0.44986627885117
C            7.11651155219442       -2.09782376041886        0.55879842039653
C            6.16195180517505       -2.27483574833200       -1.82131084070482
C            3.97886050472192       -3.72489796200114        0.58193906058536
C            2.70644220301217       -3.63349247973777        1.13075827564317
C            2.08867403089343       -2.40990452796755        1.26090322933194
C            2.78118491535463       -1.29847454469780        0.81059361248446
N            1.11051808167052        1.39688920445950        2.23405538275363
H            2.16337254846182        3.73051649778254        3.16368359584230
H            1.78373825334864        4.13361455991622        4.86089073402126
H            2.13149995514868        2.44338303619854        4.39279927056967
H           -2.75799012323199        2.79795728143358        0.84714464661522
H           -4.79309708609088        3.90140023727472        0.05521406812478
H           -8.53824334412259        4.22226858561893        0.01392150590953
H           -6.90289460605091        4.43507631475428        0.63409948453698
H           -7.88030418201877        3.07897029740307        1.18932199558366
H           -6.34826167530209        3.09497382202454       -2.83190268468987
H           -7.62226108233936        4.23334652729041       -2.38288122292029
H           -5.98965113871808        4.44411898693046       -1.75655370430897
H           -9.09161406070531        2.47251523788268       -1.58677086373376
H           -7.92705225166144        1.25257489890747       -2.08660889697633
H           -8.56745874344056        1.25462276989100       -0.43108377231335
H           -6.65252075964826        0.13083979122825       -0.64061642280625
H           -7.38395239000772       -2.80267483970689        1.40654954370163
H           -6.91666905201579       -1.19260066119098        0.90694873886380
H           -8.22500633848397       -2.03397620143506        0.06157542526721
H           -7.67422709949534       -4.30243991119395       -0.99330983759970
H           -6.00906635603158       -4.81070289401132       -1.24640019916125
H           -6.69554466650567       -4.77661972682966        0.38791908044956
H           -7.33456593423377       -2.08822430589295       -2.17386322938450
H           -5.79801491318613       -2.87103616767275       -2.53853980172820
H           -5.80563974269606       -1.23859504402669       -1.90752390629179
H           -4.51175853312476       -4.71131886874068        0.38423555510955
H           -2.31862382395679       -4.53845802298629        1.36521719850713
H           -1.25693758290065       -2.31893594660654        1.69684490433874
H            0.79128298747820       -0.65156825573628       -1.10828215677175
H           -0.98190834060011       -0.67286219536755       -1.08790365095540
H           -0.07017828211082       -1.95047385712346       -0.29314594987414
H            2.54154130350372        2.78296784162097        0.65718507464685
H            4.54681224965041        3.89143978049494       -0.18897225466089
H            6.32989560234912        2.46183218932036       -3.11558913299037
H            8.06305261598764        2.71654282249038       -2.89100851391961
H            7.34381212454890        1.15658149686672       -2.50356661583029
H            8.27844128286196        1.27581301985020       -0.14044461008578
H            9.01757821126888        2.83337922608646       -0.49843182933522
H            7.92177224749094        2.66978553431759        0.87684813780326
H            7.76378116609406        4.66487703020861       -1.47477077929251
H            6.67386919312691        4.66654240108293       -0.09336493071451
H            6.02685485594771        4.58352329220646       -1.74260037389970
H            6.47551301275090        0.13156333907025       -0.73255001933004
H            5.92287551255914       -4.85780824063520       -1.10244005088032
H            7.57636655231193       -4.30938484281809       -0.85884519981365
H            6.59284963519401       -4.73590911647368        0.53456729510132
H            8.08380829375492       -1.98556744085380        0.07313991176483
H            6.76189333039641       -1.12455258339263        0.87707992612229
H            7.25604618206487       -2.69980970324030        1.45523485552077
H            5.65706006402393       -1.32182409022426       -1.92521123395330
H            5.65709189513225       -2.98212532914102       -2.47746155278285
H            7.19070486302829       -2.17334714783251       -2.16121285509525
H            4.40338767672239       -4.71010864847168        0.49827797622757
H            2.20362467953467       -4.52993526261910        1.46257051076761
H            1.11762822596525       -2.31208655284423        1.72193053032138

          :  Hamiltonian                  GFN2-xTB          :
         :: gradient norm              0.000051106188 Eh/a0 ::
         :: HOMO-LUMO gap              2.524150434231 eV    ::
         :: SCC energy              -143.511300176900 Eh    ::
         :: -> dispersion             -0.140564889644 Eh    ::
         :: -> Gsolv                  -0.055681607467 Eh    ::
         :: repulsion energy           2.317356718649 Eh    ::

    * Orbital Energies and Occupations

         #    Occupation            Energy/Eh            Energy/eV
      -------------------------------------------------------------
         1        2.0000           -0.7309589             -19.8904
       ...           ...                  ...                  ...
       120        2.0000           -0.4191258             -11.4050
       121        2.0000           -0.4133906             -11.2489
       122        2.0000           -0.4122128             -11.2169
       123        2.0000           -0.4109083             -11.1814
       124        2.0000           -0.4093753             -11.1397
       125        2.0000           -0.4007142             -10.9040
       126        2.0000           -0.3995664             -10.8728
       127        2.0000           -0.3873435             -10.5402
       128        2.0000           -0.3835752             -10.4376
       129        2.0000           -0.3817093             -10.3868
       130        2.0000           -0.3796480             -10.3307
       131        2.0000           -0.3694851             -10.0542
       132        2.0000           -0.3676566             -10.0044 (HOMO)
       133                         -0.2748958              -7.4803 (LUMO)
       134                         -0.2607918              -7.0965
       135                         -0.2479746              -6.7477
       136                         -0.2460921              -6.6965
       137                         -0.2248086              -6.1174
       138                         -0.2227291              -6.0608
       139                         -0.2103659              -5.7243
       140                         -0.2006084              -5.4588
       141                         -0.1932049              -5.2574
       142                         -0.1915919              -5.2135
       143                         -0.1905209              -5.1843
       ...                                ...                  ...
       263                          0.7216704              19.6376
      -------------------------------------------------------------
                  HL-Gap            0.0927608 Eh            2.5242 eV

     #   Z          covCN         q      C6AA      α(0)
     1   6 C        3.745    -0.057    21.677     6.642
     2  16 S        2.078    -0.138   146.860    20.396
     3   6 C        2.959     0.234    23.104     7.884
     4   7 N        1.919    -0.316    29.043     7.990
     5   6 C        2.925     0.180    24.144     8.058
     6   7 N        2.802    -0.064    22.475     7.041
     7   6 C        3.074     0.052    26.755     8.481
     8   6 C        2.908    -0.051    29.269     8.871
     9   6 C        2.930    -0.039    28.965     8.826
    10   6 C        2.970    -0.001    28.049     8.687
    11   6 C        3.903     0.025    20.100     6.373
    12   6 C        3.761    -0.106    22.570     6.772
    13   6 C        3.761    -0.106    22.574     6.773
    14   6 C        3.761    -0.110    22.656     6.785
    15   6 C        2.922    -0.055    29.364     8.886
    16   6 C        3.055    -0.019    28.424     8.743
    17   6 C        3.045    -0.022    28.519     8.759
    18   6 C        2.967     0.007    27.855     8.657
    19   6 C        3.901     0.027    20.065     6.367
    20   6 C        3.762    -0.110    22.645     6.784
    21   6 C        3.764    -0.109    22.632     6.781
    22   6 C        3.762    -0.110    22.657     6.785
    23   6 C        2.926    -0.054    29.330     8.881
    24   6 C        2.923    -0.037    28.932     8.821
    25   6 C        2.912    -0.055    29.373     8.887
    26   6 C        3.083     0.049    26.813     8.489
    27   6 C        2.958    -0.045    29.126     8.852
    28   6 C        3.755    -0.103    22.529     6.768
    29   6 C        2.926     0.177    24.216     8.070
    30   7 N        2.802    -0.064    22.482     7.042
    31   6 C        3.074     0.052    26.769     8.483
    32   6 C        2.909    -0.052    29.298     8.876
    33   6 C        2.927    -0.044    29.090     8.845
    34   6 C        2.970    -0.001    28.055     8.688
    35   6 C        3.903     0.025    20.099     6.373
    36   6 C        3.761    -0.107    22.593     6.776
    37   6 C        3.761    -0.107    22.597     6.776
    38   6 C        3.761    -0.108    22.606     6.778
    39   6 C        2.924    -0.050    29.233     8.867
    40   6 C        3.054    -0.018    28.408     8.741
    41   6 C        3.045    -0.023    28.524     8.760
    42   6 C        2.967     0.007    27.855     8.657
    43   6 C        3.901     0.027    20.066     6.367
    44   6 C        3.764    -0.109    22.628     6.780
    45   6 C        3.762    -0.109    22.632     6.782
    46   6 C        3.762    -0.109    22.634     6.782
    47   6 C        2.926    -0.054    29.329     8.881
    48   6 C        2.923    -0.037    28.921     8.819
    49   6 C        2.911    -0.055    29.378     8.888
    50   6 C        3.083     0.049    26.803     8.487
    51   7 N        1.901    -0.319    29.130     8.002
    52   1 H        0.925     0.074     2.041     2.234
    53   1 H        0.925     0.083     1.951     2.184
    54   1 H        0.925     0.074     2.040     2.233
    55   1 H        0.926     0.024     2.679     2.560
    56   1 H        0.926     0.033     2.548     2.496
    57   1 H        0.925     0.040     2.448     2.447
    58   1 H        0.925     0.035     2.517     2.481
    59   1 H        0.925     0.033     2.540     2.492
    60   1 H        0.925     0.033     2.544     2.494
    61   1 H        0.925     0.040     2.447     2.446
    62   1 H        0.925     0.035     2.522     2.483
    63   1 H        0.925     0.039     2.461     2.453
    64   1 H        0.925     0.040     2.455     2.450
    65   1 H        0.925     0.040     2.452     2.449
    66   1 H        0.926     0.068     2.107     2.270
    67   1 H        0.925     0.034     2.532     2.489
    68   1 H        0.925     0.045     2.379     2.412
    69   1 H        0.925     0.040     2.447     2.446
    70   1 H        0.925     0.043     2.413     2.429
    71   1 H        0.925     0.035     2.516     2.480
    72   1 H        0.925     0.035     2.521     2.483
    73   1 H        0.925     0.040     2.452     2.449
    74   1 H        0.925     0.034     2.528     2.486
    75   1 H        0.925     0.046     2.376     2.411
    76   1 H        0.926     0.046     2.374     2.409
    77   1 H        0.926     0.030     2.584     2.514
    78   1 H        0.926     0.009     2.899     2.663
    79   1 H        0.925     0.047     2.358     2.401
    80   1 H        0.925     0.047     2.362     2.404
    81   1 H        0.925     0.061     2.190     2.314
    82   1 H        0.926     0.019     2.751     2.594
    83   1 H        0.926     0.040     2.454     2.450
    84   1 H        0.925     0.031     2.566     2.505
    85   1 H        0.925     0.040     2.448     2.447
    86   1 H        0.925     0.040     2.444     2.445
    87   1 H        0.925     0.041     2.442     2.444
    88   1 H        0.925     0.040     2.450     2.448
    89   1 H        0.925     0.032     2.551     2.498
    90   1 H        0.925     0.039     2.466     2.455
    91   1 H        0.925     0.035     2.511     2.478
    92   1 H        0.925     0.035     2.523     2.484
    93   1 H        0.926     0.060     2.200     2.320
    94   1 H        0.925     0.035     2.516     2.480
    95   1 H        0.925     0.042     2.418     2.432
    96   1 H        0.925     0.035     2.519     2.482
    97   1 H        0.925     0.038     2.470     2.458
    98   1 H        0.925     0.046     2.374     2.410
    99   1 H        0.925     0.034     2.530     2.487
   100   1 H        0.925     0.045     2.378     2.412
   101   1 H        0.925     0.034     2.529     2.487
   102   1 H        0.925     0.038     2.472     2.459
   103   1 H        0.926     0.045     2.378     2.412
   104   1 H        0.926     0.030     2.586     2.515
   105   1 H        0.926     0.009     2.904     2.665

molecular dipole:
                 x           y           z       tot (Debye)
 q only:        0.615      -0.299      -1.169
   full:        0.805      -0.624      -1.301       4.199

 projected vibrational frequencies (cm⁻¹)
eigval :       -0.00    -0.00    -0.00     0.00     0.00     0.00
eigval :        9.75    11.70    13.65    23.34    27.73    32.20
eigval :       33.53    35.70    44.69    47.61    57.28    71.81
eigval :       73.79    74.99    82.27    85.88    87.88    90.49
eigval :      105.48   107.93   122.49   124.39   137.69   151.70
eigval :      159.02   164.56   172.37   175.21   183.50   190.04
eigval :      192.11   197.19   211.26   214.99   218.58   221.95
eigval :      224.83   226.44   231.87   232.46   240.88   247.84
eigval :      265.68   269.23   272.06   290.53   300.45   308.96
eigval :      313.39   320.01   320.98   326.05   328.38   332.44
eigval :      336.40   338.95   342.01   343.32   346.65   350.46
eigval :      351.54   365.06   368.81   378.59   388.86   407.97
eigval :      423.17   425.43   429.82   432.36   435.54   440.24
eigval :      452.23   454.84   457.67   460.45   484.77   487.07
eigval :      494.52   511.74   514.38   527.23   542.10   552.14
eigval :      554.60   564.74   582.03   602.95   606.71   608.05
eigval :      615.56   620.15   620.87   621.55   635.17   676.47
eigval :      688.94   690.02   691.36   697.53   706.60   721.14
eigval :      722.36   723.45   729.29   775.75   791.85   798.37
eigval :      799.64   801.92   812.31   816.70   823.48   858.08
eigval :      874.02   874.15   878.74   886.61   888.43   899.20
eigval :      904.38   905.11   909.35   909.54   913.77   917.02
eigval :      941.86   942.86   952.88   954.32   958.65   959.25
eigval :      960.18   960.60   961.73   962.30   963.31   963.90
eigval :      964.51   966.66   978.63   981.80  1008.36  1009.18
eigval :     1029.50  1030.43  1034.48  1035.09  1035.27  1035.95
eigval :     1037.36  1037.51  1037.81  1040.33  1044.94  1094.45
eigval :     1121.68  1123.95  1133.07  1135.22  1142.61  1167.96
eigval :     1170.06  1186.57  1188.65  1194.67  1195.49  1221.39
eigval :     1221.98  1223.27  1223.88  1225.54  1226.86  1229.77
eigval :     1230.78  1238.10  1244.48  1247.53  1260.77  1261.40
eigval :     1268.78  1276.14  1280.76  1285.70  1287.95  1305.69
eigval :     1315.56  1319.06  1325.34  1337.40  1339.20  1347.21
eigval :     1350.74  1358.44  1383.20  1386.08  1400.57  1401.33
eigval :     1402.61  1402.81  1403.21  1403.63  1404.35  1405.23
eigval :     1408.50  1417.84  1419.82  1421.80  1425.34  1426.74
eigval :     1427.25  1429.10  1431.40  1432.05  1446.77  1458.28
eigval :     1465.77  1472.13  1472.54  1483.83  1484.86  1485.65
eigval :     1486.22  1488.47  1489.55  1491.84  1492.11  1495.29
eigval :     1496.95  1499.06  1499.70  1501.35  1503.60  1509.47
eigval :     1510.51  1510.74  1511.38  1512.96  1513.72  1514.09
eigval :     1514.65  1517.22  1518.88  1519.46  1528.06  1530.53
eigval :     1531.10  1565.73  1566.75  1574.78  1577.44  1595.02
eigval :     1595.75  1603.83  1606.24  3001.39  3016.01  3016.59
eigval :     3018.15  3018.45  3019.12  3020.41  3020.55  3020.71
eigval :     3020.99  3021.33  3021.60  3022.03  3023.19  3024.71
eigval :     3024.89  3025.51  3025.68  3025.75  3025.93  3027.37
eigval :     3028.62  3029.09  3029.15  3029.17  3031.07  3035.01
eigval :     3035.08  3035.44  3036.30  3038.68  3044.77  3046.58
eigval :     3048.19  3048.53  3052.17  3052.72  3066.31  3073.21
eigval :     3074.66  3082.77  3085.23  3085.44  3085.72  3086.19
eigval :     3086.94  3087.89  3089.54  3097.15  3120.91  3134.88
eigval :     3134.97  3155.24  3182.65

   temp. (K)  partition function   enthalpy   heat capacity  entropy
                                   cal/mol     cal/K/mol   cal/K/mol   J/K/mol
 298.15  VIB  0.225E+24            30738.359    187.018    191.227
         ROT  0.114E+09              888.752      2.981     39.849
         INT  0.257E+32            31627.112    189.999    231.077
         TR   0.177E+29             1481.254      4.968     45.476
         TOT                       33108.3655   194.9669   276.5532  1157.0987

       T/K    H(0)-H(T)+PV         H(T)/Eh          T*S/Eh         G(T)/Eh
   ------------------------------------------------------------------------
    298.15    0.527615E-01    0.931754E+00    0.131399E+00    0.800355E+00
   ------------------------------------------------------------------------

         :::::::::::::::::::::::::::::::::::::::::::::::::::::
         ::                  THERMODYNAMIC                  ::
         :::::::::::::::::::::::::::::::::::::::::::::::::::::
         :: total free energy        -140.393588773921 Eh   ::
         ::.................................................::
         :: total energy             -141.193943457964 Eh   ::
         :: zero point energy           0.878992501796 Eh   ::
         :: G(RRHO) w/o ZPVE           -0.078637817752 Eh   ::
         :: G(RRHO) contrib.            0.800354684043 Eh   ::
         :::::::::::::::::::::::::::::::::::::::::::::::::::::

           -------------------------------------------------
          | TOTAL ENERGY             -141.193943457964 Eh   |
          | TOTAL ENTHALPY           -140.262189417397 Eh   |
          | TOTAL FREE ENERGY        -140.393588773921 Eh   |
          | GRADIENT NORM               0.000051115998 Eh/α |
          | HOMO-LUMO GAP               2.524150538017 eV   |
           -------------------------------------------------

 * finished run on 2025/08/25 at 14:15:45.366
