   * xtb version 6.7.1 (edcfbbe) compiled by 'albert@albert-system' on 2024-07-22

   ID    Z sym.   atoms
    1    6 C      1, 3, 5, 7-29, 31-50
    2   16 S      2
    3    7 N      4, 6, 30, 51
    4    1 H      52-105

          program call               : xtb data2507/toluene/tCbz-mPYRs/tCbz-mPYRs_toluene_T1_crest.xyz --gfn 2 --uhf 2 --gbsa toluene --ohess vtight --parallel 40 --molden --ceasefiles --namespace data2507/toluene/tCbz-mPYRs/tCbz-mPYRs_toluene_T1_finalOpt
      * Solvation model:               GBSA
        Solvent                        toluene
        Solvent mass                       9.2140E+01 g/mol
          :  Hamiltonian                  GFN2-xTB          :
 * total energy  :  -141.0935668 Eh     change       -0.1047960E-07 Eh
 * total energy  :  -141.0937555 Eh     change       -0.1887156E-03 Eh
 * total energy  :  -141.0938463 Eh     change       -0.9072679E-04 Eh
 * total energy  :  -141.0938815 Eh     change       -0.3523317E-04 Eh
 * total energy  :  -141.0939220 Eh     change       -0.4052866E-04 Eh
 * total energy  :  -141.0939377 Eh     change       -0.1564921E-04 Eh
 * total energy  :  -141.0939698 Eh     change       -0.3213230E-04 Eh
 * total energy  :  -141.0939846 Eh     change       -0.1478037E-04 Eh
 * total energy  :  -141.0939970 Eh     change       -0.1244749E-04 Eh
 * total energy  :  -141.0940059 Eh     change       -0.8886718E-05 Eh
 * total energy  :  -141.0941469 Eh     change       -0.1191023E-05 Eh
 * total energy  :  -141.0941480 Eh     change       -0.1063485E-05 Eh
 * total energy  :  -141.0941491 Eh     change       -0.1080432E-05 Eh
 * total energy  :  -141.0941502 Eh     change       -0.1163472E-05 Eh
 * total energy  :  -141.0941515 Eh     change       -0.1306559E-05 Eh
 * total energy  :  -141.0941528 Eh     change       -0.1264672E-05 Eh
 * total energy  :  -141.0941538 Eh     change       -0.1000465E-05 Eh
 * total energy  :  -141.0941546 Eh     change       -0.7823583E-06 Eh
 * total energy  :  -141.0941546 Eh     change       -0.4726797E-07 Eh
   *** GEOMETRY OPTIMIZATION CONVERGED AFTER 44 ITERATIONS ***

 final structure:
================
105
 xtb: 6.7.1 (edcfbbe)
C            1.33021335520685        4.58648654428560       -2.99474160920318
S           -0.38921472904016        4.01878491975420       -2.79881153292119
C           -0.17235381671545        2.54516019523268       -1.85067936031383
N           -1.28007062231768        1.88786901498717       -1.61686960558336
C           -1.17979732625270        0.76742748547956       -0.82087891664836
N           -2.36601608819220        0.10200786619406       -0.53449650831493
C           -3.50258974226410        0.67263381069442       -0.02688371567492
C           -3.72232449579974        2.00887195569744        0.27806373758616
C           -4.94894627946628        2.36785369302263        0.78777626578055
C           -5.96188898680884        1.41975544913009        1.00223315384805
C           -7.29451579710602        1.89050328149080        1.56458323543179
C           -7.05791443701274        2.53816495446344        2.93811594434193
C           -7.90423044460763        2.92241699606736        0.60259504913085
C           -8.30680583519306        0.75490732264124        1.74479711845256
C           -5.72107302037172        0.08506761961377        0.69510862307860
C           -4.49163941206637       -0.32678154516531        0.18299873602632
C           -3.90482326178961       -1.58437351937210       -0.24513463149071
C           -4.30503312788050       -2.93418510898936       -0.31546685659696
C           -5.65538229900245       -3.42328240719097        0.18568429452844
C           -5.78209283866351       -3.08765870303040        1.68155436851411
C           -5.84239470534220       -4.94323850424853        0.07060306082132
C           -6.75848943614140       -2.78033283311703       -0.67324037573430
C           -3.40634969584609       -3.83221125086477       -0.88463349970316
C           -2.16673299807309       -3.46192235975163       -1.39443520268371
C           -1.74497687823466       -2.15218030492514       -1.31087635829609
C           -2.60137308210478       -1.24515132002553       -0.70884788058929
C            0.04267154200012        0.37984958996452       -0.26136977677604
C            0.12004654245658       -0.64356050636800        0.83073023684846
C            1.16098969517256        1.10611294183824       -0.67578171545146
N            2.44775311699731        0.80364340990286       -0.24135221702425
C            3.07036049465708       -0.41233548547528       -0.34957419843405
C            2.60833468405715       -1.55874234683766       -0.98133567844798
C            3.40271718357537       -2.68181625383810       -0.96834878432557
C            4.65580414289115       -2.68666408703848       -0.33486551358650
C            5.46636016544977       -3.97402286757455       -0.33153570036417
C            6.79745990251545       -3.84331385582036        0.41514710915130
C            5.77197832935446       -4.37634708265243       -1.78294092763404
C            4.64641830876818       -5.07969538934285        0.35200772443192
C            5.12448223082168       -1.51693943123864        0.24854311011935
C            4.36165643526754       -0.34852390617041        0.24081290144386
C            4.53893310206430        1.01896096115071        0.69414803921939
C            5.55669681003764        1.77050753136084        1.31565074526631
C            6.91105466058422        1.18295292910448        1.68295800680167
C            6.69972694301524        0.07429095878334        2.72901245769481
C            7.87363518953447        2.19871678691116        2.31534132181586
C            7.59692984851724        0.68112855078009        0.40047626961132
C            5.27930822097216        3.10728240270902        1.58940683649932
C            4.07190027704387        3.72266065465019        1.27884391410381
C            3.06777056701326        3.01108713231576        0.65755970817276
C            3.32107461889352        1.68089985010389        0.36719257508358
N            1.04249422837838        2.21479810390645       -1.48903747172547
H            1.56737350902015        4.60880026063348       -4.05348801789287
H            1.41604546471744        5.57964682566077       -2.56575831115552
H            1.95528118439751        3.87222084654808       -2.46636221141814
H           -2.94809576161229        2.73977545791770        0.10161596249210
H           -5.12254211944205        3.40575655187548        1.02357165697537
H           -8.00361749132410        2.87116614590882        3.36027560955057
H           -6.39736489526774        3.39756079199326        2.86514986613192
H           -6.60828803281599        1.81931613314343        3.62046492626541
H           -8.05506299330946        2.47810690670125       -0.37932377792657
H           -8.86647857392681        3.26100566581029        0.98083468116972
H           -7.26025668216952        3.78966352619415        0.48700700753275
H           -9.23219291492132        1.16095060420809        2.14833706857779
H           -8.53748711758327        0.28065236386440        0.79398752549280
H           -7.93820805832537        0.00712199138573        2.44276125876937
H           -6.50486834540194       -0.62950380419366        0.85689326021345
H           -6.81012461956579       -3.21797805902597        2.01285621870456
H           -5.15206306592205       -3.76551701179097        2.25538737658346
H           -5.46173020192659       -2.07774848447839        1.90711233163777
H           -6.82069001025345       -5.20241576335696        0.47108663681361
H           -5.80923091770662       -5.27615945694167       -0.96425255464155
H           -5.09250463654841       -5.48332095923082        0.64436487714584
H           -6.80274144488231       -3.28344655665971       -1.63776319274497
H           -6.56840079533484       -1.73101514297125       -0.86645485728653
H           -7.72754262213773       -2.88681033174494       -0.19039743969234
H           -3.67303841760507       -4.87192019674418       -0.96203909815385
H           -1.53764774034558       -4.20595272631414       -1.85950299874969
H           -0.79983103696032       -1.82874841374805       -1.71984760066601
H           -0.78575436010409       -0.60976714866012        1.43493512931847
H            0.97519266915287       -0.44156259125552        1.47363394889354
H            0.22312406668153       -1.65699110793647        0.44551883335853
H            1.65510720316078       -1.55609922040601       -1.48846378700395
H            3.04445609876216       -3.57034624162016       -1.46370667861355
H            6.63817081596155       -3.57152574999167        1.45591692854243
H            7.31547231852635       -4.80006808920084        0.39459532210017
H            7.44185987586415       -3.10564279789960       -0.05668630068029
H            6.33393886577763       -3.58878404229247       -2.28136722606820
H            6.36519385465466       -5.28812839533807       -1.79977193674247
H            4.86087139304960       -4.55340928256473       -2.34776326709945
H            5.21640177799638       -6.00607182815766        0.37430385397726
H            3.71376872496273       -5.26788952583955       -0.17237815225231
H            4.41044824475731       -4.79457651104356        1.37551179170208
H            6.09554904493240       -1.52264531052930        0.70431318213755
H            5.85543819987580       -0.56107245494635        2.48903518923567
H            7.59430408021941       -0.53807069753844        2.82066381044576
H            6.49838854427439        0.52815488509209        3.69801818421427
H            8.81348285313444        1.69479224594387        2.53353882427167
H            8.08655423553552        3.02360109842050        1.63907359627678
H            7.48393373100011        2.59464168970850        3.25040769265298
H            6.92081429686935        0.12782377071106       -0.24021165181692
H            8.44958133529313        0.05212070697920        0.64769280056115
H            7.95924676410943        1.53484004070996       -0.17006289715405
H            6.02635181922015        3.71600484062427        2.06875870787886
H            3.92440834832587        4.76272935149859        1.52813365573643
H            2.12162930440537        3.45967367902913        0.39803156751201

          :  Hamiltonian                  GFN2-xTB          :
         :: gradient norm              0.000066235563 Eh/a0 ::
         :: HOMO-LUMO gap              0.308088447983 eV    ::
         :: SCC energy              -143.391994541443 Eh    ::
         :: -> dispersion             -0.139781971136 Eh    ::
         :: -> Gsolv                  -0.057205304362 Eh    ::
         :: repulsion energy           2.297839713045 Eh    ::

    * Orbital Energies and Occupations

         #    Occupation            Energy/Eh            Energy/eV
      -------------------------------------------------------------
         1        2.0000           -0.7189638             -19.5640
       ...           ...                  ...                  ...
       121        2.0000           -0.4136965             -11.2573
       122        2.0000           -0.4115546             -11.1990
       123        2.0000           -0.4111911             -11.1891
       124        2.0000           -0.4061349             -11.0515
       125        2.0000           -0.4015368             -10.9264
       126        2.0000           -0.4012504             -10.9186
       127        2.0000           -0.3807391             -10.3604
       128        2.0000           -0.3804852             -10.3535
       129        1.9995           -0.3735955             -10.1661
       130        1.9980           -0.3722764             -10.1302
       131        1.5895           -0.3667200              -9.9790
       132        1.4130           -0.3660425              -9.9605
       133        0.9974           -0.2613875              -7.1127 (HOMO)
       134        0.0025           -0.2500661              -6.8046 (LUMO)
       135        0.0001           -0.2465375              -6.7086
       136                         -0.2347606              -6.3882
       137                         -0.2258154              -6.1447
       138                         -0.2255152              -6.1366
       139                         -0.2021222              -5.5000
       140                         -0.1972507              -5.3675
       141                         -0.1939609              -5.2779
       142                         -0.1920040              -5.2247
       143                         -0.1915045              -5.2111
       144                         -0.1417347              -3.8568
       ...                                ...                  ...
       263                          0.7191901              19.5702
      -------------------------------------------------------------
                  HL-Gap            0.0113214 Eh            0.3081 eV

     #   Z          covCN         q      C6AA      α(0)
     1   6 C        3.744    -0.060    21.731     6.650
     2  16 S        2.080    -0.170   148.230    20.491
     3   6 C        2.918     0.246    22.884     7.845
     4   7 N        1.919    -0.334    29.517     8.055
     5   6 C        2.902     0.118    25.411     8.265
     6   7 N        2.795    -0.030    21.828     6.939
     7   6 C        3.083     0.052    26.746     8.478
     8   6 C        2.907    -0.042    29.031     8.835
     9   6 C        2.927    -0.041    29.028     8.836
    10   6 C        2.970     0.008    27.828     8.653
    11   6 C        3.903     0.026    20.075     6.369
    12   6 C        3.761    -0.106    22.578     6.774
    13   6 C        3.761    -0.106    22.574     6.773
    14   6 C        3.761    -0.111    22.677     6.788
    15   6 C        2.919    -0.051    29.278     8.873
    16   6 C        3.054    -0.017    28.387     8.738
    17   6 C        3.042    -0.025    28.579     8.768
    18   6 C        2.966     0.010    27.781     8.646
    19   6 C        3.901     0.027    20.058     6.366
    20   6 C        3.762    -0.111    22.667     6.787
    21   6 C        3.764    -0.110    22.641     6.782
    22   6 C        3.762    -0.110    22.648     6.784
    23   6 C        2.925    -0.048    29.185     8.859
    24   6 C        2.922    -0.041    29.009     8.832
    25   6 C        2.911    -0.045    29.124     8.849
    26   6 C        3.093     0.045    26.880     8.498
    27   6 C        2.953    -0.028    28.688     8.785
    28   6 C        3.756    -0.102    22.495     6.763
    29   6 C        2.903     0.117    25.419     8.267
    30   7 N        2.795    -0.035    21.914     6.953
    31   6 C        3.081     0.045    26.913     8.505
    32   6 C        2.907    -0.046    29.151     8.853
    33   6 C        2.927    -0.042    29.053     8.839
    34   6 C        2.970     0.005    27.896     8.663
    35   6 C        3.903     0.026    20.080     6.370
    36   6 C        3.761    -0.111    22.666     6.787
    37   6 C        3.761    -0.106    22.565     6.772
    38   6 C        3.761    -0.106    22.572     6.773
    39   6 C        2.919    -0.052    29.301     8.877
    40   6 C        3.053    -0.018    28.395     8.739
    41   6 C        3.043    -0.026    28.620     8.774
    42   6 C        2.966     0.010    27.796     8.648
    43   6 C        3.901     0.027    20.058     6.366
    44   6 C        3.762    -0.110    22.646     6.784
    45   6 C        3.764    -0.109    22.634     6.781
    46   6 C        3.762    -0.110    22.648     6.784
    47   6 C        2.924    -0.048    29.186     8.859
    48   6 C        2.922    -0.040    29.001     8.831
    49   6 C        2.911    -0.044    29.090     8.844
    50   6 C        3.092     0.051    26.761     8.479
    51   7 N        1.887    -0.350    29.963     8.115
    52   1 H        0.925     0.066     2.125     2.280
    53   1 H        0.925     0.068     2.106     2.269
    54   1 H        0.925     0.087     1.905     2.158
    55   1 H        0.926     0.030     2.582     2.513
    56   1 H        0.926     0.035     2.510     2.477
    57   1 H        0.925     0.043     2.414     2.430
    58   1 H        0.925     0.036     2.497     2.471
    59   1 H        0.925     0.035     2.519     2.482
    60   1 H        0.925     0.035     2.520     2.483
    61   1 H        0.925     0.043     2.415     2.430
    62   1 H        0.925     0.037     2.494     2.470
    63   1 H        0.925     0.041     2.438     2.442
    64   1 H        0.925     0.041     2.436     2.441
    65   1 H        0.925     0.041     2.433     2.439
    66   1 H        0.926     0.071     2.074     2.252
    67   1 H        0.925     0.041     2.442     2.444
    68   1 H        0.925     0.034     2.524     2.484
    69   1 H        0.925     0.046     2.367     2.406
    70   1 H        0.925     0.043     2.406     2.426
    71   1 H        0.925     0.035     2.513     2.479
    72   1 H        0.925     0.036     2.508     2.477
    73   1 H        0.925     0.035     2.519     2.482
    74   1 H        0.925     0.045     2.378     2.412
    75   1 H        0.925     0.041     2.431     2.438
    76   1 H        0.926     0.049     2.334     2.389
    77   1 H        0.926     0.032     2.560     2.502
    78   1 H        0.926     0.018     2.767     2.601
    79   1 H        0.925     0.041     2.438     2.442
    80   1 H        0.925     0.041     2.429     2.437
    81   1 H        0.925     0.054     2.274     2.358
    82   1 H        0.926     0.017     2.781     2.608
    83   1 H        0.926     0.034     2.537     2.491
    84   1 H        0.925     0.040     2.447     2.446
    85   1 H        0.925     0.040     2.449     2.447
    86   1 H        0.925     0.041     2.441     2.443
    87   1 H        0.925     0.034     2.527     2.486
    88   1 H        0.925     0.042     2.426     2.436
    89   1 H        0.925     0.036     2.507     2.476
    90   1 H        0.925     0.041     2.429     2.437
    91   1 H        0.925     0.036     2.501     2.473
    92   1 H        0.925     0.034     2.525     2.485
    93   1 H        0.926     0.069     2.099     2.265
    94   1 H        0.925     0.045     2.377     2.411
    95   1 H        0.925     0.041     2.437     2.441
    96   1 H        0.925     0.035     2.521     2.483
    97   1 H        0.925     0.043     2.411     2.428
    98   1 H        0.925     0.035     2.514     2.479
    99   1 H        0.925     0.035     2.515     2.480
   100   1 H        0.925     0.046     2.370     2.408
   101   1 H        0.925     0.040     2.449     2.447
   102   1 H        0.925     0.034     2.531     2.488
   103   1 H        0.926     0.048     2.348     2.396
   104   1 H        0.926     0.032     2.563     2.503
   105   1 H        0.926     0.029     2.602     2.522

molecular dipole:
                 x           y           z       tot (Debye)
 q only:        0.317      -1.595       1.524
   full:        0.548      -1.749       1.614       6.207

 projected vibrational frequencies (cm⁻¹)
eigval :       -0.00    -0.00    -0.00    -0.00     0.00     0.00
eigval :        5.61    12.15    12.92    22.09    26.77    28.92
eigval :       31.82    35.21    41.25    42.96    48.79    70.12
eigval :       74.62    75.84    79.88    83.17    87.76    93.48
eigval :      102.69   105.40   121.49   127.73   132.23   134.64
eigval :      153.06   155.10   161.39   162.53   170.02   177.50
eigval :      180.24   185.44   194.16   211.43   215.84   221.16
eigval :      222.02   224.29   232.23   232.71   241.37   245.26
eigval :      247.21   267.21   267.65   286.78   296.30   305.17
eigval :      307.22   312.35   321.12   322.53   325.85   329.80
eigval :      332.86   336.22   343.15   344.69   345.85   347.40
eigval :      349.08   361.09   364.47   377.86   382.19   397.02
eigval :      412.20   415.95   428.00   429.02   429.89   433.98
eigval :      441.61   446.41   451.14   453.57   455.54   483.16
eigval :      485.37   494.44   503.90   517.51   522.96   530.89
eigval :      546.04   549.93   552.68   582.47   591.41   595.36
eigval :      602.18   607.43   613.53   615.72   615.95   619.91
eigval :      673.50   673.80   684.33   685.52   687.22   692.23
eigval :      712.70   713.42   728.42   760.81   779.21   784.37
eigval :      794.45   798.35   800.00   815.41   821.57   822.30
eigval :      869.71   870.50   873.52   878.79   881.59   888.12
eigval :      892.69   894.28   902.76   903.78   908.15   909.21
eigval :      922.84   940.25   946.21   951.56   955.40   957.14
eigval :      958.19   959.08   961.24   961.46   963.24   963.87
eigval :      963.89   965.60   977.19   979.18   980.07   984.46
eigval :     1023.16  1025.25  1028.22  1030.45  1032.13  1032.32
eigval :     1032.88  1034.93  1034.99  1036.40  1036.88  1072.74
eigval :     1109.21  1112.49  1120.87  1122.63  1133.75  1143.88
eigval :     1145.35  1153.18  1154.75  1165.36  1183.96  1198.18
eigval :     1205.83  1220.13  1220.19  1220.54  1221.22  1221.35
eigval :     1221.52  1224.75  1225.85  1227.88  1239.08  1239.81
eigval :     1255.60  1256.66  1270.46  1272.96  1279.66  1280.79
eigval :     1284.87  1286.80  1287.65  1310.20  1326.95  1330.92
eigval :     1336.74  1352.31  1352.96  1354.27  1382.74  1388.61
eigval :     1399.74  1400.70  1401.09  1401.96  1402.14  1402.96
eigval :     1403.07  1404.18  1411.78  1413.04  1414.05  1424.10
eigval :     1426.09  1426.68  1427.75  1428.79  1436.52  1437.21
eigval :     1439.40  1444.52  1446.36  1465.90  1471.02  1478.01
eigval :     1482.74  1484.39  1484.77  1487.69  1487.74  1489.64
eigval :     1491.09  1493.72  1493.77  1497.67  1498.01  1500.38
eigval :     1500.76  1506.21  1507.43  1508.32  1509.15  1511.91
eigval :     1512.63  1512.87  1513.29  1515.04  1516.04  1517.28
eigval :     1520.28  1528.59  1529.94  1540.65  1543.34  1549.53
eigval :     1561.33  1566.24  1572.26  3002.87  3016.66  3016.88
eigval :     3017.25  3018.76  3019.50  3020.69  3021.17  3021.25
eigval :     3021.85  3022.18  3022.66  3022.76  3022.89  3023.57
eigval :     3025.44  3026.08  3026.48  3026.55  3026.80  3026.87
eigval :     3027.61  3028.80  3029.33  3029.39  3029.71  3035.00
eigval :     3035.06  3035.30  3035.63  3038.79  3039.08  3044.53
eigval :     3044.98  3046.40  3046.80  3047.89  3050.09  3075.70
eigval :     3076.70  3081.40  3083.18  3085.30  3087.79  3088.40
eigval :     3089.53  3090.65  3095.89  3097.22  3100.81  3132.55
eigval :     3134.07  3175.71  3178.10

   temp. (K)  partition function   enthalpy   heat capacity  entropy
                                   cal/mol     cal/K/mol   cal/K/mol   J/K/mol
 298.15  VIB  0.171E+25            31277.808    189.083    195.434
         ROT  0.113E+09              888.752      2.981     39.836
         INT  0.194E+33            32166.561    192.064    235.270
         TR   0.177E+29             1481.254      4.968     45.476
         TOT                       33647.8148   197.0317   280.7464  1174.6428

       T/K    H(0)-H(T)+PV         H(T)/Eh          T*S/Eh         G(T)/Eh
   ------------------------------------------------------------------------
    298.15    0.536212E-01    0.926719E+00    0.133392E+00    0.793328E+00
   ------------------------------------------------------------------------

         :::::::::::::::::::::::::::::::::::::::::::::::::::::
         ::                  THERMODYNAMIC                  ::
         :::::::::::::::::::::::::::::::::::::::::::::::::::::
         :: total free energy        -140.300827111139 Eh   ::
         ::.................................................::
         :: total energy             -141.094154826618 Eh   ::
         :: zero point energy           0.873098167656 Eh   ::
         :: G(RRHO) w/o ZPVE           -0.079770452177 Eh   ::
         :: G(RRHO) contrib.            0.793327715479 Eh   ::
         :::::::::::::::::::::::::::::::::::::::::::::::::::::

           -------------------------------------------------
          | TOTAL ENERGY             -141.094154826618 Eh   |
          | TOTAL ENTHALPY           -140.167435453008 Eh   |
          | TOTAL FREE ENERGY        -140.300827111139 Eh   |
          | GRADIENT NORM               0.000068796670 Eh/α |
          | HOMO-LUMO GAP               0.308069754809 eV   |
           -------------------------------------------------

 * finished run on 2025/08/25 at 14:55:55.468
