   * xtb version 6.7.1 (edcfbbe) compiled by 'albert@albert-system' on 2024-07-22

   ID    Z sym.   atoms
    1    6 C      1, 3, 5, 7-29, 31-50
    2   16 S      2
    3    7 N      4, 6, 30, 51
    4    1 H      52-105

          program call               : xtb data2507/toluene/tCbz-mPYRs/tCbz-mPYRs_toluene_S0_finalOpt.xtbopt.xyz --gfn 2 --uhf 2 --gbsa toluene --ohess vtight --parallel 40 --molden --ceasefiles --namespace data2507/toluene/tCbz-mPYRs/tCbz-mPYRs_toluene_T1_preOpt
      * Solvation model:               GBSA
        Solvent                        toluene
        Solvent mass                       9.2140E+01 g/mol
          :  Hamiltonian                  GFN2-xTB          :
 * total energy  :  -141.0897790 Eh     change       -0.1664466E-07 Eh
 * total energy  :  -141.0927597 Eh     change       -0.2980669E-02 Eh
 * total energy  :  -141.0937065 Eh     change       -0.9468542E-03 Eh
 * total energy  :  -141.0938219 Eh     change       -0.1153814E-03 Eh
 * total energy  :  -141.0938824 Eh     change       -0.6048407E-04 Eh
 * total energy  :  -141.0938994 Eh     change       -0.1698663E-04 Eh
 * total energy  :  -141.0939157 Eh     change       -0.1632718E-04 Eh
 * total energy  :  -141.0939298 Eh     change       -0.1404950E-04 Eh
 * total energy  :  -141.0939464 Eh     change       -0.1659639E-04 Eh
 * total energy  :  -141.0939599 Eh     change       -0.1358681E-04 Eh
 * total energy  :  -141.0940255 Eh     change        0.3120675E-08 Eh
 * total energy  :  -141.0940255 Eh     change        0.1063063E-07 Eh
 * total energy  :  -141.0940254 Eh     change        0.7712063E-07 Eh
 * total energy  :  -141.0940256 Eh     change       -0.2531422E-06 Eh
 * total energy  :  -141.0940258 Eh     change       -0.1311479E-06 Eh
 * total energy  :  -141.0940259 Eh     change       -0.1148328E-06 Eh
 * total energy  :  -141.0940260 Eh     change       -0.1211801E-06 Eh
 * total energy  :  -141.0940262 Eh     change       -0.1399088E-06 Eh
 * total energy  :  -141.0940262 Eh     change       -0.9200130E-07 Eh
   *** GEOMETRY OPTIMIZATION CONVERGED AFTER 52 ITERATIONS ***

 final structure:
================
105
 xtb: 6.7.1 (edcfbbe)
C            1.37988693559198        4.56626144425745       -2.86556053973348
S           -0.35229023220291        4.02332441592940       -2.75211527186808
C           -0.16821130927740        2.55074288755735       -1.80267402421011
N           -1.27687058931180        1.88547665533578       -1.58656840058171
C           -1.18043153075215        0.76145985255912       -0.79551275696267
N           -2.36975100299393        0.09527767454459       -0.52110926689310
C           -3.50908841655973        0.66630683551390       -0.01973118328669
C           -3.72652420973029        2.00055561636803        0.29502567033023
C           -4.95677457542094        2.36025656704392        0.79561249238855
C           -5.97560243085611        1.41462743453786        0.99176082218011
C           -7.31184069994989        1.88575877445523        1.54533199980267
C           -7.08619422535590        2.52051049628686        2.92669360563525
C           -7.90823811314473        2.92830000734829        0.58647605869676
C           -8.33014369761171        0.75256008900845        1.70579377487546
C           -5.73716987790832        0.08188883802596        0.67497144989229
C           -4.50444098816498       -0.33054514933650        0.17100379874051
C           -3.91889318199430       -1.58661147853760       -0.26304794300256
C           -4.32548704315762       -2.93350479564444       -0.35166009357102
C           -5.68456229785078       -3.41988858566344        0.12805410388438
C           -5.82610287689537       -3.10057230092738        1.62614197658963
C           -5.87964642012491       -4.93721865348488       -0.00654445643083
C           -6.77369616903498       -2.76065639743529       -0.73629970924777
C           -3.42485263832172       -3.83078465901153       -0.91870474408828
C           -2.17729809909836       -3.46210714703631       -1.40993470270070
C           -1.75026100821349       -2.15517371854313       -1.31003849543049
C           -2.60887257649662       -1.24930813312154       -0.70952383217961
C            0.03719531632430        0.36997153858062       -0.23111044200900
C            0.11172050632407       -0.66740680369886        0.84813317466610
C            1.15772400852567        1.10437466074493       -0.62882311130563
N            2.44274463822226        0.79535354402458       -0.19412959128939
C            3.07191686928978       -0.41473137333960       -0.32631339192218
C            2.61471310582475       -1.55244142096138       -0.97683965388845
C            3.41690497683328       -2.67020440667815       -0.98875602800232
C            4.67279545729370       -2.67833985344977       -0.36078172859737
C            5.49278273070744       -3.95943549621526       -0.38642543545585
C            4.68440794590807       -5.08452200469451        0.27891444951342
C            6.82650215992039       -3.83362902448802        0.35644198555179
C            5.79429537945922       -4.33069282879501       -1.84697596151863
C            5.13589628297682       -1.51675887782693        0.24312172502108
C            4.36558410360303       -0.35331482294316        0.26004524732463
C            4.53670047688675        1.00685389257953        0.73638041147379
C            5.55348581553795        1.75559719005723        1.36314821209825
C            6.91627952440171        1.17349414124332        1.70747607381704
C            6.72538235440967        0.04567821636665        2.73676600898423
C            7.87699554030564        2.18692580735593        2.34641542164744
C            7.59319801253319        0.69880759029550        0.41002607431004
C            5.26771866564972        3.08514603318387        1.66274691131539
C            4.05369811320509        3.69708132019786        1.37124991664585
C            3.05135927787661        2.98882940487624        0.74319800943592
C            3.31274519444165        1.66632978145120        0.42715554159283
N            1.04243511478606        2.22299461340533       -1.42768157805006
H            1.40002000955360        5.38339481215404       -3.57849913307281
H            1.71817013507129        4.89926018639062       -1.88980893371349
H            1.98456344955538        3.73304144922739       -3.20726692755367
H           -2.94775171623734        2.73000900390764        0.13312142743785
H           -5.12844118078001        3.39682410640969        1.03863971306917
H           -8.03432631746016        2.85594289109015        3.34142736316509
H           -6.41954332068501        3.37628651791714        2.86808578738964
H           -6.64842419513331        1.79318666225249        3.60778472473302
H           -8.05086496825151        2.49318393791319       -0.40077110595466
H           -8.87300454917464        3.26705269902661        0.95811108269962
H           -7.26006566845107        3.79418616100192        0.48496285663183
H           -9.25767951383617        1.15856602990841        2.10441365934506
H           -8.55374311937864        0.28785407913133        0.74859301536214
H           -7.97099784430634       -0.00303332795082        2.40028599659781
H           -6.52545964699060       -0.63074060239574        0.82274056934456
H           -5.20656161485271       -3.78884066973539        2.19902629599790
H           -5.50189857143465       -2.09538763076761        1.86682188604668
H           -6.85850209553253       -3.22819829713743        1.94465716472620
H           -6.86439630183198       -5.19452219294421        0.37907844868015
H           -5.83593560162006       -5.25868132461383       -1.04462293380634
H           -5.14027064061289       -5.48858123399083        0.57012566556645
H           -6.80827141733904       -3.25151875037208       -1.70752134399327
H           -6.57627844095179       -1.70997654250455       -0.91405343421111
H           -7.74922059957041       -2.86840391424014       -0.26693013992291
H           -3.69603019465642       -4.86827926052999       -1.00929046328306
H           -1.54634475171612       -4.20504387136803       -1.87424154881400
H           -0.79888160891494       -1.83312334808032       -1.70525720758783
H           -0.80408925940259       -0.65654234323784        1.43775893415159
H            0.95308758434663       -0.46075417859341        1.50771171257488
H            0.23803510605445       -1.67365740411301        0.45111782913763
H            1.65929879882203       -1.54698892124397       -1.47992233703704
H            3.06263705229164       -3.55158430743245       -1.49949501783139
H            3.74955367627652       -5.26771478391140       -0.24332263809430
H            5.26040640226077       -6.00742689438577        0.27808943185424
H            4.45335879835543       -4.82241157489286        1.30966756001731
H            6.67029223638254       -3.58325134815571        1.40303262774693
H            7.35126817145615       -4.78602630768510        0.31491160737354
H            7.46332763889037       -3.08229564924335       -0.10396705075725
H            6.39591481112288       -5.23633513385048       -1.88464617056904
H            6.34619134951627       -3.52837861741307       -2.33300474346273
H            4.88180121636359       -4.50540454219509       -2.41029440113531
H            6.10870158782951       -1.52467388332592        0.69518811933149
H            5.88358531534222       -0.59232026505906        2.49507916302311
H            7.62577219279313       -0.56085520554928        2.80809031418434
H            6.53121714247509        0.48129770833840        3.71555542824668
H            8.82324198405860        1.68750186657830        2.54657738078114
H            8.07594356729230        3.02420552302286        1.68123946585331
H            7.49410654511158        2.56454395144770        3.29180815456808
H            6.91679276452487        0.14556718899095       -0.23033630146580
H            8.45681674584320        0.07765174099165        0.63834587465856
H            7.93760892778842        1.56519743036382       -0.15251553780223
H            6.01349677933634        3.69091531254156        2.14782124605394
H            3.90021335470471        4.73113072393630        1.64144572290872
H            2.09964601260990        3.43293652137364        0.49679697495442

          :  Hamiltonian                  GFN2-xTB          :
         :: gradient norm              0.000101858376 Eh/a0 ::
         :: HOMO-LUMO gap              0.298501650921 eV    ::
         :: SCC energy              -143.392335313321 Eh    ::
         :: -> dispersion             -0.139829828267 Eh    ::
         :: -> Gsolv                  -0.057077595639 Eh    ::
         :: repulsion energy           2.298309025321 Eh    ::

    * Orbital Energies and Occupations

         #    Occupation            Energy/Eh            Energy/eV
      -------------------------------------------------------------
         1        2.0000           -0.7192343             -19.5714
       ...           ...                  ...                  ...
       121        2.0000           -0.4136168             -11.2551
       122        2.0000           -0.4115633             -11.1992
       123        2.0000           -0.4111203             -11.1872
       124        2.0000           -0.4042987             -11.0015
       125        2.0000           -0.4014365             -10.9236
       126        2.0000           -0.4011677             -10.9163
       127        2.0000           -0.3805777             -10.3560
       128        2.0000           -0.3803630             -10.3502
       129        1.9995           -0.3734712             -10.1627
       130        1.9981           -0.3722400             -10.1292
       131        1.6054           -0.3666984              -9.9784
       132        1.3970           -0.3658946              -9.9565
       133        0.9969           -0.2609614              -7.1011 (HOMO)
       134        0.0031           -0.2499917              -6.8026 (LUMO)
       135        0.0001           -0.2464379              -6.7059
       136                         -0.2346950              -6.3864
       137                         -0.2256555              -6.1404
       138                         -0.2254663              -6.1352
       139                         -0.2026513              -5.5144
       140                         -0.1985276              -5.4022
       141                         -0.1939801              -5.2785
       142                         -0.1919134              -5.2222
       143                         -0.1914523              -5.2097
       144                         -0.1352752              -3.6810
       ...                                ...                  ...
       263                          0.7193120              19.5735
      -------------------------------------------------------------
                  HL-Gap            0.0109697 Eh            0.2985 eV

     #   Z          covCN         q      C6AA      α(0)
     1   6 C        3.745    -0.051    21.557     6.623
     2  16 S        2.081    -0.168   148.173    20.487
     3   6 C        2.918     0.246    22.901     7.847
     4   7 N        1.913    -0.336    29.569     8.062
     5   6 C        2.902     0.119    25.386     8.261
     6   7 N        2.795    -0.031    21.846     6.942
     7   6 C        3.083     0.052    26.742     8.477
     8   6 C        2.907    -0.042    29.033     8.835
     9   6 C        2.927    -0.041    29.030     8.836
    10   6 C        2.970     0.008    27.833     8.654
    11   6 C        3.903     0.026    20.075     6.369
    12   6 C        3.761    -0.106    22.577     6.773
    13   6 C        3.761    -0.106    22.573     6.773
    14   6 C        3.761    -0.111    22.676     6.788
    15   6 C        2.919    -0.052    29.282     8.874
    16   6 C        3.054    -0.017    28.391     8.738
    17   6 C        3.043    -0.025    28.582     8.769
    18   6 C        2.966     0.010    27.786     8.646
    19   6 C        3.901     0.027    20.058     6.366
    20   6 C        3.762    -0.111    22.665     6.786
    21   6 C        3.764    -0.110    22.640     6.782
    22   6 C        3.762    -0.110    22.648     6.784
    23   6 C        2.925    -0.048    29.188     8.860
    24   6 C        2.922    -0.041    29.010     8.833
    25   6 C        2.911    -0.045    29.128     8.850
    26   6 C        3.093     0.045    26.876     8.497
    27   6 C        2.953    -0.028    28.701     8.787
    28   6 C        3.756    -0.101    22.492     6.762
    29   6 C        2.903     0.116    25.448     8.271
    30   7 N        2.795    -0.033    21.883     6.948
    31   6 C        3.081     0.044    26.915     8.505
    32   6 C        2.907    -0.046    29.149     8.853
    33   6 C        2.927    -0.043    29.061     8.841
    34   6 C        2.970     0.006    27.894     8.663
    35   6 C        3.903     0.026    20.080     6.370
    36   6 C        3.761    -0.106    22.572     6.773
    37   6 C        3.761    -0.111    22.666     6.787
    38   6 C        3.761    -0.106    22.564     6.772
    39   6 C        2.919    -0.052    29.303     8.877
    40   6 C        3.053    -0.018    28.395     8.739
    41   6 C        3.043    -0.026    28.620     8.774
    42   6 C        2.966     0.010    27.796     8.648
    43   6 C        3.901     0.027    20.058     6.366
    44   6 C        3.762    -0.110    22.646     6.784
    45   6 C        3.764    -0.109    22.634     6.781
    46   6 C        3.762    -0.110    22.648     6.784
    47   6 C        2.924    -0.048    29.181     8.859
    48   6 C        2.922    -0.041    29.010     8.833
    49   6 C        2.911    -0.043    29.062     8.840
    50   6 C        3.093     0.051    26.749     8.477
    51   7 N        1.895    -0.344    29.783     8.091
    52   1 H        0.925     0.075     2.036     2.231
    53   1 H        0.925     0.067     2.122     2.278
    54   1 H        0.925     0.072     2.067     2.249
    55   1 H        0.926     0.030     2.589     2.516
    56   1 H        0.926     0.035     2.513     2.479
    57   1 H        0.925     0.043     2.415     2.430
    58   1 H        0.925     0.036     2.498     2.472
    59   1 H        0.925     0.035     2.520     2.482
    60   1 H        0.925     0.035     2.521     2.483
    61   1 H        0.925     0.043     2.415     2.430
    62   1 H        0.925     0.037     2.495     2.470
    63   1 H        0.925     0.041     2.438     2.442
    64   1 H        0.925     0.041     2.437     2.441
    65   1 H        0.925     0.041     2.434     2.440
    66   1 H        0.926     0.071     2.076     2.253
    67   1 H        0.925     0.034     2.525     2.485
    68   1 H        0.925     0.046     2.368     2.406
    69   1 H        0.925     0.040     2.442     2.444
    70   1 H        0.925     0.043     2.407     2.426
    71   1 H        0.925     0.035     2.513     2.479
    72   1 H        0.925     0.036     2.509     2.477
    73   1 H        0.925     0.035     2.520     2.483
    74   1 H        0.925     0.045     2.378     2.412
    75   1 H        0.925     0.041     2.432     2.439
    76   1 H        0.926     0.049     2.337     2.390
    77   1 H        0.926     0.032     2.562     2.503
    78   1 H        0.926     0.018     2.768     2.602
    79   1 H        0.925     0.041     2.441     2.443
    80   1 H        0.925     0.041     2.433     2.439
    81   1 H        0.925     0.053     2.280     2.361
    82   1 H        0.926     0.017     2.786     2.610
    83   1 H        0.926     0.033     2.541     2.493
    84   1 H        0.925     0.036     2.501     2.473
    85   1 H        0.925     0.041     2.430     2.438
    86   1 H        0.925     0.034     2.525     2.485
    87   1 H        0.925     0.040     2.447     2.446
    88   1 H        0.925     0.040     2.449     2.447
    89   1 H        0.925     0.041     2.440     2.443
    90   1 H        0.925     0.042     2.426     2.435
    91   1 H        0.925     0.034     2.528     2.486
    92   1 H        0.925     0.036     2.507     2.476
    93   1 H        0.926     0.069     2.100     2.266
    94   1 H        0.925     0.045     2.377     2.411
    95   1 H        0.925     0.041     2.437     2.441
    96   1 H        0.925     0.035     2.521     2.483
    97   1 H        0.925     0.043     2.412     2.429
    98   1 H        0.925     0.035     2.514     2.480
    99   1 H        0.925     0.035     2.516     2.480
   100   1 H        0.925     0.046     2.370     2.407
   101   1 H        0.925     0.040     2.449     2.447
   102   1 H        0.925     0.034     2.532     2.489
   103   1 H        0.926     0.048     2.349     2.397
   104   1 H        0.926     0.031     2.573     2.509
   105   1 H        0.926     0.028     2.617     2.530

molecular dipole:
                 x           y           z       tot (Debye)
 q only:        0.343      -1.544       1.451
   full:        0.577      -1.720       1.576       6.109

 projected vibrational frequencies (cm⁻¹)
eigval :       -0.00    -0.00     0.00     0.00     0.00     0.00
eigval :        7.54    10.83    14.19    25.81    28.89    31.26
eigval :       33.93    39.20    42.65    45.10    66.28    71.18
eigval :       76.00    76.50    78.11    85.12    90.47   103.18
eigval :      104.71   118.40   127.67   128.98   134.05   136.65
eigval :      152.97   154.70   162.06   163.83   171.39   178.42
eigval :      180.33   184.30   193.39   210.49   213.23   220.32
eigval :      220.73   224.71   231.62   232.27   240.77   245.25
eigval :      246.83   266.72   267.75   285.16   295.90   304.75
eigval :      306.81   311.99   320.96   322.83   326.56   329.85
eigval :      333.50   335.40   342.14   344.25   345.65   347.22
eigval :      348.63   361.59   363.48   378.72   382.70   395.11
eigval :      412.49   415.84   428.07   429.22   429.66   434.72
eigval :      441.32   446.72   450.93   453.78   455.83   483.06
eigval :      485.50   493.94   504.16   517.68   523.25   531.42
eigval :      545.73   550.05   552.23   583.42   591.73   595.01
eigval :      601.92   607.39   614.22   615.54   616.13   619.68
eigval :      673.33   674.23   684.10   685.34   687.09   692.75
eigval :      712.64   713.21   729.87   760.35   777.98   784.88
eigval :      794.35   798.41   799.71   815.50   822.10   823.50
eigval :      869.61   870.69   874.41   879.59   882.09   889.16
eigval :      892.25   893.42   900.66   903.01   907.54   910.30
eigval :      922.45   941.32   943.54   950.41   955.27   956.98
eigval :      958.05   959.06   961.21   961.47   963.21   963.87
eigval :      964.42   966.18   977.44   978.48   980.02   984.58
eigval :     1023.16  1025.57  1028.54  1030.49  1031.82  1032.35
eigval :     1033.04  1034.36  1036.12  1036.34  1036.73  1072.28
eigval :     1109.20  1112.11  1120.89  1122.46  1133.48  1143.35
eigval :     1144.73  1152.46  1155.19  1164.62  1184.30  1197.30
eigval :     1205.50  1220.11  1220.24  1220.55  1221.17  1221.21
eigval :     1222.09  1224.98  1226.10  1229.54  1239.25  1239.96
eigval :     1255.69  1256.79  1271.04  1272.85  1279.76  1280.92
eigval :     1285.20  1286.29  1303.06  1310.23  1326.97  1330.48
eigval :     1336.44  1352.02  1352.51  1354.43  1382.53  1388.11
eigval :     1400.09  1400.38  1401.76  1401.92  1402.61  1402.77
eigval :     1403.73  1404.01  1410.60  1413.47  1414.71  1425.94
eigval :     1426.12  1427.00  1428.60  1429.07  1435.25  1437.46
eigval :     1438.81  1442.43  1446.38  1465.50  1471.08  1478.85
eigval :     1482.08  1484.28  1484.66  1487.43  1487.76  1489.11
eigval :     1491.29  1493.63  1493.81  1497.52  1498.01  1500.12
eigval :     1500.79  1505.79  1507.00  1507.71  1508.10  1511.85
eigval :     1512.60  1512.88  1513.19  1514.93  1515.95  1517.31
eigval :     1519.39  1528.46  1528.65  1539.77  1543.03  1549.53
eigval :     1561.21  1566.04  1572.76  3003.03  3017.09  3017.13
eigval :     3017.18  3018.98  3019.57  3021.10  3021.16  3021.78
eigval :     3022.32  3022.66  3022.88  3023.05  3023.67  3025.36
eigval :     3026.28  3026.49  3026.58  3026.92  3027.02  3027.72
eigval :     3028.93  3029.42  3029.55  3029.64  3035.06  3035.20
eigval :     3035.40  3035.59  3038.97  3039.29  3041.15  3044.68
eigval :     3046.52  3047.68  3048.23  3049.80  3063.94  3076.02
eigval :     3076.98  3080.12  3084.34  3085.81  3087.92  3088.22
eigval :     3090.45  3090.67  3096.13  3096.51  3100.64  3132.48
eigval :     3134.04  3175.85  3177.76

   temp. (K)  partition function   enthalpy   heat capacity  entropy
                                   cal/mol     cal/K/mol   cal/K/mol   J/K/mol
 298.15  VIB  0.446E+24            31186.588    189.682    194.163
         ROT  0.113E+09              888.752      2.981     39.837
         INT  0.506E+32            32075.341    192.663    233.999
         TR   0.177E+29             1481.254      4.968     45.476
         TOT                       33556.5946   197.6307   279.4756  1169.3258

       T/K    H(0)-H(T)+PV         H(T)/Eh          T*S/Eh         G(T)/Eh
   ------------------------------------------------------------------------
    298.15    0.534758E-01    0.926847E+00    0.132788E+00    0.794059E+00
   ------------------------------------------------------------------------

         :::::::::::::::::::::::::::::::::::::::::::::::::::::
         ::                  THERMODYNAMIC                  ::
         :::::::::::::::::::::::::::::::::::::::::::::::::::::
         :: total free energy        -140.299967026162 Eh   ::
         ::.................................................::
         :: total energy             -141.094026286472 Eh   ::
         :: zero point energy           0.873371281100 Eh   ::
         :: G(RRHO) w/o ZPVE           -0.079312020790 Eh   ::
         :: G(RRHO) contrib.            0.794059260310 Eh   ::
         :::::::::::::::::::::::::::::::::::::::::::::::::::::

           -------------------------------------------------
          | TOTAL ENERGY             -141.094026286472 Eh   |
          | TOTAL ENTHALPY           -140.167179168068 Eh   |
          | TOTAL FREE ENERGY        -140.299967026162 Eh   |
          | GRADIENT NORM               0.000099493997 Eh/α |
          | HOMO-LUMO GAP               0.298500703717 eV   |
           -------------------------------------------------

 * finished run on 2025/08/25 at 14:32:35.732
