   * xtb version 6.7.1 (edcfbbe) compiled by 'albert@albert-system' on 2024-07-22

   ID    Z sym.   atoms
    1    6 C      1-9, 11-26
    2    7 N      10
    3    1 H      27-47

          program call               : xtb data2507/toluene/BACH/BACH_toluene_T1_crest.xyz --gfn 2 --uhf 2 --gbsa toluene --ohess vtight --parallel 40 --molden --ceasefiles --namespace data2507/toluene/BACH/BACH_toluene_T1_finalOpt
      * Solvation model:               GBSA
        Solvent                        toluene
        Solvent mass                       9.2140E+01 g/mol
          :  Hamiltonian                  GFN2-xTB          :
 * total energy  :   -67.1183788 Eh     change       -0.5827303E-09 Eh
 * total energy  :   -67.1184089 Eh     change       -0.3009218E-04 Eh
 * total energy  :   -67.1184134 Eh     change       -0.4518210E-05 Eh
 * total energy  :   -67.1184147 Eh     change       -0.1248985E-05 Eh
 * total energy  :   -67.1184152 Eh     change       -0.4728297E-06 Eh
 * total energy  :   -67.1184156 Eh     change       -0.4493463E-06 Eh
 * total energy  :   -67.1184161 Eh     change       -0.5317620E-06 Eh
 * total energy  :   -67.1184167 Eh     change       -0.5267140E-06 Eh
 * total energy  :   -67.1184171 Eh     change       -0.3902468E-06 Eh
 * total energy  :   -67.1184173 Eh     change       -0.2794110E-06 Eh
 * total energy  :   -67.1184191 Eh     change       -0.5259087E-06 Eh
 * total energy  :   -67.1184196 Eh     change       -0.5249471E-06 Eh
 * total energy  :   -67.1184201 Eh     change       -0.4717127E-06 Eh
 * total energy  :   -67.1184205 Eh     change       -0.4041943E-06 Eh
 * total energy  :   -67.1184208 Eh     change       -0.3373169E-06 Eh
 * total energy  :   -67.1184211 Eh     change       -0.2611211E-06 Eh
 * total energy  :   -67.1184213 Eh     change       -0.2141880E-06 Eh
 * total energy  :   -67.1184215 Eh     change       -0.2077393E-06 Eh
 * total energy  :   -67.1184215 Eh     change       -0.1086889E-08 Eh
   *** GEOMETRY OPTIMIZATION CONVERGED AFTER 22 ITERATIONS ***

 final structure:
================
47
 xtb: 6.7.1 (edcfbbe)
C           -1.51051243601205       -2.21017448567143       -1.47380386934735
C           -1.06755024811261       -1.73704280187402       -0.06292305762510
C           -1.82454648143152       -2.47053250875390        1.07744392737359
C            0.38507884454501       -2.14532100274204        0.02712646355295
C            0.71629102065570       -3.49239735998236        0.05893712477669
C            2.03148974598679       -3.92074822851799        0.08061819363576
C            3.05790591332028       -2.98146503771182        0.05772362409826
C            2.76205843016937       -1.64050536680542        0.03084021138837
C            1.42538167575651       -1.20025529316508        0.02734511547763
N            1.13513232225890        0.14091027798355        0.02839814050957
C            2.22485116869144        1.06267243185582       -0.01210792826866
C            2.85871299543859        1.44188008974400        1.16478693005569
C            3.92220517325687        2.32659081637463        1.11489524119939
C            4.35192847995342        2.83093168417714       -0.10168725054196
C            3.71718741276983        2.45109296883532       -1.27348650438243
C            2.65257342735543        1.56717809964962       -1.23294803676006
C           -0.14168947647344        0.64627914880785        0.07832042168803
C           -0.32584022993746        2.01622280472262        0.17796496807630
C           -1.59453852028983        2.56031006802330        0.20478639354018
C           -2.74651232249042        1.73832213746842        0.10705730160774
C           -4.01506063588635        2.30911341268607        0.11121786033006
C           -5.17714250548137        1.51921430511332        0.01163802325287
C           -5.04836459924382        0.16059594386974       -0.09343416598002
C           -3.78062401291281       -0.44055277484501       -0.09937789907377
C           -2.58803617918966        0.31646809563969        0.00538601333544
C           -1.28928936501651       -0.24737586546116        0.02238258737104
H           -0.81991659246276       -1.81251201112385       -2.21645461156451
H           -1.49068715017468       -3.29489867467409       -1.53683233148098
H           -2.50535229394917       -1.85621426774140       -1.72210946087699
H           -2.32809161460983       -3.36033676470773        0.70844527836092
H           -2.56070243450239       -1.82268469733465        1.54259065077643
H           -1.12094205751143       -2.77176185401295        1.85136534823671
H           -0.07164583461090       -4.22944938213572        0.06898148129733
H            2.25794358899427       -4.97560653119226        0.10789181559185
H            4.08887885382125       -3.30269900693102        0.06243477629774
H            3.56108898854672       -0.91614139962663        0.01393550895612
H            2.51376578141954        1.04253507941559        2.10703094406014
H            4.41447515662674        2.62189405279064        2.02934233998136
H            5.18137165759873        3.52104777047595       -0.13684454965903
H            4.05043560714844        2.84281671260734       -2.22272609494759
H            2.14914561667020        1.26566711451112       -2.13961387159776
H            0.52745260734952        2.67380354445249        0.23778226011679
H           -1.72262552833234        3.62888015923696        0.29032795529780
H           -4.10534085485701        3.38315918045802        0.19391003159545
H           -6.14899921610369        1.99187261993877        0.01886496478895
H           -5.92255655924467       -0.47071278698990       -0.17349900955612
H           -3.75654654459687       -1.51112368323760       -0.18639093396512

          :  Hamiltonian                  GFN2-xTB          :
         :: gradient norm              0.000025941846 Eh/a0 ::
         :: HOMO-LUMO gap              0.390615828530 eV    ::
         :: SCC energy               -68.344051573275 Eh    ::
         :: -> dispersion             -0.062335612082 Eh    ::
         :: -> Gsolv                  -0.026968272666 Eh    ::
         :: repulsion energy           1.225630072193 Eh    ::

    * Orbital Energies and Occupations

         #    Occupation            Energy/Eh            Energy/eV
      -------------------------------------------------------------
         1        2.0000           -0.6775760             -18.4378
       ...           ...                  ...                  ...
        52        2.0000           -0.4284845             -11.6597
        53        2.0000           -0.4271695             -11.6239
        54        2.0000           -0.4189642             -11.4006
        55        2.0000           -0.4172470             -11.3539
        56        2.0000           -0.4128919             -11.2354
        57        2.0000           -0.4037369             -10.9862
        58        2.0000           -0.4029425             -10.9646
        59        2.0000           -0.4012672             -10.9190
        60        2.0000           -0.3960878             -10.7781
        61        2.0000           -0.3937558             -10.7146
        62        2.0000           -0.3672934              -9.9946
        63        1.0000           -0.3405539              -9.2669
        64        0.9994           -0.2532098              -6.8902 (HOMO)
        65        0.0005           -0.2388549              -6.4996 (LUMO)
        66        0.0001           -0.2373041              -6.4574
        67                         -0.2233853              -6.0786
        68                         -0.2205756              -6.0022
        69                         -0.1990658              -5.4169
        70                         -0.1767580              -4.8098
        71                         -0.1301294              -3.5410
        72                         -0.1083781              -2.9491
        73                         -0.0907563              -2.4696
        74                         -0.0480158              -1.3066
        75                         -0.0007026              -0.0191
       ...                                ...                  ...
       125                          0.7061418              19.2151
      -------------------------------------------------------------
                  HL-Gap            0.0143549 Eh            0.3906 eV

     #   Z          covCN         q      C6AA      α(0)
     1   6 C        3.766    -0.100    22.443     6.752
     2   6 C        3.905     0.026    20.086     6.370
     3   6 C        3.757    -0.106    22.574     6.774
     4   6 C        2.987    -0.006    28.168     8.706
     5   6 C        2.924    -0.037    28.928     8.820
     6   6 C        2.916    -0.042    29.039     8.837
     7   6 C        2.917    -0.033    28.820     8.803
     8   6 C        2.920    -0.054    29.339     8.883
     9   6 C        2.930     0.052    26.835     8.496
    10   7 N        2.756    -0.019    21.622     6.906
    11   6 C        2.936     0.066    26.524     8.446
    12   6 C        2.921    -0.036    28.885     8.813
    13   6 C        2.920    -0.026    28.654     8.778
    14   6 C        2.919    -0.028    28.712     8.787
    15   6 C        2.920    -0.026    28.659     8.779
    16   6 C        2.921    -0.035    28.866     8.811
    17   6 C        2.920     0.044    27.018     8.524
    18   6 C        2.911    -0.067    29.663     8.931
    19   6 C        2.918    -0.066    29.634     8.927
    20   6 C        2.978     0.004    27.923     8.668
    21   6 C        2.922    -0.061    29.527     8.911
    22   6 C        2.910    -0.037    28.926     8.819
    23   6 C        2.911    -0.046    29.143     8.852
    24   6 C        2.917    -0.063    29.557     8.915
    25   6 C        2.969     0.004    27.928     8.668
    26   6 C        2.966    -0.027    28.663     8.782
    27   1 H        0.925     0.033     2.547     2.496
    28   1 H        0.925     0.046     2.375     2.410
    29   1 H        0.925     0.051     2.302     2.373
    30   1 H        0.925     0.044     2.394     2.419
    31   1 H        0.925     0.048     2.341     2.393
    32   1 H        0.925     0.039     2.460     2.453
    33   1 H        0.926     0.042     2.425     2.435
    34   1 H        0.926     0.032     2.555     2.500
    35   1 H        0.926     0.033     2.544     2.494
    36   1 H        0.926     0.033     2.550     2.497
    37   1 H        0.926     0.045     2.385     2.415
    38   1 H        0.926     0.047     2.360     2.402
    39   1 H        0.926     0.046     2.373     2.409
    40   1 H        0.926     0.047     2.362     2.403
    41   1 H        0.926     0.044     2.399     2.422
    42   1 H        0.926     0.016     2.788     2.611
    43   1 H        0.926     0.010     2.891     2.659
    44   1 H        0.926     0.007     2.943     2.683
    45   1 H        0.926     0.010     2.882     2.655
    46   1 H        0.925     0.011     2.871     2.650
    47   1 H        0.926     0.035     2.515     2.480

molecular dipole:
                 x           y           z       tot (Debye)
 q only:        1.967      -0.670      -0.088
   full:        1.949      -0.595      -0.107       5.187

 projected vibrational frequencies (cm⁻¹)
eigval :       -0.00    -0.00    -0.00     0.00     0.00     0.00
eigval :       15.00    31.36    50.48    61.03    65.15    79.02
eigval :      120.46   125.37   156.56   170.13   200.61   208.03
eigval :      226.48   245.02   267.07   278.05   306.39   326.74
eigval :      335.49   349.02   373.56   377.51   387.91   407.69
eigval :      436.73   458.36   476.23   498.22   502.80   514.39
eigval :      528.49   547.01   553.61   580.02   590.93   598.28
eigval :      613.51   641.93   671.09   686.58   693.32   695.39
eigval :      723.96   741.77   754.12   767.47   784.40   790.58
eigval :      807.26   839.21   842.70   848.19   858.67   872.32
eigval :      887.36   897.73   910.14   913.39   915.71   916.21
eigval :      926.26   929.90   954.27   969.73   990.84  1021.60
eigval :     1045.92  1070.49  1076.70  1089.53  1096.93  1110.21
eigval :     1113.09  1115.14  1137.10  1151.19  1177.48  1179.71
eigval :     1180.47  1183.20  1197.89  1202.33  1215.91  1227.85
eigval :     1245.81  1269.66  1272.24  1295.83  1301.28  1308.03
eigval :     1331.30  1345.11  1352.55  1361.95  1389.14  1395.00
eigval :     1408.87  1418.90  1426.61  1428.56  1445.33  1458.88
eigval :     1466.30  1471.20  1481.58  1493.89  1497.92  1500.07
eigval :     1509.49  1517.05  1540.44  1567.24  1576.10  1578.26
eigval :     3016.69  3022.03  3032.41  3037.45  3054.95  3059.03
eigval :     3059.40  3064.98  3073.00  3076.22  3078.92  3081.10
eigval :     3082.80  3087.67  3088.98  3093.50  3095.48  3099.42
eigval :     3100.35  3105.38  3144.92

   temp. (K)  partition function   enthalpy   heat capacity  entropy
                                   cal/mol     cal/K/mol   cal/K/mol   J/K/mol
 298.15  VIB  0.110E+09            11860.769     80.106     71.271
         ROT  0.103E+08              888.752      2.981     35.076
         INT  0.113E+16            12749.521     83.087    106.347
         TR   0.594E+28             1481.254      4.968     43.306
         TOT                       14230.7753    88.0555   149.6531   626.1486

       T/K    H(0)-H(T)+PV         H(T)/Eh          T*S/Eh         G(T)/Eh
   ------------------------------------------------------------------------
    298.15    0.226782E-01    0.396515E+00    0.711050E-01    0.325410E+00
   ------------------------------------------------------------------------

         :::::::::::::::::::::::::::::::::::::::::::::::::::::
         ::                  THERMODYNAMIC                  ::
         :::::::::::::::::::::::::::::::::::::::::::::::::::::
         :: total free energy         -66.793011902732 Eh   ::
         ::.................................................::
         :: total energy              -67.118421501899 Eh   ::
         :: zero point energy           0.373836437074 Eh   ::
         :: G(RRHO) w/o ZPVE           -0.048426837907 Eh   ::
         :: G(RRHO) contrib.            0.325409599167 Eh   ::
         :::::::::::::::::::::::::::::::::::::::::::::::::::::

           -------------------------------------------------
          | TOTAL ENERGY              -67.118421501899 Eh   |
          | TOTAL ENTHALPY            -66.721906880896 Eh   |
          | TOTAL FREE ENERGY         -66.793011902732 Eh   |
          | GRADIENT NORM               0.000025969149 Eh/α |
          | HOMO-LUMO GAP               0.390618049058 eV   |
           -------------------------------------------------

 * finished run on 2025/07/18 at 12:52:01.597
