   * xtb version 6.7.1 (edcfbbe) compiled by 'albert@albert-system' on 2024-07-22

   ID    Z sym.   atoms
    1    6 C      1-9, 11-26
    2    7 N      10
    3    1 H      27-47

          program call               : xtb data2507/toluene/BACH/BACH_toluene_S0_crest.xyz --gfn 2 --gbsa toluene --ohess vtight --parallel 40 --molden --ceasefiles --namespace data2507/toluene/BACH/BACH_toluene_S0_finalOpt
      * Solvation model:               GBSA
        Solvent                        toluene
        Solvent mass                       9.2140E+01 g/mol
          :  Hamiltonian                  GFN2-xTB          :
 * total energy  :   -67.2094297 Eh     change       -0.5809966E-09 Eh
 * total energy  :   -67.2094525 Eh     change       -0.2281662E-04 Eh
 * total energy  :   -67.2094570 Eh     change       -0.4480951E-05 Eh
 * total energy  :   -67.2094589 Eh     change       -0.1926983E-05 Eh
 * total energy  :   -67.2094614 Eh     change       -0.2439360E-05 Eh
 * total energy  :   -67.2094635 Eh     change       -0.2156056E-05 Eh
 * total energy  :   -67.2094660 Eh     change       -0.2498768E-05 Eh
 * total energy  :   -67.2094676 Eh     change       -0.1572603E-05 Eh
 * total energy  :   -67.2094684 Eh     change       -0.7434213E-06 Eh
 * total energy  :   -67.2094691 Eh     change       -0.7102460E-06 Eh
 * total energy  :   -67.2094728 Eh     change       -0.9542233E-06 Eh
 * total energy  :   -67.2094737 Eh     change       -0.8546483E-06 Eh
 * total energy  :   -67.2094744 Eh     change       -0.7567922E-06 Eh
 * total energy  :   -67.2094751 Eh     change       -0.7138452E-06 Eh
 * total energy  :   -67.2094758 Eh     change       -0.6181743E-06 Eh
 * total energy  :   -67.2094762 Eh     change       -0.4329936E-06 Eh
 * total energy  :   -67.2094765 Eh     change       -0.2769611E-06 Eh
 * total energy  :   -67.2094767 Eh     change       -0.2169390E-06 Eh
 * total energy  :   -67.2094767 Eh     change       -0.1985299E-08 Eh
   *** GEOMETRY OPTIMIZATION CONVERGED AFTER 22 ITERATIONS ***

 final structure:
================
47
 xtb: 6.7.1 (edcfbbe)
C           -1.80392485718671       -2.45423567945169       -1.10666616552517
C           -1.06978795606648       -1.75168472367327        0.06612347669551
C           -1.54808909779982       -2.24108046584366        1.45294564171562
C            0.39552990680522       -2.14769286943617       -0.01321832719632
C            0.72750347889623       -3.49562520425736       -0.04035142597909
C            2.04217057431928       -3.92408831548070       -0.07589628166495
C            3.05977636219712       -2.98627439496605       -0.08475278814530
C            2.75578388272516       -1.64085670746106       -0.06249227962291
C            1.42679913265638       -1.20827565449004       -0.02604590309018
N            1.13171627001456        0.14311382201023       -0.00694460458240
C            2.21461474346953        1.07073432220056        0.01255431783572
C            2.72318166281892        1.51231157096050        1.22772153456597
C            3.78591244135469        2.39901507155526        1.24806719253096
C            4.34219713645912        2.84537832584230        0.06048460580920
C            3.83487198094838        2.40511017466775       -1.15138497999650
C            2.77259810793822        1.51845105294739       -1.17904862686625
C           -0.17287287653567        0.60991659877033       -0.03444284784967
C           -0.35481734412221        2.01249897647637       -0.09274595958067
C           -1.59795689074338        2.55788378297103       -0.11673701593864
C           -2.74052168036994        1.73583716980855       -0.07864534692403
C           -4.02590338644452        2.31347178815740       -0.09307880284794
C           -5.14986968659616        1.53997054463665       -0.04798698252785
C           -5.01006678799437        0.14761928445045        0.01379962914707
C           -3.77450004227558       -0.43873786372812        0.02450582839050
C           -2.57834141964733        0.32182866314219       -0.02157971416575
C           -1.26743243498164       -0.24221771445704       -0.00833279399847
H           -2.39464205461909       -1.74822090859183       -1.68343156725938
H           -1.07900284729867       -2.89648533208193       -1.78776593324777
H           -2.45714485607367       -3.24824402506965       -0.75208555100764
H           -2.54762488492112       -1.89390272655497        1.69182138575406
H           -0.87246795001058       -1.85814281563649        2.21738563742105
H           -1.53133556672945       -3.32705621830730        1.50238656111840
H           -0.06084517094070       -4.23337761469930       -0.03489395891082
H            2.26839953510034       -4.97986995149024       -0.09405432505596
H            4.09346671384870       -3.29954228708182       -0.11037512337588
H            3.55416643200006       -0.91471430836877       -0.07232702515891
H            2.28256724640609        1.15694394311905        2.14783248559507
H            4.17983186874793        2.74120269549649        2.19365647522257
H            5.17137837211045        3.53687410182748        0.07916750650287
H            4.26701666680774        2.75224030456513       -2.07831862450823
H            2.36948907100932        1.16759201304284       -2.11798678835702
H            0.51330306845470        2.65252902392401       -0.11880692361316
H           -1.72377869900023        3.63023597333402       -0.16227335725292
H           -4.09985000145919        3.39142943257985       -0.13935271247781
H           -6.13366666525284        1.98626515952712       -0.05822581038104
H           -5.89483415376261       -0.47262355097573        0.05228471843255
H           -3.73565127765603       -1.51208868450980        0.06747194747035

          :  Hamiltonian                  GFN2-xTB          :
         :: gradient norm              0.000043694735 Eh/a0 ::
         :: HOMO-LUMO gap              2.421698984725 eV    ::
         :: SCC energy               -68.452952375269 Eh    ::
         :: -> dispersion             -0.062444730306 Eh    ::
         :: -> Gsolv                  -0.025247195377 Eh    ::
         :: repulsion energy           1.243475679508 Eh    ::

    * Orbital Energies and Occupations

         #    Occupation            Energy/Eh            Energy/eV
      -------------------------------------------------------------
         1        2.0000           -0.6660105             -18.1231
       ...           ...                  ...                  ...
        51        2.0000           -0.4356027             -11.8534
        52        2.0000           -0.4271016             -11.6220
        53        2.0000           -0.4269035             -11.6166
        54        2.0000           -0.4183111             -11.3828
        55        2.0000           -0.4147229             -11.2852
        56        2.0000           -0.4123530             -11.2207
        57        2.0000           -0.4097175             -11.1490
        58        2.0000           -0.4046928             -11.0123
        59        2.0000           -0.3980893             -10.8326
        60        2.0000           -0.3967179             -10.7952
        61        2.0000           -0.3917355             -10.6597
        62        2.0000           -0.3767448             -10.2517
        63        2.0000           -0.3408119              -9.2740 (HOMO)
        64                         -0.2518161              -6.8523 (LUMO)
        65                         -0.2342726              -6.3749
        66                         -0.2330525              -6.3417
        67                         -0.2236776              -6.0866
        68                         -0.2159018              -5.8750
        69                         -0.1990015              -5.4151
        70                         -0.1800914              -4.9005
        71                         -0.1332083              -3.6248
        72                         -0.1042585              -2.8370
        73                         -0.0809904              -2.2039
        74                         -0.0515581              -1.4030
       ...                                ...                  ...
       125                          0.7000801              19.0501
      -------------------------------------------------------------
                  HL-Gap            0.0889958 Eh            2.4217 eV

     #   Z          covCN         q      C6AA      α(0)
     1   6 C        3.756    -0.106    22.588     6.776
     2   6 C        3.905     0.022    20.155     6.381
     3   6 C        3.763    -0.102    22.497     6.761
     4   6 C        2.986    -0.015    28.374     8.738
     5   6 C        2.928    -0.040    28.991     8.830
     6   6 C        2.917    -0.048    29.181     8.858
     7   6 C        2.919    -0.036    28.896     8.815
     8   6 C        2.923    -0.061    29.505     8.908
     9   6 C        2.930     0.059    26.685     8.472
    10   7 N        2.756    -0.076    22.716     7.079
    11   6 C        2.927     0.070    26.436     8.432
    12   6 C        2.921    -0.038    28.939     8.822
    13   6 C        2.920    -0.028    28.694     8.784
    14   6 C        2.919    -0.030    28.755     8.794
    15   6 C        2.920    -0.028    28.699     8.785
    16   6 C        2.921    -0.038    28.938     8.822
    17   6 C        2.921     0.058    26.696     8.473
    18   6 C        2.920    -0.056    29.380     8.889
    19   6 C        2.918    -0.041    29.017     8.833
    20   6 C        2.990    -0.000    28.029     8.685
    21   6 C        2.924    -0.037    28.929     8.820
    22   6 C        2.914    -0.038    28.934     8.821
    23   6 C        2.917    -0.036    28.885     8.813
    24   6 C        2.918    -0.046    29.132     8.851
    25   6 C        2.979     0.005    27.905     8.665
    26   6 C        2.969    -0.028    28.686     8.785
    27   1 H        0.925     0.041     2.438     2.442
    28   1 H        0.925     0.035     2.510     2.478
    29   1 H        0.925     0.039     2.469     2.457
    30   1 H        0.925     0.044     2.397     2.421
    31   1 H        0.925     0.027     2.626     2.534
    32   1 H        0.925     0.039     2.464     2.455
    33   1 H        0.926     0.034     2.533     2.489
    34   1 H        0.926     0.024     2.680     2.560
    35   1 H        0.926     0.024     2.666     2.554
    36   1 H        0.926     0.023     2.684     2.562
    37   1 H        0.926     0.040     2.446     2.446
    38   1 H        0.926     0.042     2.422     2.434
    39   1 H        0.926     0.042     2.426     2.436
    40   1 H        0.926     0.042     2.423     2.434
    41   1 H        0.926     0.041     2.437     2.441
    42   1 H        0.926     0.028     2.611     2.527
    43   1 H        0.926     0.029     2.603     2.523
    44   1 H        0.925     0.025     2.663     2.552
    45   1 H        0.926     0.023     2.694     2.567
    46   1 H        0.926     0.024     2.671     2.556
    47   1 H        0.926     0.047     2.357     2.401

molecular dipole:
                 x           y           z       tot (Debye)
 q only:        0.540       0.277       0.023
   full:        0.575       0.337       0.031       1.696

 projected vibrational frequencies (cm⁻¹)
eigval :       -0.00    -0.00    -0.00    -0.00     0.00     0.00
eigval :       19.74    30.58    48.02    64.10    69.81   111.35
eigval :      119.26   144.47   156.03   169.77   184.56   214.52
eigval :      229.62   244.36   277.33   280.79   308.94   345.16
eigval :      348.23   349.84   376.70   387.66   398.73   420.08
eigval :      442.87   477.27   480.02   500.25   506.62   533.65
eigval :      553.71   559.96   564.18   587.42   591.68   617.06
eigval :      635.63   649.08   673.66   692.66   699.73   724.35
eigval :      756.30   768.10   779.41   789.86   809.77   829.88
eigval :      854.02   866.24   876.76   882.46   900.32   909.37
eigval :      914.63   915.08   917.93   922.69   923.22   929.51
eigval :      930.00   936.60   966.92   971.76   994.27  1029.48
eigval :     1061.67  1076.91  1079.60  1096.16  1109.72  1111.31
eigval :     1140.14  1144.71  1155.11  1175.67  1176.63  1183.72
eigval :     1185.23  1191.20  1203.39  1227.05  1230.04  1246.61
eigval :     1258.68  1270.10  1272.19  1305.85  1306.23  1317.77
eigval :     1333.74  1345.01  1378.54  1389.92  1405.32  1414.36
eigval :     1422.33  1430.28  1437.98  1460.02  1470.24  1486.79
eigval :     1490.64  1500.55  1503.70  1509.28  1517.03  1553.50
eigval :     1580.95  1585.88  1591.68  1593.50  1603.99  1613.43
eigval :     3013.05  3018.63  3025.97  3034.62  3051.69  3059.03
eigval :     3064.08  3066.45  3069.89  3070.13  3075.87  3077.44
eigval :     3078.12  3079.41  3084.52  3088.46  3089.68  3096.06
eigval :     3097.42  3100.97  3148.54

   temp. (K)  partition function   enthalpy   heat capacity  entropy
                                   cal/mol     cal/K/mol   cal/K/mol   J/K/mol
 298.15  VIB  0.472E+08            11563.321     78.490     68.992
         ROT  0.103E+08              888.752      2.981     35.073
         INT  0.487E+15            12452.073     81.471    104.065
         TR   0.594E+28             1481.254      4.968     43.306
         TOT                       13933.3271    86.4388   147.3710   616.6003

       T/K    H(0)-H(T)+PV         H(T)/Eh          T*S/Eh         G(T)/Eh
   ------------------------------------------------------------------------
    298.15    0.222042E-01    0.399921E+00    0.700207E-01    0.329900E+00
   ------------------------------------------------------------------------

         :::::::::::::::::::::::::::::::::::::::::::::::::::::
         ::                  THERMODYNAMIC                  ::
         :::::::::::::::::::::::::::::::::::::::::::::::::::::
         :: total free energy         -66.879576709085 Eh   ::
         ::.................................................::
         :: total energy              -67.209476700473 Eh   ::
         :: zero point energy           0.377716545469 Eh   ::
         :: G(RRHO) w/o ZPVE           -0.047816554080 Eh   ::
         :: G(RRHO) contrib.            0.329899991388 Eh   ::
         :::::::::::::::::::::::::::::::::::::::::::::::::::::

           -------------------------------------------------
          | TOTAL ENERGY              -67.209476700473 Eh   |
          | TOTAL ENTHALPY            -66.809555984969 Eh   |
          | TOTAL FREE ENERGY         -66.879576709085 Eh   |
          | GRADIENT NORM               0.000043700229 Eh/α |
          | HOMO-LUMO GAP               2.421699012425 eV   |
           -------------------------------------------------

 * finished run on 2025/07/18 at 12:50:27.057
