   * xtb version 6.7.1 (edcfbbe) compiled by 'albert@albert-system' on 2024-07-22

   ID    Z sym.   atoms
    1    6 C      1-9, 11-26
    2    7 N      10
    3    1 H      27-47

          program call               : xtb data2507/toluene/BACH/BACH.xyz --gfn 2 --gbsa toluene --ohess vtight --parallel 40 --molden --ceasefiles --namespace data2507/toluene/BACH/BACH_toluene_S0_preOpt
      * Solvation model:               GBSA
        Solvent                        toluene
        Solvent mass                       9.2140E+01 g/mol
          :  Hamiltonian                  GFN2-xTB          :
 * total energy  :   -67.1906070 Eh     change       -0.1368250E-08 Eh
 * total energy  :   -67.2035860 Eh     change       -0.1297905E-01 Eh
 * total energy  :   -67.2078138 Eh     change       -0.4227763E-02 Eh
 * total energy  :   -67.2082970 Eh     change       -0.4831590E-03 Eh
 * total energy  :   -67.2084284 Eh     change       -0.1314032E-03 Eh
 * total energy  :   -67.2084743 Eh     change       -0.4591007E-04 Eh
 * total energy  :   -67.2085448 Eh     change       -0.7053050E-04 Eh
 * total energy  :   -67.2086028 Eh     change       -0.5803462E-04 Eh
 * total energy  :   -67.2087371 Eh     change       -0.1342317E-03 Eh
 * total energy  :   -67.2088073 Eh     change       -0.7025321E-04 Eh
 * total energy  :   -67.2089482 Eh     change       -0.6902334E-05 Eh
 * total energy  :   -67.2089505 Eh     change       -0.2227179E-05 Eh
 * total energy  :   -67.2089537 Eh     change       -0.3204956E-05 Eh
 * total energy  :   -67.2089517 Eh     change        0.1941383E-05 Eh
 * total energy  :   -67.2089543 Eh     change       -0.2627879E-05 Eh
 * total energy  :   -67.2089554 Eh     change       -0.1036589E-05 Eh
 * total energy  :   -67.2089555 Eh     change       -0.1408104E-06 Eh
 * total energy  :   -67.2089555 Eh     change        0.4432449E-07 Eh
 * total energy  :   -67.2089556 Eh     change       -0.8856595E-07 Eh
   *** GEOMETRY OPTIMIZATION CONVERGED AFTER 25 ITERATIONS ***

 final structure:
================
47
 xtb: 6.7.1 (edcfbbe)
C           -1.79402195736131       -2.04538021570832       -1.29748215131869
C           -1.13869756217378       -1.50765720147908       -0.00001010693358
C           -1.79403181527524       -2.04539921336426        1.29745595415343
C            0.28406821951636       -2.04152181996943       -0.00001493566409
C            0.48587815051983       -3.41489429514901       -0.00001244420441
C            1.75481900543212       -3.96574978303669       -0.00002518221554
C            2.85685009116955       -3.12881448120514       -0.00002751028163
C            2.68193577418289       -1.76022312389975       -0.00002114301320
C            1.39965636062414       -1.20349756666439       -0.00001975064209
N            1.23406394784132        0.17021622648049       -0.00002413927904
C            2.39908964709816        0.99244044424899       -0.00001293344775
C            2.96995582177671        1.38762838571246        1.20368352543121
C            4.10490686693814        2.17984424611590        1.20002706489556
C            4.67276491116191        2.57605170447798        0.00000643288337
C            4.10495444289951        2.17980529474064       -1.20002316733009
C            2.97000214545844        1.38759010284036       -1.20369930651848
C           -0.02012486664426        0.75962809138039       -0.00001087058367
C           -0.07047185710732        2.17440257122283       -0.00000429811881
C           -1.25753983581740        2.83363112165789        0.00000962368533
C           -2.47243797612416        2.12140922930072        0.00002156749612
C           -3.69865595315589        2.81609668879229        0.00003513831213
C           -4.88972822305724        2.14892128979304        0.00003874773388
C           -4.88068759817246        0.74808454303919        0.00003566804234
C           -3.70517461001034        0.04885171536698        0.00003130879673
C           -2.44306860203206        0.69762544770003        0.00001990713946
C           -1.18990431518165        0.01435820410662       -0.00000445188113
H           -2.57100337096995       -1.38663230225209       -1.67039958627406
H           -1.03504077575054       -2.12381909634531       -2.07533774908119
H           -2.21949834694727       -3.03395570412950       -1.14362412012396
H           -2.57082714475444       -1.38650575606405        1.67051178811980
H           -1.03500345873537       -2.12409361189109        2.07524343556089
H           -2.21975138650350       -3.03386181977908        1.14351908363210
H           -0.36870375384576       -4.07354182487255       -0.00000190946388
H            1.88058192767197       -5.03823505290557       -0.00002733920892
H            3.85638382411230       -3.53902404637959       -0.00003062240301
H            3.54562334191609       -1.11289937642104       -0.00001440748800
H            2.51857399430977        1.07288214184261        2.13338820736861
H            4.54627195455424        2.48762367338371        2.13645319726777
H            5.55843044095833        3.19387931763332        0.00001364266537
H            4.54635786579548        2.48755262998983       -2.13644189225073
H            2.51865727140921        1.07281589927366       -2.13341231481975
H            0.85334565513327        2.73163265601838       -0.00001200125095
H           -1.28247730396702        3.91404652719473        0.00000865345976
H           -3.67220265797511        3.89728710540505        0.00004725907846
H           -5.82786792679405        2.68472556391116        0.00005264612798
H           -5.81960505005105        0.21190998433486        0.00004843496447
H           -3.76664631207266       -1.02523051444821        0.00004204698186

          :  Hamiltonian                  GFN2-xTB          :
         :: gradient norm              0.000044833349 Eh/a0 ::
         :: HOMO-LUMO gap              2.413133870380 eV    ::
         :: SCC energy               -68.452312228301 Eh    ::
         :: -> dispersion             -0.062449450380 Eh    ::
         :: -> Gsolv                  -0.025207198598 Eh    ::
         :: repulsion energy           1.243356657163 Eh    ::

    * Orbital Energies and Occupations

         #    Occupation            Energy/Eh            Energy/eV
      -------------------------------------------------------------
         1        2.0000           -0.6659668             -18.1219
       ...           ...                  ...                  ...
        51        2.0000           -0.4363403             -11.8734
        52        2.0000           -0.4271015             -11.6220
        53        2.0000           -0.4268848             -11.6161
        54        2.0000           -0.4182523             -11.3812
        55        2.0000           -0.4147181             -11.2851
        56        2.0000           -0.4118267             -11.2064
        57        2.0000           -0.4097076             -11.1487
        58        2.0000           -0.4037009             -10.9853
        59        2.0000           -0.3976541             -10.8207
        60        2.0000           -0.3969317             -10.8011
        61        2.0000           -0.3920418             -10.6680
        62        2.0000           -0.3769209             -10.2565
        63        2.0000           -0.3407838              -9.2732 (HOMO)
        64                         -0.2521028              -6.8601 (LUMO)
        65                         -0.2342303              -6.3737
        66                         -0.2330194              -6.3408
        67                         -0.2236908              -6.0869
        68                         -0.2155372              -5.8651
        69                         -0.1990284              -5.4158
        70                         -0.1801930              -4.9033
        71                         -0.1332921              -3.6271
        72                         -0.1042233              -2.8361
        73                         -0.0804601              -2.1894
        74                         -0.0516919              -1.4066
       ...                                ...                  ...
       125                          0.7000346              19.0489
      -------------------------------------------------------------
                  HL-Gap            0.0886810 Eh            2.4131 eV

     #   Z          covCN         q      C6AA      α(0)
     1   6 C        3.760    -0.104    22.542     6.769
     2   6 C        3.905     0.022    20.156     6.382
     3   6 C        3.760    -0.104    22.542     6.769
     4   6 C        2.987    -0.015    28.370     8.737
     5   6 C        2.928    -0.039    28.978     8.828
     6   6 C        2.917    -0.047    29.177     8.858
     7   6 C        2.919    -0.036    28.902     8.816
     8   6 C        2.923    -0.061    29.505     8.908
     9   6 C        2.930     0.058    26.695     8.473
    10   7 N        2.756    -0.076    22.714     7.078
    11   6 C        2.927     0.070    26.436     8.432
    12   6 C        2.921    -0.038    28.939     8.822
    13   6 C        2.920    -0.028    28.697     8.785
    14   6 C        2.919    -0.030    28.756     8.794
    15   6 C        2.920    -0.028    28.697     8.785
    16   6 C        2.921    -0.038    28.939     8.822
    17   6 C        2.921     0.058    26.690     8.472
    18   6 C        2.920    -0.055    29.378     8.888
    19   6 C        2.918    -0.041    29.015     8.833
    20   6 C        2.990    -0.000    28.029     8.684
    21   6 C        2.923    -0.037    28.925     8.820
    22   6 C        2.914    -0.038    28.935     8.821
    23   6 C        2.917    -0.036    28.885     8.813
    24   6 C        2.918    -0.046    29.150     8.854
    25   6 C        2.979     0.005    27.913     8.666
    26   6 C        2.969    -0.027    28.683     8.785
    27   1 H        0.925     0.044     2.395     2.420
    28   1 H        0.925     0.030     2.586     2.515
    29   1 H        0.925     0.038     2.479     2.462
    30   1 H        0.925     0.044     2.395     2.420
    31   1 H        0.925     0.030     2.586     2.515
    32   1 H        0.925     0.038     2.479     2.462
    33   1 H        0.926     0.034     2.532     2.489
    34   1 H        0.926     0.024     2.679     2.559
    35   1 H        0.926     0.024     2.669     2.555
    36   1 H        0.926     0.023     2.687     2.563
    37   1 H        0.926     0.041     2.441     2.443
    38   1 H        0.926     0.042     2.423     2.434
    39   1 H        0.926     0.042     2.427     2.436
    40   1 H        0.926     0.042     2.423     2.434
    41   1 H        0.926     0.041     2.441     2.443
    42   1 H        0.926     0.028     2.610     2.526
    43   1 H        0.926     0.029     2.601     2.522
    44   1 H        0.925     0.025     2.661     2.551
    45   1 H        0.926     0.023     2.693     2.566
    46   1 H        0.925     0.024     2.668     2.554
    47   1 H        0.926     0.048     2.346     2.395

molecular dipole:
                 x           y           z       tot (Debye)
 q only:        0.551       0.246       0.000
   full:        0.595       0.296       0.000       1.688

 projected vibrational frequencies (cm⁻¹)
eigval :       -0.00    -0.00    -0.00     0.00     0.00     0.00
eigval :      -69.61    20.41    49.02    51.09    66.27    75.28
eigval :      110.52   120.56   156.88   172.42   173.38   212.91
eigval :      227.91   246.98   280.92   285.38   310.28   337.61
eigval :      348.32   350.31   379.13   390.20   397.83   422.70
eigval :      444.23   476.52   480.85   499.16   507.29   536.30
eigval :      554.94   561.98   564.51   587.53   590.68   617.83
eigval :      634.97   649.84   675.20   694.60   699.88   724.44
eigval :      758.47   769.82   776.50   790.24   810.31   829.85
eigval :      854.91   861.61   877.19   885.38   902.07   908.43
eigval :      910.67   914.94   918.20   919.70   923.89   930.57
eigval :      934.84   941.51   966.82   972.41   994.45  1030.47
eigval :     1061.92  1077.57  1081.14  1097.07  1109.33  1112.41
eigval :     1139.93  1147.45  1155.74  1176.75  1177.69  1184.14
eigval :     1185.91  1191.34  1203.25  1227.49  1229.97  1246.83
eigval :     1259.76  1271.44  1273.04  1305.51  1306.15  1318.03
eigval :     1332.35  1345.27  1378.44  1390.91  1406.38  1414.99
eigval :     1427.76  1430.32  1438.31  1460.19  1470.75  1488.77
eigval :     1490.80  1497.88  1505.19  1509.60  1518.84  1553.96
eigval :     1580.94  1585.79  1591.70  1593.40  1603.59  1613.19
eigval :     3011.36  3013.18  3028.83  3032.35  3058.34  3063.60
eigval :     3067.23  3068.17  3069.31  3070.53  3075.59  3077.06
eigval :     3079.68  3080.23  3084.34  3088.03  3093.71  3095.84
eigval :     3098.66  3101.73  3135.63

   temp. (K)  partition function   enthalpy   heat capacity  entropy
                                   cal/mol     cal/K/mol   cal/K/mol   J/K/mol
 298.15  VIB  0.130E+08            11109.437     77.019     66.025
         ROT  0.103E+08              888.752      2.981     35.073
         INT  0.134E+15            11998.190     80.000    101.098
         TR   0.594E+28             1481.254      4.968     43.306
         TOT                       13479.4435    84.9681   144.4040   604.1865

       T/K    H(0)-H(T)+PV         H(T)/Eh          T*S/Eh         G(T)/Eh
   ------------------------------------------------------------------------
    298.15    0.214809E-01    0.399048E+00    0.686110E-01    0.330437E+00
   ------------------------------------------------------------------------

         :::::::::::::::::::::::::::::::::::::::::::::::::::::
         ::                  THERMODYNAMIC                  ::
         :::::::::::::::::::::::::::::::::::::::::::::::::::::
         :: total free energy         -66.878518336235 Eh   ::
         ::.................................................::
         :: total energy              -67.208955567554 Eh   ::
         :: zero point energy           0.377567387548 Eh   ::
         :: G(RRHO) w/o ZPVE           -0.047130156229 Eh   ::
         :: G(RRHO) contrib.            0.330437231319 Eh   ::
         :::::::::::::::::::::::::::::::::::::::::::::::::::::

           -------------------------------------------------
          | TOTAL ENERGY              -67.208955567554 Eh   |
          | TOTAL ENTHALPY            -66.809907319452 Eh   |
          | TOTAL FREE ENERGY         -66.878518336235 Eh   |
          | GRADIENT NORM               0.000044806203 Eh/α |
          | HOMO-LUMO GAP               2.413134094238 eV   |
           -------------------------------------------------

 * finished run on 2025/07/18 at 12:49:05.239
