   * xtb version 6.7.1 (edcfbbe) compiled by 'albert@albert-system' on 2024-07-22

   ID    Z sym.   atoms
    1    6 C      1-9, 11-26
    2    7 N      10
    3    1 H      27-47

          program call               : xtb data2507/toluene/BACH/BACH_toluene_S0_finalOpt.xtbopt.xyz --gfn 2 --uhf 2 --gbsa toluene --ohess vtight --parallel 40 --molden --ceasefiles --namespace data2507/toluene/BACH/BACH_toluene_T1_preOpt
      * Solvation model:               GBSA
        Solvent                        toluene
        Solvent mass                       9.2140E+01 g/mol
          :  Hamiltonian                  GFN2-xTB          :
 * total energy  :   -67.1108528 Eh     change       -0.1361400E-09 Eh
 * total energy  :   -67.1167873 Eh     change       -0.5934536E-02 Eh
 * total energy  :   -67.1182404 Eh     change       -0.1453042E-02 Eh
 * total energy  :   -67.1183290 Eh     change       -0.8863401E-04 Eh
 * total energy  :   -67.1183582 Eh     change       -0.2914801E-04 Eh
 * total energy  :   -67.1183701 Eh     change       -0.1195944E-04 Eh
 * total energy  :   -67.1183814 Eh     change       -0.1123017E-04 Eh
 * total energy  :   -67.1183925 Eh     change       -0.1110118E-04 Eh
 * total energy  :   -67.1183970 Eh     change       -0.4495324E-05 Eh
 * total energy  :   -67.1184020 Eh     change       -0.5067815E-05 Eh
 * total energy  :   -67.1184173 Eh     change       -0.2278875E-06 Eh
 * total energy  :   -67.1184175 Eh     change       -0.2015374E-06 Eh
 * total energy  :   -67.1184177 Eh     change       -0.2360539E-06 Eh
 * total energy  :   -67.1184179 Eh     change       -0.2486591E-06 Eh
 * total energy  :   -67.1184182 Eh     change       -0.2142452E-06 Eh
 * total energy  :   -67.1184183 Eh     change       -0.1653736E-06 Eh
 * total energy  :   -67.1184185 Eh     change       -0.1423680E-06 Eh
 * total energy  :   -67.1184186 Eh     change       -0.1194271E-06 Eh
 * total energy  :   -67.1184187 Eh     change       -0.8746736E-07 Eh
   *** GEOMETRY OPTIMIZATION CONVERGED AFTER 35 ITERATIONS ***

 final structure:
================
47
 xtb: 6.7.1 (edcfbbe)
C           -1.81670259172919       -2.46244246710034       -1.10747355372983
C           -1.06734836393725       -1.73798437849352        0.04417182939938
C           -1.52068947903418       -2.22333530336799        1.44754513924740
C            0.38624250813322       -2.14392059395317       -0.03987827976721
C            0.71912971077596       -3.49042099956113       -0.07756597932850
C            2.03486631545651       -3.91708025750434       -0.10116242516616
C            3.06011612382030       -2.97652027925283       -0.07719349856530
C            2.76261962927340       -1.63608505447439       -0.04415352454270
C            1.42530976319041       -1.19762343698762       -0.03382588699546
N            1.13393251822408        0.14315693995927       -0.02508397193033
C            2.22415988472415        1.06481806808113        0.01158287678697
C            2.69025538300056        1.52962192398839        1.23410403279068
C            3.75575486839348        2.41283380405716        1.26971245276336
C            4.35299371232242        2.83118060255917        0.09149268076899
C            3.88451205862870        2.36685425104824       -1.12675339051998
C            2.81999963820215        1.48303927531838       -1.17172071826759
C           -0.14329720230705        0.64817614701704       -0.06591765188302
C           -0.32891506943759        2.01946875020214       -0.13982514430919
C           -1.59830216322674        2.56230253780860       -0.16570427767199
C           -2.74972105935449        1.73696498711730       -0.09506092498540
C           -4.01931742925422        2.30545837512276       -0.10240357473274
C           -5.18073733164607        1.51193781993357       -0.02604987659771
C           -5.05035074075286        0.15217602269290        0.05986509122389
C           -3.78151869009057       -0.44677358520872        0.06728936393040
C           -2.58965828673750        0.31396628509996       -0.01505504940155
C           -1.28995102867795       -0.24770630944741       -0.02839884761818
H           -2.52886056315392       -1.80097123292661       -1.59072930254245
H           -1.10505596241061       -2.78387225655250       -1.86564983257378
H           -2.34700751957413       -3.33890520380717       -0.74408976583283
H           -2.51824423715076       -1.87269746987659        1.68993370100635
H           -0.83692534990584       -1.83056698149461        2.19904435948516
H           -1.49985388454154       -3.30848350734966        1.50200746837267
H           -0.06806691784675       -4.22828647567761       -0.09170545067993
H            2.26260838777794       -4.97154401971174       -0.13262703845009
H            4.09147547024494       -3.29642890244585       -0.08629838138332
H            3.56067966131018       -0.91061196566294       -0.02792255945334
H            2.21628466834555        1.19752575847299        2.14591963339371
H            4.11872587844472        2.77383751484996        2.22024819744544
H            5.18343253600325        3.52031949218968        0.12282314673489
H            4.34738557099847        2.69240993933357       -2.04628226662671
H            2.44515327866408        1.11469382262442       -2.11517497153248
H            0.52357924390579        2.67955119218244       -0.17991523396419
H           -1.72725449575876        3.63225619646018       -0.23007878639664
H           -4.11098057280932        3.38054778835805       -0.16816327780097
H           -6.15337963903638        1.98294505656267       -0.03507196413911
H           -5.92401773196091       -0.48183189758442        0.12239023018106
H           -3.75574774035516       -1.51851369260556        0.13679037047665

          :  Hamiltonian                  GFN2-xTB          :
         :: gradient norm              0.000038612315 Eh/a0 ::
         :: HOMO-LUMO gap              0.386328110349 eV    ::
         :: SCC energy               -68.344068477951 Eh    ::
         :: -> dispersion             -0.062334397123 Eh    ::
         :: -> Gsolv                  -0.026980022221 Eh    ::
         :: repulsion energy           1.225649807715 Eh    ::

    * Orbital Energies and Occupations

         #    Occupation            Energy/Eh            Energy/eV
      -------------------------------------------------------------
         1        2.0000           -0.6775886             -18.4381
       ...           ...                  ...                  ...
        52        2.0000           -0.4284133             -11.6577
        53        2.0000           -0.4271208             -11.6225
        54        2.0000           -0.4190188             -11.4021
        55        2.0000           -0.4173418             -11.3564
        56        2.0000           -0.4129739             -11.2376
        57        2.0000           -0.4036535             -10.9840
        58        2.0000           -0.4029210             -10.9640
        59        2.0000           -0.4012819             -10.9194
        60        2.0000           -0.3960650             -10.7775
        61        2.0000           -0.3937355             -10.7141
        62        2.0000           -0.3672445              -9.9932
        63        1.0000           -0.3405151              -9.2659
        64        0.9994           -0.2531220              -6.8878 (HOMO)
        65        0.0005           -0.2389246              -6.5015 (LUMO)
        66        0.0001           -0.2374206              -6.4605
        67                         -0.2233786              -6.0784
        68                         -0.2205357              -6.0011
        69                         -0.1989975              -5.4150
        70                         -0.1766770              -4.8076
        71                         -0.1300154              -3.5379
        72                         -0.1084631              -2.9514
        73                         -0.0907263              -2.4688
        74                         -0.0478830              -1.3030
        75                         -0.0008236              -0.0224
       ...                                ...                  ...
       125                          0.7062405              19.2178
      -------------------------------------------------------------
                  HL-Gap            0.0141974 Eh            0.3863 eV

     #   Z          covCN         q      C6AA      α(0)
     1   6 C        3.757    -0.106    22.573     6.774
     2   6 C        3.905     0.026    20.086     6.370
     3   6 C        3.766    -0.100    22.442     6.752
     4   6 C        2.987    -0.006    28.168     8.706
     5   6 C        2.924    -0.037    28.930     8.820
     6   6 C        2.916    -0.042    29.041     8.837
     7   6 C        2.917    -0.033    28.820     8.803
     8   6 C        2.920    -0.054    29.340     8.883
     9   6 C        2.931     0.052    26.836     8.496
    10   7 N        2.756    -0.019    21.624     6.907
    11   6 C        2.936     0.066    26.520     8.446
    12   6 C        2.921    -0.035    28.868     8.811
    13   6 C        2.920    -0.026    28.657     8.779
    14   6 C        2.919    -0.028    28.709     8.786
    15   6 C        2.920    -0.026    28.653     8.778
    16   6 C        2.921    -0.035    28.880     8.813
    17   6 C        2.920     0.044    27.017     8.524
    18   6 C        2.911    -0.067    29.667     8.931
    19   6 C        2.918    -0.066    29.635     8.927
    20   6 C        2.978     0.004    27.924     8.668
    21   6 C        2.922    -0.061    29.528     8.911
    22   6 C        2.910    -0.037    28.926     8.819
    23   6 C        2.911    -0.046    29.144     8.852
    24   6 C        2.917    -0.063    29.557     8.915
    25   6 C        2.969     0.004    27.928     8.668
    26   6 C        2.966    -0.027    28.664     8.782
    27   1 H        0.925     0.048     2.345     2.395
    28   1 H        0.925     0.040     2.455     2.450
    29   1 H        0.925     0.044     2.394     2.419
    30   1 H        0.925     0.051     2.304     2.374
    31   1 H        0.925     0.033     2.547     2.496
    32   1 H        0.925     0.046     2.373     2.409
    33   1 H        0.926     0.042     2.426     2.436
    34   1 H        0.926     0.032     2.556     2.500
    35   1 H        0.926     0.033     2.545     2.495
    36   1 H        0.926     0.032     2.552     2.498
    37   1 H        0.926     0.044     2.397     2.421
    38   1 H        0.926     0.047     2.360     2.402
    39   1 H        0.926     0.046     2.371     2.408
    40   1 H        0.926     0.047     2.359     2.402
    41   1 H        0.926     0.045     2.384     2.415
    42   1 H        0.926     0.016     2.789     2.611
    43   1 H        0.926     0.010     2.893     2.660
    44   1 H        0.926     0.007     2.945     2.683
    45   1 H        0.926     0.010     2.883     2.655
    46   1 H        0.925     0.011     2.871     2.650
    47   1 H        0.926     0.035     2.514     2.479

molecular dipole:
                 x           y           z       tot (Debye)
 q only:        1.977      -0.666       0.077
   full:        1.958      -0.590       0.096       5.205

 projected vibrational frequencies (cm⁻¹)
eigval :       -0.00    -0.00    -0.00     0.00     0.00     0.00
eigval :       12.76    31.01    50.65    62.60    64.29    84.26
eigval :      121.24   133.63   155.37   169.55   195.60   206.57
eigval :      226.64   242.19   267.36   278.76   306.67   326.18
eigval :      336.18   349.22   373.32   377.80   388.14   408.10
eigval :      436.58   459.20   475.59   498.30   502.72   514.28
eigval :      528.74   546.92   553.54   580.03   590.83   598.37
eigval :      613.36   641.87   670.03   685.99   692.20   694.24
eigval :      724.49   742.30   753.48   767.36   784.57   791.29
eigval :      807.05   839.21   842.78   848.02   858.45   873.81
eigval :      888.50   896.83   910.34   913.72   915.96   916.29
eigval :      927.08   928.45   954.32   969.77   990.91  1022.41
eigval :     1045.84  1070.48  1076.56  1089.39  1096.57  1109.81
eigval :     1112.59  1115.00  1136.65  1150.95  1175.64  1179.77
eigval :     1180.13  1183.19  1197.56  1202.16  1215.63  1227.68
eigval :     1245.38  1269.50  1271.96  1295.72  1301.10  1307.69
eigval :     1331.46  1345.23  1352.52  1362.03  1389.03  1395.28
eigval :     1409.16  1419.29  1426.62  1428.19  1445.60  1458.85
eigval :     1466.38  1471.03  1480.90  1494.87  1497.69  1499.90
eigval :     1510.10  1516.83  1540.54  1568.36  1576.52  1578.49
eigval :     3017.32  3022.55  3031.85  3037.51  3055.06  3059.38
eigval :     3059.59  3063.81  3072.99  3076.26  3078.86  3080.33
eigval :     3082.46  3087.41  3089.01  3093.26  3095.41  3098.87
eigval :     3099.78  3105.06  3146.12

   temp. (K)  partition function   enthalpy   heat capacity  entropy
                                   cal/mol     cal/K/mol   cal/K/mol   J/K/mol
 298.15  VIB  0.119E+09            11856.258     80.150     71.283
         ROT  0.103E+08              888.752      2.981     35.077
         INT  0.123E+16            12745.011     83.131    106.359
         TR   0.594E+28             1481.254      4.968     43.306
         TOT                       14226.2648    88.0990   149.6653   626.1997

       T/K    H(0)-H(T)+PV         H(T)/Eh          T*S/Eh         G(T)/Eh
   ------------------------------------------------------------------------
    298.15    0.226710E-01    0.396502E+00    0.711108E-01    0.325391E+00
   ------------------------------------------------------------------------

         :::::::::::::::::::::::::::::::::::::::::::::::::::::
         ::                  THERMODYNAMIC                  ::
         :::::::::::::::::::::::::::::::::::::::::::::::::::::
         :: total free energy         -66.793027364168 Eh   ::
         ::.................................................::
         :: total energy              -67.118418675082 Eh   ::
         :: zero point energy           0.373831139397 Eh   ::
         :: G(RRHO) w/o ZPVE           -0.048439828483 Eh   ::
         :: G(RRHO) contrib.            0.325391310914 Eh   ::
         :::::::::::::::::::::::::::::::::::::::::::::::::::::

           -------------------------------------------------
          | TOTAL ENERGY              -67.118418675082 Eh   |
          | TOTAL ENTHALPY            -66.721916539715 Eh   |
          | TOTAL FREE ENERGY         -66.793027364168 Eh   |
          | GRADIENT NORM               0.000038627801 Eh/α |
          | HOMO-LUMO GAP               0.386329983303 eV   |
           -------------------------------------------------

 * finished run on 2025/07/18 at 12:50:29.299
