   * xtb version 6.7.1 (edcfbbe) compiled by 'albert@albert-system' on 2024-07-22

   ID    Z sym.   atoms
    1    6 C      1-6, 8-26
    2    7 N      7
    3    1 H      27-43

          program call               : xtb data2507/gas/SpiroAc/SpiroAc_gas_S0_finalOpt.xtbopt.xyz --gfn 2 --spinpol --tblite --uhf 2 --ohess vtight --parallel 40 --molden --ceasefiles --namespace data2507/gas/SpiroAc/SpiroAc_gas_T1_preOpt
 * total energy  :   -65.0363778 Eh     change        0.4223479E-07 Eh
 * total energy  :   -65.0417005 Eh     change       -0.5322745E-02 Eh
 * total energy  :   -65.0426818 Eh     change       -0.9813343E-03 Eh
 * total energy  :   -65.0469126 Eh     change       -0.4230770E-02 Eh
 * total energy  :   -65.0476207 Eh     change       -0.7081116E-03 Eh
 * total energy  :   -65.0481334 Eh     change       -0.5127053E-03 Eh
 * total energy  :   -65.0481419 Eh     change       -0.8429319E-05 Eh
 * total energy  :   -65.0481444 Eh     change       -0.2507123E-05 Eh
 * total energy  :   -65.0481451 Eh     change       -0.6852903E-06 Eh
 * total energy  :   -65.0481452 Eh     change       -0.1086896E-06 Eh
 * total energy  :   -65.0481452 Eh     change       -0.4968005E-07 Eh
   *** GEOMETRY OPTIMIZATION CONVERGED AFTER 11 ITERATIONS ***

 final structure:
================
43
 xtb: 6.7.1 (edcfbbe)
C           -2.40928815828487        3.61244621561474        0.08326193363152
C           -1.02409221149384        3.66665639607435        0.10511112619979
C           -0.28939461397250        2.49413460636587        0.09287069672233
C           -0.91504222016281        1.25729748915631        0.06024488973240
C           -2.31312820485916        1.20782135903486        0.04026585579203
C           -3.05135365523800        2.39176193593334        0.05168521215049
N           -2.96164993373475       -0.00400228349974        0.01071932933313
C           -2.31004564307609       -1.21412509587678        0.04207761902441
C           -3.04524965817458       -2.39992603466484        0.05527413820132
C           -2.40007354312122       -3.61891987127066        0.08869530936719
C           -1.01474423203654       -3.66956466549282        0.11063642742507
C           -0.28303931891911       -2.49519379367157        0.09662651822604
C           -0.91183946748307       -1.26000690412198        0.06213028348271
C           -0.07970867085245       -0.00031306335051        0.02937013903064
C            0.94181155571539        0.00176448833531        1.15293706673511
C            0.72759834664209        0.00256219066568        2.49241443267710
C            1.83615817344362        0.00444655223206        3.36445015556478
C            3.15043246586982        0.00547185903338        2.84896573583744
C            3.39507750946883        0.00472450641458        1.50937013066717
C            2.28584925746439        0.00283448974121        0.60068885596660
C            2.21628496127699        0.00173172875098       -0.77856373499630
C            3.22824986217548        0.00211339132610       -1.79444075502295
C            2.85010210693884        0.00076156007527       -3.10238841952547
C            1.49030331863200       -0.00100171687882       -3.48306423290121
C            0.47541265883834       -0.00143388349597       -2.50406400293866
C            0.82370467913658       -0.00012177842092       -1.19300845655841
H           -2.98941805738581        4.52304413286698        0.09136075823868
H           -0.51882798997352        4.61976744924324        0.13025066450033
H            0.78974928682836        2.53241746428104        0.10777506237477
H           -4.13128575371294        2.34002143008140        0.03585882713761
H           -3.97089020902645       -0.00529147448704        0.00420698644035
H           -4.12530989319108       -2.35096392280473        0.03936454199248
H           -2.97787840783285       -4.53098147756748        0.09816434036246
H           -0.50704921096017       -4.62134372479319        0.13722294451701
H            0.79619780888549       -2.53070695678466        0.11159450922315
H           -0.27485703562624        0.00176794221018        2.89752141834115
H            1.67964838488252        0.00508926411587        4.43121900457258
H            3.97547850763202        0.00688656062153        3.54762619586821
H            4.40091318436072        0.00551153792683        1.11814664396461
H            4.26836419645317        0.00346160128592       -1.50644454659727
H            3.60048142985226        0.00102704604735       -3.88067359567225
H            1.22730664919039       -0.00203484902751       -4.52869101288474
H           -0.56272508476912       -0.00280149621583       -2.80639691697061

 projected vibrational frequencies (cm⁻¹)
eigval :       -0.00    -0.00    -0.00     0.00     0.00     0.00
eigval :       -9.02    38.09    43.36    64.62    69.04   109.88
eigval :      116.14   149.14   191.62   212.18   224.93   226.57
eigval :      277.46   282.10   311.70   320.71   387.03   387.98
eigval :      391.49   408.29   418.01   427.24   431.67   468.46
eigval :      480.63   489.43   507.75   512.23   529.50   553.18
eigval :      582.86   594.58   595.95   639.62   640.08   655.74
eigval :      678.52   681.35   686.89   692.92   695.91   728.42
eigval :      764.89   769.27   775.49   789.85   822.59   862.66
eigval :      863.55   864.23   871.96   878.31   880.27   897.02
eigval :      899.52   899.84   909.80   911.77   917.48   919.43
eigval :      919.58   940.80  1013.30  1027.50  1064.87  1083.35
eigval :     1095.39  1096.60  1124.54  1127.72  1137.70  1139.70
eigval :     1160.44  1168.18  1179.88  1180.18  1197.38  1201.10
eigval :     1222.56  1236.79  1247.75  1261.45  1273.18  1274.87
eigval :     1281.34  1286.58  1323.69  1333.26  1335.75  1351.13
eigval :     1351.66  1370.67  1374.60  1439.70  1461.06  1466.59
eigval :     1482.50  1487.56  1492.92  1529.59  1560.45  1567.17
eigval :     1579.18  1582.51  1597.66  1631.14  3064.33  3064.76
eigval :     3065.10  3065.48  3066.86  3067.46  3084.45  3084.53
eigval :     3085.49  3089.06  3089.87  3090.22  3099.60  3100.11
eigval :     3100.61  3101.29  3430.78

   temp. (K)  partition function   enthalpy   heat capacity  entropy
                                   cal/mol     cal/K/mol   cal/K/mol   J/K/mol
 298.15  VIB  0.270E+08            10824.294     74.904     64.770
         ROT  0.834E+07              888.752      2.981     34.651
         INT  0.225E+15            11713.046     77.885     99.421
         TR   0.584E+28             1481.254      4.968     43.270
         TOT                       13194.3000    82.8529   142.6906   597.0174

       T/K    H(0)-H(T)+PV         H(T)/Eh          T*S/Eh         G(T)/Eh
   ------------------------------------------------------------------------
    298.15    0.210265E-01    0.350043E+00    0.677969E-01    0.282247E+00
   ------------------------------------------------------------------------

         :::::::::::::::::::::::::::::::::::::::::::::::::::::
         ::                  THERMODYNAMIC                  ::
         :::::::::::::::::::::::::::::::::::::::::::::::::::::
         :: total free energy         -64.765898634803 Eh   ::
         ::.................................................::
         :: total energy              -65.048145201510 Eh   ::
         :: zero point energy           0.329017011360 Eh   ::
         :: G(RRHO) w/o ZPVE           -0.046770444652 Eh   ::
         :: G(RRHO) contrib.            0.282246566708 Eh   ::
         :::::::::::::::::::::::::::::::::::::::::::::::::::::

           -------------------------------------------------
          | TOTAL ENERGY              -65.048145201510 Eh   |
          | TOTAL ENTHALPY            -64.698101734762 Eh   |
          | TOTAL FREE ENERGY         -64.765898634803 Eh   |
          | GRADIENT NORM               0.000061525955 Eh/α |
           -------------------------------------------------

 * finished run on 2025/07/19 at 19:01:14.100
