   * xtb version 6.7.1 (edcfbbe) compiled by 'albert@albert-system' on 2024-07-22

   ID    Z sym.   atoms
    1    6 C      1-6, 8-26
    2    7 N      7
    3    1 H      27-43

          program call               : xtb data2507/gas/SpiroAc/SpiroAc_gas_T1_crest.xyz --gfn 2 --spinpol --tblite --uhf 2 --ohess vtight --parallel 40 --molden --ceasefiles --namespace data2507/gas/SpiroAc/SpiroAc_gas_T1_finalOpt
 * total energy  :   -65.0480620 Eh     change        0.6315304E-10 Eh
 * total energy  :   -65.0480924 Eh     change       -0.3038666E-04 Eh
 * total energy  :   -65.0481011 Eh     change       -0.8653475E-05 Eh
 * total energy  :   -65.0481041 Eh     change       -0.3053038E-05 Eh
 * total energy  :   -65.0481073 Eh     change       -0.3212022E-05 Eh
 * total energy  :   -65.0481101 Eh     change       -0.2794773E-05 Eh
 * total energy  :   -65.0481120 Eh     change       -0.1832882E-05 Eh
 * total energy  :   -65.0481131 Eh     change       -0.1080506E-05 Eh
 * total energy  :   -65.0481138 Eh     change       -0.7868213E-06 Eh
 * total energy  :   -65.0481146 Eh     change       -0.7779135E-06 Eh
 * total energy  :   -65.0481211 Eh     change       -0.2210980E-05 Eh
 * total energy  :   -65.0481233 Eh     change       -0.2251156E-05 Eh
 * total energy  :   -65.0481253 Eh     change       -0.1942698E-05 Eh
 * total energy  :   -65.0481267 Eh     change       -0.1448611E-05 Eh
 * total energy  :   -65.0481277 Eh     change       -0.9657776E-06 Eh
 * total energy  :   -65.0481285 Eh     change       -0.7796595E-06 Eh
 * total energy  :   -65.0481292 Eh     change       -0.7801908E-06 Eh
 * total energy  :   -65.0481301 Eh     change       -0.8985299E-06 Eh
 * total energy  :   -65.0481302 Eh     change       -0.2423317E-07 Eh
   *** GEOMETRY OPTIMIZATION CONVERGED AFTER 22 ITERATIONS ***

 final structure:
================
43
 xtb: 6.7.1 (edcfbbe)
C           -2.39663860920301        3.60433837269769       -0.27505678130963
C           -1.01473503266152        3.65613066418648       -0.37320936689896
C           -0.27717269400112        2.48574418446850       -0.33522734824496
C           -0.89801860935785        1.25317229630262       -0.20550748409339
C           -2.29380353629293        1.20545845596646       -0.11550740200807
C           -3.03422113169476        2.38713769053629       -0.14921837765985
N           -2.93621283712629       -0.00516279863771        0.00178448800701
C           -2.29201859243461       -1.21457117235271       -0.11831373826063
C           -3.03085109106708       -2.39716389897547       -0.15473172274377
C           -2.39163709689221       -3.61320511915608       -0.28342266609058
C           -1.00966225632650       -3.66291993140117       -0.38174970629341
C           -0.27365017816482       -2.49162442381980       -0.34093145182193
C           -0.89612185307838       -1.26020360959130       -0.20831421527430
C           -0.06662398403776       -0.00320480907442       -0.09987267439448
C            0.67849303432361       -0.00189341518090        1.22669633118935
C            0.17093054302961       -0.00889926703714        2.48504158369570
C            1.05689533175555       -0.00372713011226        3.58097463334211
C            2.45373144874565        0.00927305463903        3.37071015949984
C            2.98982573135412        0.01594425358210        2.11953459546460
C            2.11119140873242        0.00947990976863        0.98668871126428
C            2.35004420142305        0.01076500979462       -0.37359866520486
C            3.56292073038446        0.01925545405625       -1.13790703110040
C            3.48584225478035        0.01610804826824       -2.49775774854987
C            2.24552884831514        0.00465280574921       -3.17144713841258
C            1.03768211421663       -0.00282007708513       -2.44314416600157
C            1.08406348710808        0.00062684287848       -1.08705304679316
H           -2.97796959195519        4.51388462001741       -0.29853710172016
H           -0.51344325145914        4.60636654982652       -0.47402154523936
H            0.79992414133452        2.52329167076022       -0.40368987487860
H           -4.11191953345557        2.33705151413358       -0.07694793866122
H           -3.94497308303739       -0.00595009842473        0.03898963071676
H           -4.10861891993467       -2.34867620682626       -0.08229894064146
H           -2.97179040357447       -4.52345134102942       -0.30906894249949
H           -0.50717906236834       -4.61227960468277       -0.48486630541383
H            0.80352701432057       -2.52735809101593       -0.40944311193227
H           -0.89644548754591       -0.01816160394246        2.65758964596121
H            0.66725424589984       -0.00910418870406        4.58631498449757
H            3.10221850657439        0.01392092507057        4.23567910276099
H            4.05746796607951        0.02590756433341        1.96197079004553
H            4.51264699352238        0.02797372935186       -0.62542013847683
H            4.39101206545242        0.02244347759703       -3.08890847287633
H            2.22203887489418        0.00225739556844       -4.24938259543650
H            0.09298345032314       -0.01091174920378       -2.96881901311300

 projected vibrational frequencies (cm⁻¹)
eigval :       -0.00     0.00     0.00     0.00     0.00     0.00
eigval :       16.93    37.21    44.98    64.49    70.95   110.25
eigval :      117.84   150.76   189.96   208.59   228.20   230.83
eigval :      275.99   281.79   310.50   322.11   386.71   389.60
eigval :      392.46   408.27   420.81   424.72   434.56   467.88
eigval :      487.86   490.00   511.06   513.52   530.35   553.40
eigval :      582.77   593.37   598.13   639.10   639.35   657.39
eigval :      678.94   682.65   687.90   691.99   696.35   728.40
eigval :      766.78   769.86   775.80   791.28   822.51   863.24
eigval :      864.14   865.29   873.17   877.95   879.89   897.40
eigval :      899.88   900.98   909.47   911.52   916.82   919.97
eigval :      920.09   940.86  1014.08  1027.05  1065.01  1082.86
eigval :     1095.66  1096.58  1124.12  1128.06  1135.66  1141.20
eigval :     1160.82  1169.09  1179.89  1180.08  1198.30  1201.31
eigval :     1223.35  1234.70  1248.58  1260.44  1271.61  1274.42
eigval :     1281.69  1287.87  1323.44  1332.80  1335.88  1350.72
eigval :     1351.74  1370.94  1373.36  1439.90  1458.94  1465.67
eigval :     1481.31  1488.03  1493.40  1528.93  1559.37  1567.15
eigval :     1577.55  1581.15  1597.38  1627.60  3064.35  3064.77
eigval :     3065.50  3066.32  3067.10  3067.73  3084.23  3084.35
eigval :     3085.79  3089.11  3089.48  3090.03  3099.40  3099.92
eigval :     3100.22  3101.17  3428.70

   temp. (K)  partition function   enthalpy   heat capacity  entropy
                                   cal/mol     cal/K/mol   cal/K/mol   J/K/mol
 298.15  VIB  0.137E+08            10793.833     74.888     64.025
         ROT  0.832E+07              888.752      2.981     34.647
         INT  0.114E+15            11682.585     77.869     98.672
         TR   0.584E+28             1481.254      4.968     43.270
         TOT                       13163.8390    82.8367   141.9419   593.8849

       T/K    H(0)-H(T)+PV         H(T)/Eh          T*S/Eh         G(T)/Eh
   ------------------------------------------------------------------------
    298.15    0.209779E-01    0.350063E+00    0.674412E-01    0.282622E+00
   ------------------------------------------------------------------------

         :::::::::::::::::::::::::::::::::::::::::::::::::::::
         ::                  THERMODYNAMIC                  ::
         :::::::::::::::::::::::::::::::::::::::::::::::::::::
         :: total free energy         -64.765508326906 Eh   ::
         ::.................................................::
         :: total energy              -65.048130168607 Eh   ::
         :: zero point energy           0.329085101559 Eh   ::
         :: G(RRHO) w/o ZPVE           -0.046463259858 Eh   ::
         :: G(RRHO) contrib.            0.282621841701 Eh   ::
         :::::::::::::::::::::::::::::::::::::::::::::::::::::

           -------------------------------------------------
          | TOTAL ENERGY              -65.048130168607 Eh   |
          | TOTAL ENTHALPY            -64.698067154273 Eh   |
          | TOTAL FREE ENERGY         -64.765508326906 Eh   |
          | GRADIENT NORM               0.000064047799 Eh/α |
           -------------------------------------------------

 * finished run on 2025/07/19 at 19:02:49.105
