   * xtb version 6.7.1 (edcfbbe) compiled by 'albert@albert-system' on 2024-07-22

   ID    Z sym.   atoms
    1    6 C      1-6, 8-26
    2    7 N      7
    3    1 H      27-43

          program call               : xtb data2507/gas/SpiroAc/SpiroAc_gas_S0_crest.xyz --gfn 2 --ohess vtight --parallel 40 --molden --ceasefiles --namespace data2507/gas/SpiroAc/SpiroAc_gas_S0_finalOpt
          :  Hamiltonian                  GFN2-xTB          :
 * total energy  :   -65.1541756 Eh     change       -0.8855778E-09 Eh
 * total energy  :   -65.1541761 Eh     change       -0.5633386E-06 Eh
 * total energy  :   -65.1541766 Eh     change       -0.4944622E-06 Eh
 * total energy  :   -65.1541773 Eh     change       -0.6780122E-06 Eh
 * total energy  :   -65.1541776 Eh     change       -0.2835486E-06 Eh
 * total energy  :   -65.1541778 Eh     change       -0.1803129E-06 Eh
 * total energy  :   -65.1541780 Eh     change       -0.2676684E-06 Eh
 * total energy  :   -65.1541785 Eh     change       -0.4644165E-06 Eh
 * total energy  :   -65.1541792 Eh     change       -0.6978177E-06 Eh
 * total energy  :   -65.1541800 Eh     change       -0.7674392E-06 Eh
 * total energy  :   -65.1541823 Eh     change       -0.4666712E-06 Eh
 * total energy  :   -65.1541827 Eh     change       -0.3621429E-06 Eh
 * total energy  :   -65.1541830 Eh     change       -0.2590409E-06 Eh
 * total energy  :   -65.1541831 Eh     change       -0.1724120E-06 Eh
 * total energy  :   -65.1541833 Eh     change       -0.1334656E-06 Eh
 * total energy  :   -65.1541834 Eh     change       -0.1101407E-06 Eh
 * total energy  :   -65.1541835 Eh     change       -0.1187129E-06 Eh
 * total energy  :   -65.1541836 Eh     change       -0.1066802E-06 Eh
 * total energy  :   -65.1541836 Eh     change       -0.1080096E-08 Eh
   *** GEOMETRY OPTIMIZATION CONVERGED AFTER 22 ITERATIONS ***

 final structure:
================
43
 xtb: 6.7.1 (edcfbbe)
C           -2.38973808604427        3.61418169547394        0.08743670914709
C           -1.00598833349860        3.66952187960117        0.10782677841861
C           -0.27331904148368        2.49577227339987        0.09219317111348
C           -0.90026662281703        1.26009110039699        0.05735877582065
C           -2.29596857397836        1.20822178288959        0.03801171209158
C           -3.03139641567181        2.39273960215443        0.05355672837039
N           -2.94647354195717       -0.00398346379331        0.00239031823042
C           -2.29280078960807       -1.21443093805447        0.03975336801904
C           -3.02511606184983       -2.40085472360630        0.05687476118438
C           -2.38025637938186       -3.62055206012466        0.09277436162153
C           -0.99637267546425       -3.67222358459838        0.11367233893473
C           -0.26678716714555       -2.49658026604573        0.09632293800651
C           -0.89697281740302       -1.26260858571659        0.05935950154718
C           -0.06412220110620       -0.00018673961362        0.02481180410352
C            0.95448411523934        0.00188485971417        1.14724920917344
C            0.72516149949633        0.00261110790325        2.50515575276938
C            1.81793306467737        0.00427066802706        3.36190257629825
C            3.11136611732819        0.00516566210155        2.86233205128159
C            3.34668814387789        0.00448012193790        1.49662929455000
C            2.26055208501004        0.00284235597194        0.63733123991894
C            2.18853135302453        0.00170620793031       -0.81606266104009
C            3.18412550485382        0.00209910775471       -1.77878566700591
C            2.81463268247497        0.00070393277105       -3.11439642738559
C            1.47809924948901       -0.00104146203935       -3.48345650749115
C            0.47566899712326       -0.00142512550735       -2.52268849682264
C            0.83880816733003       -0.00004686545414       -1.19439653596238
H           -2.97111920143966        4.52416739909720        0.09834072772196
H           -0.49944223821115        4.62199305456607        0.13446284818556
H            0.80636184903707        2.53431442269548        0.10607542590338
H           -4.11143141071418        2.34155623577201        0.03825406010534
H           -3.95481752149578       -0.00529756866566        0.00341491809742
H           -4.10527769446735       -2.35253422933355        0.04120346531609
H           -2.95924416742187       -4.53204719004588        0.10488062751012
H           -0.48732515695501       -4.62331148258294        0.14201065058755
H            0.81298711608814       -2.53227024493767        0.11053030959693
H           -0.28273750963655        0.00187635744992        2.89446084139858
H            1.65882586691227        0.00484901007966        4.43030733469522
H            3.94654245971672        0.00640608950147        3.54782102714630
H            4.35603041100019        0.00516685611447        1.11215650453853
H            4.22663506792920        0.00346210845447       -1.49635506561571
H            3.57773914761024        0.00098499180285       -3.87929938412325
H            1.21389742115250       -0.00210430632235       -4.53084592453573
H           -0.56586371831999       -0.00277424601961       -2.81019959262112

          :  Hamiltonian                  GFN2-xTB          :
         :: gradient norm              0.000024195149 Eh/a0 ::
         :: HOMO-LUMO gap              2.725056585952 eV    ::
         :: SCC energy               -66.403245086726 Eh    ::
         :: -> dispersion             -0.060493935631 Eh    ::
         :: repulsion energy           1.249061480727 Eh    ::

    * Orbital Energies and Occupations

         #    Occupation            Energy/Eh            Energy/eV
      -------------------------------------------------------------
         1        2.0000           -0.6669652             -18.1490
       ...           ...                  ...                  ...
        49        2.0000           -0.4278753             -11.6431
        50        2.0000           -0.4225173             -11.4973
        51        2.0000           -0.4191416             -11.4054
        52        2.0000           -0.4181913             -11.3796
        53        2.0000           -0.4169764             -11.3465
        54        2.0000           -0.4089807             -11.1289
        55        2.0000           -0.4073346             -11.0841
        56        2.0000           -0.4035591             -10.9814
        57        2.0000           -0.3944370             -10.7332
        58        2.0000           -0.3920661             -10.6687
        59        2.0000           -0.3901603             -10.6168
        60        2.0000           -0.3755613             -10.2195
        61        2.0000           -0.3480973              -9.4722 (HOMO)
        62                         -0.2479534              -6.7472 (LUMO)
        63                         -0.2279355              -6.2024
        64                         -0.2210395              -6.0148
        65                         -0.2202196              -5.9925
        66                         -0.2193378              -5.9685
        67                         -0.2116399              -5.7590
        68                         -0.1881470              -5.1197
        69                         -0.1855679              -5.0496
        70                         -0.1061467              -2.8884
        71                         -0.0908879              -2.4732
        72                         -0.0783067              -2.1308
       ...                                ...                  ...
       121                          0.7336061              19.9624
      -------------------------------------------------------------
                  HL-Gap            0.1001440 Eh            2.7251 eV

     #   Z          covCN         q      C6AA      α(0)
     1   6 C        2.919    -0.032    28.791     8.799
     2   6 C        2.918    -0.043    29.079     8.843
     3   6 C        2.925    -0.035    28.860     8.810
     4   6 C        2.982    -0.006    28.176     8.707
     5   6 C        2.916     0.065    26.537     8.447
     6   6 C        2.924    -0.062    29.530     8.912
     7   7 N        2.703    -0.141    24.060     7.285
     8   6 C        2.916     0.065    26.537     8.447
     9   6 C        2.924    -0.062    29.530     8.912
    10   6 C        2.919    -0.032    28.791     8.799
    11   6 C        2.918    -0.043    29.079     8.843
    12   6 C        2.925    -0.035    28.860     8.810
    13   6 C        2.982    -0.006    28.176     8.707
    14   6 C        3.948     0.012    20.314     6.404
    15   6 C        3.058     0.003    27.895     8.661
    16   6 C        2.914    -0.032    28.801     8.800
    17   6 C        2.923    -0.032    28.794     8.800
    18   6 C        2.921    -0.033    28.815     8.803
    19   6 C        2.915    -0.034    28.858     8.809
    20   6 C        3.035     0.001    27.963     8.674
    21   6 C        3.035     0.001    27.963     8.674
    22   6 C        2.915    -0.034    28.853     8.808
    23   6 C        2.921    -0.033    28.815     8.803
    24   6 C        2.923    -0.032    28.794     8.800
    25   6 C        2.914    -0.032    28.809     8.801
    26   6 C        3.060     0.003    27.894     8.661
    27   1 H        0.926     0.030     2.588     2.516
    28   1 H        0.926     0.028     2.608     2.526
    29   1 H        0.926     0.029     2.597     2.520
    30   1 H        0.925     0.023     2.691     2.565
    31   1 H        0.860     0.158     1.347     1.818
    32   1 H        0.925     0.023     2.691     2.565
    33   1 H        0.926     0.030     2.588     2.516
    34   1 H        0.926     0.028     2.608     2.526
    35   1 H        0.926     0.029     2.597     2.520
    36   1 H        0.926     0.026     2.647     2.544
    37   1 H        0.926     0.029     2.595     2.519
    38   1 H        0.926     0.029     2.598     2.520
    39   1 H        0.926     0.030     2.587     2.515
    40   1 H        0.926     0.030     2.584     2.514
    41   1 H        0.926     0.029     2.596     2.520
    42   1 H        0.926     0.029     2.595     2.519
    43   1 H        0.926     0.026     2.647     2.544

molecular dipole:
                 x           y           z       tot (Debye)
 q only:       -0.422      -0.001      -0.004
   full:       -0.575      -0.001       0.002       1.461

 projected vibrational frequencies (cm⁻¹)
eigval :       -0.00    -0.00    -0.00     0.00     0.00     0.00
eigval :       11.43    42.15    44.81    65.13    84.06   113.46
eigval :      140.53   150.82   188.78   227.70   237.51   246.51
eigval :      280.05   294.53   313.76   384.19   394.18   394.36
eigval :      414.38   422.78   424.73   460.28   462.61   464.25
eigval :      500.65   511.48   514.96   540.33   560.28   588.00
eigval :      600.33   600.70   603.91   646.61   675.42   685.85
eigval :      686.70   688.48   730.61   753.93   767.66   772.62
eigval :      777.87   786.09   826.14   863.37   863.54   877.88
eigval :      878.78   881.30   892.53   907.72   909.15   909.66
eigval :      913.61   919.65   919.94   921.05   926.62   926.85
eigval :      933.88  1006.63  1074.19  1079.27  1089.65  1099.27
eigval :     1100.00  1126.03  1142.82  1147.15  1177.22  1177.48
eigval :     1181.69  1181.73  1184.51  1205.39  1205.74  1219.40
eigval :     1238.34  1241.83  1260.04  1266.47  1276.67  1278.80
eigval :     1284.73  1327.24  1335.29  1336.71  1367.53  1380.61
eigval :     1429.55  1430.51  1442.04  1461.77  1468.99  1472.15
eigval :     1494.83  1501.34  1580.68  1586.44  1590.73  1592.90
eigval :     1597.11  1602.59  1605.50  1605.80  3063.22  3063.93
eigval :     3071.10  3071.74  3075.00  3075.88  3079.64  3079.84
eigval :     3082.02  3083.99  3084.36  3084.55  3090.18  3091.46
eigval :     3097.73  3098.24  3444.84

   temp. (K)  partition function   enthalpy   heat capacity  entropy
                                   cal/mol     cal/K/mol   cal/K/mol   J/K/mol
 298.15  VIB  0.859E+07            10342.941     72.424     61.525
         ROT  0.826E+07              888.752      2.981     34.632
         INT  0.710E+14            11231.693     75.405     96.157
         TR   0.584E+28             1481.254      4.968     43.270
         TOT                       12712.9472    80.3728   139.4270   583.3626

       T/K    H(0)-H(T)+PV         H(T)/Eh          T*S/Eh         G(T)/Eh
   ------------------------------------------------------------------------
    298.15    0.202594E-01    0.354513E+00    0.662463E-01    0.288266E+00
   ------------------------------------------------------------------------

         :::::::::::::::::::::::::::::::::::::::::::::::::::::
         ::                  THERMODYNAMIC                  ::
         :::::::::::::::::::::::::::::::::::::::::::::::::::::
         :: total free energy         -64.865917352894 Eh   ::
         ::.................................................::
         :: total energy              -65.154183605999 Eh   ::
         :: zero point energy           0.334253147989 Eh   ::
         :: G(RRHO) w/o ZPVE           -0.045986894885 Eh   ::
         :: G(RRHO) contrib.            0.288266253104 Eh   ::
         :::::::::::::::::::::::::::::::::::::::::::::::::::::

           -------------------------------------------------
          | TOTAL ENERGY              -65.154183605999 Eh   |
          | TOTAL ENTHALPY            -64.799671087073 Eh   |
          | TOTAL FREE ENERGY         -64.865917352894 Eh   |
          | GRADIENT NORM               0.000024194959 Eh/α |
          | HOMO-LUMO GAP               2.725056568600 eV   |
           -------------------------------------------------

 * finished run on 2025/07/19 at 19:01:11.968
