   * xtb version 6.7.1 (edcfbbe) compiled by 'albert@albert-system' on 2024-07-22

   ID    Z sym.   atoms
    1    6 C      1-6, 8-20, 22, 23, 25-28, 30-35, 37-43, 45-51, 53-59,
                  61-70, 72-88, 90, 91, 93-96, 98
    2    7 N      7, 21, 44, 60, 71, 89
    3    9 F      24, 29, 92, 97
    4    5 B      36, 52
    5    1 H      99-164

          program call               : xtb data2507/toluene/4F-m-ν-DABNA/4F-m-ν-DABNA_toluene_S0_finalOpt.xtbopt.xyz --gfn 2 --uhf 2 --gbsa toluene --ohess vtight --parallel 40 --molden --ceasefiles --namespace data2507/toluene/4F-m-ν-DABNA/4F-m-ν-DABNA_toluene_T1_preOpt
      * Solvation model:               GBSA
        Solvent                        toluene
        Solvent mass                       9.2140E+01 g/mol
          :  Hamiltonian                  GFN2-xTB          :
 * total energy  :  -256.9887950 Eh     change       -0.2375202E-07 Eh
 * total energy  :  -256.9894601 Eh     change       -0.6651176E-03 Eh
 * total energy  :  -256.9896033 Eh     change       -0.1432253E-03 Eh
 * total energy  :  -256.9896194 Eh     change       -0.1604252E-04 Eh
 * total energy  :  -256.9896305 Eh     change       -0.1106483E-04 Eh
 * total energy  :  -256.9896348 Eh     change       -0.4332267E-05 Eh
 * total energy  :  -256.9896484 Eh     change       -0.1363317E-04 Eh
 * total energy  :  -256.9896535 Eh     change       -0.5114395E-05 Eh
 * total energy  :  -256.9896627 Eh     change       -0.9160322E-05 Eh
 * total energy  :  -256.9896679 Eh     change       -0.5166576E-05 Eh
 * total energy  :  -256.9897766 Eh     change       -0.6858037E-06 Eh
 * total energy  :  -256.9897773 Eh     change       -0.6661646E-06 Eh
 * total energy  :  -256.9897780 Eh     change       -0.6548985E-06 Eh
 * total energy  :  -256.9897786 Eh     change       -0.6563605E-06 Eh
 * total energy  :  -256.9897793 Eh     change       -0.6874421E-06 Eh
 * total energy  :  -256.9897799 Eh     change       -0.6509333E-06 Eh
 * total energy  :  -256.9897806 Eh     change       -0.6198969E-06 Eh
 * total energy  :  -256.9897811 Eh     change       -0.5797589E-06 Eh
 * total energy  :  -256.9897812 Eh     change       -0.3257071E-08 Eh
   *** GEOMETRY OPTIMIZATION CONVERGED AFTER 68 ITERATIONS ***

 final structure:
================
164
 xtb: 6.7.1 (edcfbbe)
C           12.07458345131391        1.13545561974998       -0.40681909607251
C           10.70374581193745        0.81710952458591       -0.92391204650547
C           10.54031722302579        0.01335286813740       -2.04785794105441
C            9.27194449777379       -0.29502302241741       -2.50840457659449
C            8.15157243375910        0.18931394775439       -1.86193628086116
C            8.29692389950277        0.99197641848742       -0.73078342028444
N            7.17069119934179        1.48660065984432       -0.06215258550956
C            7.18430978412627        2.77440190193787        0.48391111377026
C            6.54877160530273        3.03945433781096        1.69680781217918
C            6.56955136743238        4.31873675879757        2.21803285122744
C            7.21896706376426        5.34215316678796        1.55070532500080
C            7.86074739714401        5.09525038911449        0.34026138793960
C            8.57182343701139        6.20315964799515       -0.37705912056273
C            7.83431933198885        3.81366481530305       -0.18318531403542
C            6.03714167173277        0.68086874243162        0.08215478463690
C            6.17297283237346       -0.68970822695585        0.29247191082544
C            5.04056372582885       -1.49277742157087        0.42097969997865
C            3.74452863013727       -0.93393293220231        0.37335651645797
C            3.63518220693791        0.45899044983358        0.18180659159543
C            4.76834093376372        1.25099232133026        0.01159309358362
N            2.37751992426384        1.04501353631997        0.14242139142960
C            2.32460204630440        2.46038389313131        0.11910021337903
C            1.97667281455960        3.18381281448380       -1.02976443548460
F            1.67225346746554        2.49205716605479       -2.15480834394696
C            1.93163187702448        4.55901213069941       -1.05803693555427
C            2.24729732414913        5.27499179370007        0.09187683969047
C            2.60072291407979        4.59961761034114        1.25482292599765
C            2.63509492852341        3.22381408019092        1.25244056258204
F            2.98564136668396        2.57058859275481        2.38573751266089
C            1.19249810757221        0.33448484080679        0.12675288077063
C           -0.01234523396948        1.02967286820637        0.07110526475147
C           -1.23670933623090        0.37422097518994       -0.02086366558432
C           -1.26730881371155       -1.03884897754793       -0.18932764459395
C           -0.05083194511827       -1.70076581833742       -0.01451078033869
C            1.18343037763323       -1.08679585799192        0.20549155426990
B            2.51272519400590       -1.80873036835372        0.49276086828863
C            2.79563542752128       -3.27697389117532        0.86739005515436
C            1.83061131141729       -4.22267728096774        1.24403902302092
C            2.13993467560211       -5.53432249537550        1.52424067781629
C            3.46053289513155       -5.97955453528027        1.44747444191589
C            3.79549257726851       -7.41442108645040        1.72062594937564
C            4.44445472872455       -5.06419672309536        1.12756029410334
C            4.14153800205210       -3.72287863018800        0.86027756884426
N            5.18514077656079       -2.85143751961690        0.60050362512122
C            6.51215786743708       -3.37979159130994        0.55104636167631
C            7.28357356011860       -3.44675900208185        1.70334083657065
C            8.57185041993715       -3.94791338025019        1.62735440063081
C            9.08370717808079       -4.37678548954420        0.41594268414750
C            8.31808993464026       -4.31610163219377       -0.74420970950150
C            8.87619033770687       -4.80033398103993       -2.04710335485820
C            7.02751363960192       -3.81175270263337       -0.66336128511664
B           -2.61754817210788       -1.70467672239690       -0.50997456141002
C           -2.94322156745295       -3.13569508972440       -0.97964601230664
C           -2.00870462761540       -4.07305098857108       -1.44362079371921
C           -2.35543939406383       -5.35498095882881       -1.80550345726223
C           -3.68408139155580       -5.77566785421952       -1.72662671523575
C           -4.05810240877907       -7.17910047901839       -2.09590525061233
C           -4.63937431678413       -4.86367598282045       -1.32142654612728
C           -4.29897418742712       -3.55049475874694       -0.97238039510129
N           -5.31509619551706       -2.67471005561194       -0.63123069443110
C           -6.65324026840447       -3.17382632132393       -0.57958979230186
C           -7.45395955083423       -3.15407934704578       -1.71358773104332
C           -8.75375794371068       -3.62360089898153       -1.63277054508022
C           -9.24809541091043       -4.10684122798669       -0.43459154688287
C           -8.45278426169151       -4.13451733100321        0.70660753861772
C           -8.99164692841442       -4.67874813587824        1.99381094428659
C           -7.15068908431692       -3.66127614033730        0.62112252964433
C           -5.13420560089672       -1.33285338410017       -0.37398587594370
C           -6.24361399340264       -0.51154196639635       -0.17928566768352
C           -6.06916026113229        0.84094925836253        0.10604439575664
N           -7.18013830677558        1.66643534206772        0.30632876648689
C           -7.16979192575629        2.97724691435292       -0.18138043412450
C           -7.79058820005810        4.00338348560530        0.53200681169924
C           -7.76675520332592        5.29371834876952        0.04054199164331
C           -7.12618958399254        5.58284571825718       -1.15265720420302
C           -6.50264656165433        4.57249692128477       -1.87702052496454
C           -5.83746504522841        4.86350416264278       -3.18865415848100
C           -6.53269002032388        3.27732628308035       -1.38512628502682
C           -8.30839347627092        1.16486981309816        0.96554671260431
C           -8.16523818991696        0.30888253914423        2.05669396748964
C           -9.28724108669546       -0.18639435588767        2.69274837436889
C          -10.55403532901073        0.16201909056369        2.25909467980191
C          -10.71532114480144        1.01780173928674        1.17283550981242
C          -12.08973718385628        1.39314835321822        0.70613322484728
C           -9.58938207579746        1.50879256410344        0.53366829472296
C           -4.78558204627084        1.37438221286611        0.19259406041386
C           -3.67552774173987        0.56632775087566       -0.04147382584583
C           -3.82417510374211       -0.80900137717621       -0.31562871982961
N           -2.40193104430853        1.11632250348803        0.01446942129704
C           -2.31338477339083        2.52549709003037        0.12044460424388
C           -2.63898739112078        3.36134114083158       -0.95598446464708
F           -3.03186815942747        2.78286539915994       -2.11626363861876
C           -2.58091983307487        4.73388182411697       -0.87748645008877
C           -2.18487906191548        5.33154585812322        0.31381812659468
C           -1.85106866238763        4.54231728009913        1.40935296828545
C           -1.92203099579065        3.17214510141355        1.30046081426440
F           -1.60221820484434        2.40829467743135        2.37358186982336
C            9.57833099364239        1.29507398209300       -0.27238112257552
H           12.43897468689769        0.31318006510200        0.21004826947541
H           12.77431709353709        1.27310184625765       -1.22839881560379
H           12.06052754249216        2.03596046998647        0.20243661806377
H           11.40949310973342       -0.36752691417888       -2.56376364031782
H            9.15323431087705       -0.90945207032658       -3.38895378002977
H            7.16224567142684       -0.04052130052789       -2.22888698109450
H            6.04461375902444        2.24340932537188        2.22460466269339
H            6.07935158993057        4.51360429662772        3.16098678517989
H            7.23086558961069        6.33817304083580        1.96829498955505
H            8.85960280995564        5.89708795424192       -1.37957751160659
H            7.93593845990278        7.08410867278300       -0.44512753098242
H            9.47211993303200        6.48407435944155        0.16968932858840
H            8.31870723641009        3.60737537656252       -1.12710331426758
H            7.16367376420413       -1.11084475058524        0.34985738212297
H            4.68672019315324        2.30924816911097       -0.18563024769904
H            1.65525158523035        5.05753791903913       -1.97294474488356
H            2.21627324212162        6.35098838613793        0.08173919285070
H            2.84641099342928        5.13113752188842        2.15950492082039
H            0.00371527537213        2.10810203983178        0.10324243051186
H           -0.06689065525882       -2.77534133124577       -0.05112522993616
H            0.80463237369245       -3.90383469342717        1.33633761604215
H            1.35844650951640       -6.22744447243997        1.80350594149846
H            3.34057173416614       -8.05663776595848        0.96609606230787
H            4.87108162753508       -7.57370123062128        1.70861700242730
H            3.40596550966201       -7.71770027424152        2.69190044643196
H            5.47134480098186       -5.39669059036240        1.09565246272662
H            6.87174840373744       -3.10741232819869        2.64217788299005
H            9.17806840837135       -4.00142794751378        2.51958842386017
H           10.09031400355433       -4.76557435479615        0.36626409300499
H            9.87347338323127       -4.39561708997174       -2.20839537555881
H            8.23708781135143       -4.50963530720939       -2.87651555099182
H            8.95546563476875       -5.88749941132611       -2.03761376702178
H            6.40803863096287       -3.74991134245321       -1.54651188223608
H           -0.97782457380115       -3.77006660737070       -1.53715406618857
H           -1.59759938408970       -6.04484177695131       -2.15015497834118
H           -3.79625371478331       -7.37972222682890       -3.13480574829443
H           -5.12482611293113       -7.34610616396900       -1.96701676950666
H           -3.51451629642853       -7.89058899618737       -1.47461471177704
H           -5.67289728364335       -5.17493410415025       -1.28714129089739
H           -7.05579416886331       -2.77202826306356       -2.64183432520654
H           -9.38298284095603       -3.60922970086625       -2.51044078590764
H          -10.26420194299752       -4.46945754913401       -0.38084422989493
H           -9.08663242479713       -5.76286339822496        1.92901406177775
H           -9.97929565437038       -4.26959772098416        2.19722508554410
H           -8.33155352076281       -4.44101826414002        2.82368413530070
H           -6.50863711209429       -3.66638312966143        1.49024952983617
H           -7.24575882681163       -0.90339805662469       -0.24403633547598
H           -8.27981807665475        3.78165877025094        1.46895557810050
H           -8.24459318399258        6.08488944159240        0.60017380343407
H           -7.11131829131667        6.59674748195373       -1.52474471376903
H           -4.99270253504267        4.19746920580974       -3.34858043424788
H           -6.54424511143635        4.70872444575368       -4.00489073805476
H           -5.49632785876723        5.89527381492902       -3.23042328053376
H           -6.05577816794657        2.48339705724487       -1.94247904521876
H           -7.17621368610369        0.04416385856135        2.40029839654982
H           -9.16989932516214       -0.84378711352804        3.54187784650333
H          -11.42525794229314       -0.22837832935655        2.76430019327053
H          -12.67474530014164        0.50025592118363        0.49010320858231
H          -12.04316027713849        2.00704392084695       -0.18967109023769
H          -12.61084538092363        1.95174133867758        1.48331322872733
H           -9.69572141091249        2.16636356355931       -0.31758381828050
H           -4.67552679797499        2.41646059694478        0.45195658512406
H           -2.84294600484028        5.32306047866207       -1.74061403074931
H           -2.13555143191666        6.40433310313041        0.38847470882580
H           -1.54142605327677        4.98003558986675        2.34456019995234
H            9.68783433782564        1.91153588492486        0.60864525751880

          :  Hamiltonian                  GFN2-xTB          :
         :: gradient norm              0.000047138762 Eh/a0 ::
         :: HOMO-LUMO gap              0.061679201648 eV    ::
         :: SCC energy              -261.324394032257 Eh    ::
         :: -> dispersion             -0.251483013612 Eh    ::
         :: -> Gsolv                  -0.100079427938 Eh    ::
         :: repulsion energy           4.334612878649 Eh    ::

    * Orbital Energies and Occupations

         #    Occupation            Energy/Eh            Energy/eV
      -------------------------------------------------------------
         1        2.0000           -0.8279082             -22.5285
       ...           ...                  ...                  ...
       226        2.0000           -0.3876540             -10.5486
       227        2.0000           -0.3838751             -10.4458
       228        2.0000           -0.3832519             -10.4288
       229        2.0000           -0.3793693             -10.3232
       230        2.0000           -0.3749295             -10.2024
       231        2.0000           -0.3690600             -10.0426
       232        2.0000           -0.3662168              -9.9653
       233        2.0000           -0.3578746              -9.7383
       234        1.9995           -0.3512679              -9.5585
       235        1.9694           -0.3473292              -9.4513
       236        1.8887           -0.3460181              -9.4156
       237        1.1424           -0.3423390              -9.3155
       238        0.7601           -0.2564359              -6.9780 (HOMO)
       239        0.2257           -0.2541694              -6.9163 (LUMO)
       240        0.0142           -0.2513102              -6.8385
       241        0.0000           -0.2441615              -6.6440
       242        0.0000           -0.2438512              -6.6355
       243        0.0000           -0.2419869              -6.5848
       244                         -0.2305785              -6.2744
       245                         -0.2304631              -6.2712
       246                         -0.2276910              -6.1958
       247                         -0.2275496              -6.1919
       248                         -0.2269908              -6.1767
       249                         -0.2267093              -6.1691
       ...                                ...                  ...
       458                          0.7320339              19.9197
      -------------------------------------------------------------
                  HL-Gap            0.0022665 Eh            0.0617 eV

     #   Z          covCN         q      C6AA      α(0)
     1   6 C        3.758    -0.111    22.668     6.788
     2   6 C        2.965     0.018    27.602     8.618
     3   6 C        2.924    -0.049    29.229     8.866
     4   6 C        2.918    -0.033    28.810     8.802
     5   6 C        2.922    -0.053    29.308     8.878
     6   6 C        2.922     0.064    26.566     8.452
     7   7 N        2.754    -0.076    22.726     7.080
     8   6 C        2.922     0.064    26.573     8.454
     9   6 C        2.922    -0.053    29.320     8.880
    10   6 C        2.917    -0.033    28.829     8.805
    11   6 C        2.924    -0.051    29.257     8.870
    12   6 C        2.965     0.018    27.615     8.620
    13   6 C        3.758    -0.111    22.674     6.789
    14   6 C        2.928    -0.059    29.469     8.903
    15   6 C        2.922     0.061    26.634     8.463
    16   6 C        2.921    -0.082    30.061     8.991
    17   6 C        2.926     0.062    26.620     8.461
    18   6 C        2.896    -0.108    30.721     9.088
    19   6 C        2.926     0.059    26.677     8.470
    20   6 C        2.921    -0.071    29.767     8.947
    21   7 N        2.753    -0.035    21.924     6.954
    22   6 C        2.925     0.026    27.431     8.589
    23   6 C        2.788     0.149    24.747     8.149
    24   9 F        0.786    -0.236    11.619     4.026
    25   6 C        2.913    -0.060    29.501     8.906
    26   6 C        2.925    -0.044    29.091     8.845
    27   6 C        2.913    -0.058    29.451     8.899
    28   6 C        2.789     0.151    24.714     8.143
    29   9 F        0.787    -0.234    11.596     4.022
    30   6 C        2.926     0.068    26.481     8.439
    31   6 C        2.921    -0.084    30.114     8.999
    32   6 C        2.925     0.068    26.483     8.439
    33   6 C        2.883    -0.080    29.993     8.978
    34   6 C        2.926    -0.055    29.372     8.888
    35   6 C        2.883    -0.080    29.992     8.978
    36   5 B        2.724     0.168    18.851     7.275
    37   6 C        2.885    -0.081    30.024     8.983
    38   6 C        2.920    -0.042    29.043     8.837
    39   6 C        2.919    -0.049    29.205     8.862
    40   6 C        2.964     0.012    27.749     8.641
    41   6 C        3.758    -0.108    22.620     6.781
    42   6 C        2.926    -0.067    29.679     8.934
    43   6 C        2.924     0.058    26.694     8.473
    44   7 N        2.756    -0.040    22.019     6.969
    45   6 C        2.933     0.065    26.542     8.449
    46   6 C        2.921    -0.043    29.068     8.841
    47   6 C        2.919    -0.030    28.755     8.793
    48   6 C        2.925    -0.042    29.033     8.836
    49   6 C        2.966     0.024    27.474     8.598
    50   6 C        3.758    -0.113    22.712     6.795
    51   6 C        2.927    -0.048    29.182     8.859
    52   5 B        2.724     0.168    18.851     7.275
    53   6 C        2.886    -0.081    30.023     8.983
    54   6 C        2.920    -0.042    29.041     8.837
    55   6 C        2.919    -0.049    29.205     8.862
    56   6 C        2.964     0.012    27.750     8.641
    57   6 C        3.758    -0.108    22.619     6.781
    58   6 C        2.925    -0.067    29.677     8.934
    59   6 C        2.924     0.058    26.694     8.473
    60   7 N        2.756    -0.040    22.020     6.969
    61   6 C        2.933     0.065    26.543     8.449
    62   6 C        2.921    -0.043    29.067     8.841
    63   6 C        2.919    -0.030    28.754     8.793
    64   6 C        2.925    -0.042    29.032     8.836
    65   6 C        2.966     0.024    27.476     8.598
    66   6 C        3.758    -0.113    22.711     6.794
    67   6 C        2.927    -0.048    29.184     8.859
    68   6 C        2.926     0.062    26.619     8.461
    69   6 C        2.921    -0.082    30.057     8.991
    70   6 C        2.923     0.061    26.633     8.463
    71   7 N        2.754    -0.076    22.725     7.080
    72   6 C        2.922     0.064    26.575     8.454
    73   6 C        2.922    -0.054    29.344     8.883
    74   6 C        2.917    -0.033    28.833     8.805
    75   6 C        2.924    -0.050    29.253     8.870
    76   6 C        2.965     0.017    27.629     8.622
    77   6 C        3.758    -0.110    22.661     6.787
    78   6 C        2.928    -0.059    29.454     8.900
    79   6 C        2.923     0.064    26.569     8.453
    80   6 C        2.922    -0.053    29.310     8.878
    81   6 C        2.917    -0.033    28.810     8.802
    82   6 C        2.924    -0.050    29.233     8.867
    83   6 C        2.965     0.018    27.605     8.618
    84   6 C        3.758    -0.111    22.667     6.788
    85   6 C        2.928    -0.058    29.432     8.897
    86   6 C        2.921    -0.071    29.761     8.946
    87   6 C        2.927     0.059    26.681     8.471
    88   6 C        2.896    -0.108    30.718     9.087
    89   7 N        2.753    -0.035    21.922     6.954
    90   6 C        2.925     0.026    27.434     8.589
    91   6 C        2.789     0.151    24.717     8.144
    92   9 F        0.786    -0.234    11.596     4.022
    93   6 C        2.913    -0.058    29.453     8.899
    94   6 C        2.925    -0.044    29.089     8.845
    95   6 C        2.913    -0.060    29.501     8.907
    96   6 C        2.788     0.149    24.750     8.149
    97   9 F        0.786    -0.237    11.626     4.028
    98   6 C        2.928    -0.058    29.436     8.898
    99   1 H        0.924     0.051     2.302     2.373
   100   1 H        0.925     0.048     2.341     2.393
   101   1 H        0.925     0.045     2.384     2.415
   102   1 H        0.926     0.034     2.532     2.488
   103   1 H        0.926     0.034     2.534     2.490
   104   1 H        0.926     0.028     2.621     2.532
   105   1 H        0.926     0.028     2.619     2.531
   106   1 H        0.926     0.030     2.582     2.513
   107   1 H        0.926     0.034     2.532     2.488
   108   1 H        0.925     0.044     2.390     2.418
   109   1 H        0.925     0.049     2.328     2.386
   110   1 H        0.925     0.052     2.296     2.369
   111   1 H        0.926     0.032     2.553     2.498
   112   1 H        0.926     0.030     2.593     2.518
   113   1 H        0.926     0.019     2.742     2.590
   114   1 H        0.926     0.072     2.062     2.246
   115   1 H        0.926     0.070     2.086     2.259
   116   1 H        0.926     0.073     2.051     2.239
   117   1 H        0.926     0.002     3.016     2.716
   118   1 H        0.926     0.041     2.439     2.442
   119   1 H        0.926     0.032     2.551     2.498
   120   1 H        0.925     0.023     2.683     2.562
   121   1 H        0.924     0.047     2.363     2.404
   122   1 H        0.925     0.040     2.455     2.450
   123   1 H        0.925     0.045     2.383     2.414
   124   1 H        0.926     0.024     2.676     2.558
   125   1 H        0.926     0.039     2.464     2.455
   126   1 H        0.926     0.041     2.433     2.439
   127   1 H        0.926     0.044     2.402     2.424
   128   1 H        0.925     0.055     2.263     2.353
   129   1 H        0.925     0.049     2.338     2.391
   130   1 H        0.925     0.057     2.237     2.339
   131   1 H        0.926     0.041     2.430     2.438
   132   1 H        0.926     0.032     2.554     2.499
   133   1 H        0.926     0.023     2.683     2.562
   134   1 H        0.925     0.046     2.376     2.411
   135   1 H        0.925     0.039     2.455     2.450
   136   1 H        0.925     0.046     2.370     2.408
   137   1 H        0.926     0.024     2.677     2.559
   138   1 H        0.926     0.039     2.460     2.452
   139   1 H        0.926     0.041     2.430     2.438
   140   1 H        0.926     0.043     2.404     2.425
   141   1 H        0.925     0.057     2.237     2.339
   142   1 H        0.925     0.054     2.267     2.354
   143   1 H        0.925     0.048     2.340     2.392
   144   1 H        0.926     0.041     2.432     2.439
   145   1 H        0.926     0.030     2.593     2.518
   146   1 H        0.926     0.030     2.590     2.516
   147   1 H        0.926     0.033     2.548     2.496
   148   1 H        0.926     0.033     2.542     2.493
   149   1 H        0.925     0.048     2.344     2.394
   150   1 H        0.924     0.050     2.317     2.381
   151   1 H        0.925     0.046     2.376     2.410
   152   1 H        0.926     0.031     2.571     2.507
   153   1 H        0.926     0.027     2.622     2.532
   154   1 H        0.926     0.034     2.534     2.489
   155   1 H        0.926     0.034     2.525     2.485
   156   1 H        0.925     0.050     2.315     2.379
   157   1 H        0.925     0.043     2.404     2.425
   158   1 H        0.925     0.051     2.312     2.378
   159   1 H        0.926     0.031     2.571     2.508
   160   1 H        0.926     0.020     2.737     2.587
   161   1 H        0.926     0.076     2.016     2.220
   162   1 H        0.926     0.070     2.088     2.260
   163   1 H        0.926     0.071     2.074     2.252
   164   1 H        0.926     0.032     2.560     2.502

molecular dipole:
                 x           y           z       tot (Debye)
 q only:        0.235      -0.505      -0.363
   full:        0.217      -0.231      -0.298       1.105

 projected vibrational frequencies (cm⁻¹)
eigval :       -0.00    -0.00    -0.00     0.00     0.00     0.00
eigval :       -3.25     5.93     7.66    11.48    12.70    12.93
eigval :       14.64    17.95    21.48    24.93    26.40    28.37
eigval :       28.99    31.40    34.64    37.13    41.11    42.12
eigval :       46.24    46.81    51.38    52.46    54.80    55.86
eigval :       56.97    60.36    62.77    63.84    68.86    70.28
eigval :       74.27    74.95    77.56    78.94    80.98    81.99
eigval :       82.24    84.45    98.92   102.25   106.19   109.71
eigval :      110.24   111.62   119.97   128.78   145.99   151.83
eigval :      156.78   166.00   169.53   171.05   174.98   179.34
eigval :      181.52   190.72   194.08   199.23   200.42   202.47
eigval :      203.18   205.15   206.68   214.08   214.63   218.98
eigval :      220.43   222.54   229.40   231.00   233.46   233.84
eigval :      235.40   242.34   248.09   263.58   267.28   278.93
eigval :      282.04   289.81   294.53   297.91   306.11   312.96
eigval :      317.03   324.64   326.16   327.29   335.60   349.17
eigval :      352.96   354.68   368.19   377.65   379.82   383.33
eigval :      386.42   393.38   406.35   409.26   409.82   412.78
eigval :      414.24   414.81   416.85   417.46   419.59   421.25
eigval :      427.69   429.21   444.93   445.97   454.50   457.50
eigval :      472.03   472.37   474.04   479.56   484.13   498.19
eigval :      500.52   501.65   503.84   504.55   504.94   505.65
eigval :      506.35   510.22   514.10   514.93   516.42   529.57
eigval :      530.96   534.67   535.51   536.06   537.89   540.24
eigval :      541.28   542.55   544.94   549.83   552.07   558.02
eigval :      566.77   571.66   573.82   579.62   586.35   601.30
eigval :      605.27   610.66   613.05   616.07   619.32   628.70
eigval :      630.40   631.27   634.20   646.04   653.70   656.80
eigval :      658.29   661.55   663.60   667.31   672.01   672.55
eigval :      673.63   678.36   685.41   691.76   699.19   701.68
eigval :      702.58   704.16   716.04   728.55   756.46   776.02
eigval :      778.38   779.41   782.08   784.35   785.06   788.14
eigval :      789.91   794.04   798.24   802.49   805.53   807.07
eigval :      807.70   808.72   813.60   814.06   815.27   837.47
eigval :      840.10   842.74   848.78   858.91   861.49   864.06
eigval :      871.44   872.69   875.91   879.58   880.83   881.24
eigval :      883.42   884.62   884.73   885.11   886.59   888.23
eigval :      889.11   889.38   892.33   894.88   899.67   902.84
eigval :      905.73   916.29   919.74   921.54   925.03   925.24
eigval :      926.49   927.08   928.59   930.49   931.43   934.11
eigval :      951.68   955.46   958.71   980.69   984.33   985.71
eigval :      986.50   987.10   987.94   989.66   996.38   996.99
eigval :     1000.92  1001.14  1013.63  1014.02  1016.97  1018.14
eigval :     1025.46  1025.62  1029.93  1030.25  1030.42  1030.62
eigval :     1030.96  1031.67  1032.69  1035.32  1036.79  1044.12
eigval :     1051.16  1068.27  1075.57  1079.68  1089.81  1101.15
eigval :     1105.54  1112.64  1125.57  1126.39  1132.80  1133.77
eigval :     1133.90  1134.13  1134.99  1135.11  1150.43  1155.25
eigval :     1160.48  1161.68  1172.51  1174.45  1182.95  1183.50
eigval :     1185.55  1187.24  1187.56  1189.16  1190.41  1193.00
eigval :     1197.99  1198.44  1203.51  1204.42  1207.35  1207.59
eigval :     1211.24  1219.87  1224.87  1229.37  1232.30  1243.37
eigval :     1249.62  1251.45  1262.20  1263.05  1265.92  1268.10
eigval :     1269.17  1271.54  1271.90  1272.50  1273.88  1275.76
eigval :     1277.39  1279.32  1287.10  1291.22  1294.31  1296.35
eigval :     1301.57  1302.16  1310.97  1311.32  1312.07  1316.92
eigval :     1318.30  1319.50  1319.96  1323.02  1325.07  1328.90
eigval :     1329.11  1329.15  1332.92  1345.58  1347.06  1347.79
eigval :     1348.94  1353.86  1361.28  1363.31  1374.01  1390.02
eigval :     1394.26  1400.59  1400.74  1401.37  1401.76  1401.97
eigval :     1402.33  1402.41  1403.91  1405.54  1406.87  1413.64
eigval :     1423.92  1424.72  1430.64  1431.71  1432.02  1432.04
eigval :     1440.66  1441.50  1443.04  1443.65  1443.84  1444.85
eigval :     1454.10  1455.04  1470.26  1470.46  1471.41  1472.67
eigval :     1473.43  1473.81  1474.82  1475.50  1475.72  1476.21
eigval :     1476.90  1476.99  1477.70  1480.41  1480.59  1480.78
eigval :     1481.53  1481.94  1482.45  1482.86  1482.91  1483.06
eigval :     1483.41  1484.33  1497.31  1498.42  1508.91  1513.58
eigval :     1523.68  1527.64  1529.45  1550.07  1571.71  1572.58
eigval :     1573.98  1575.83  1578.17  1579.01  1581.60  1581.86
eigval :     1589.92  1590.12  1594.47  1595.14  1596.37  1596.46
eigval :     2993.67  2994.78  2994.85  2996.87  3000.35  3001.46
eigval :     3002.33  3003.19  3011.06  3011.71  3017.95  3023.54
eigval :     3028.26  3029.22  3031.88  3035.64  3037.32  3037.57
eigval :     3039.36  3040.72  3043.53  3043.80  3048.06  3049.16
eigval :     3064.56  3064.79  3070.40  3071.12  3072.70  3072.75
eigval :     3075.10  3075.41  3075.91  3076.08  3076.45  3077.92
eigval :     3080.64  3081.45  3081.47  3082.29  3082.37  3083.03
eigval :     3083.46  3084.73  3084.90  3085.78  3089.54  3090.01
eigval :     3090.68  3090.81  3091.14  3091.93  3092.65  3093.69
eigval :     3094.16  3100.63  3103.83  3109.80  3110.95  3111.45
eigval :     3113.01  3115.68  3117.73  3127.25  3128.30  3140.56

   temp. (K)  partition function   enthalpy   heat capacity  entropy
                                   cal/mol     cal/K/mol   cal/K/mol   J/K/mol
 298.15  VIB  0.466E+46            53320.153    314.053    343.232
         ROT  0.585E+09              888.752      2.981     43.099
         INT  0.273E+55            54208.905    317.034    386.331
         TR   0.444E+29             1481.254      4.968     47.298
         TOT                       55690.1594   322.0017   433.6294  1814.3055

       T/K    H(0)-H(T)+PV         H(T)/Eh          T*S/Eh         G(T)/Eh
   ------------------------------------------------------------------------
    298.15    0.887479E-01    0.134502E+01    0.206031E+00    0.113899E+01
   ------------------------------------------------------------------------

         :::::::::::::::::::::::::::::::::::::::::::::::::::::
         ::                  THERMODYNAMIC                  ::
         :::::::::::::::::::::::::::::::::::::::::::::::::::::
         :: total free energy        -255.850791287514 Eh   ::
         ::.................................................::
         :: total energy             -256.989781149572 Eh   ::
         :: zero point energy           1.256273273433 Eh   ::
         :: G(RRHO) w/o ZPVE           -0.117283411375 Eh   ::
         :: G(RRHO) contrib.            1.138989862058 Eh   ::
         :::::::::::::::::::::::::::::::::::::::::::::::::::::

           -------------------------------------------------
          | TOTAL ENERGY             -256.989781149572 Eh   |
          | TOTAL ENTHALPY           -255.644759958155 Eh   |
          | TOTAL FREE ENERGY        -255.850791287514 Eh   |
          | GRADIENT NORM               0.000045363349 Eh/α |
          | HOMO-LUMO GAP               0.061675482388 eV   |
           -------------------------------------------------

 * finished run on 2025/08/22 at 00:10:30.801
