   * xtb version 6.7.1 (edcfbbe) compiled by 'albert@albert-system' on 2024-07-22

   ID    Z sym.   atoms
    1    6 C      1-6, 8-20, 22, 23, 25-28, 30-35, 37-43, 45-51, 53-59,
                  61-70, 72-88, 90, 91, 93-96, 98
    2    7 N      7, 21, 44, 60, 71, 89
    3    9 F      24, 29, 92, 97
    4    5 B      36, 52
    5    1 H      99-164

          program call               : xtb data2507/toluene/4F-m-ν-DABNA/4F-m-ν-DABNA_toluene_T1_crest.xyz --gfn 2 --uhf 2 --gbsa toluene --ohess vtight --parallel 40 --molden --ceasefiles --namespace data2507/toluene/4F-m-ν-DABNA/4F-m-ν-DABNA_toluene_T1_finalOpt
      * Solvation model:               GBSA
        Solvent                        toluene
        Solvent mass                       9.2140E+01 g/mol
          :  Hamiltonian                  GFN2-xTB          :
 * total energy  :  -256.9868878 Eh     change        0.2745537E-08 Eh
 * total energy  :  -256.9871619 Eh     change       -0.2740185E-03 Eh
 * total energy  :  -256.9874078 Eh     change       -0.2459146E-03 Eh
 * total energy  :  -256.9875446 Eh     change       -0.1368178E-03 Eh
 * total energy  :  -256.9878040 Eh     change       -0.2594569E-03 Eh
 * total energy  :  -256.9881047 Eh     change       -0.3006751E-03 Eh
 * total energy  :  -256.9883303 Eh     change       -0.2255579E-03 Eh
 * total energy  :  -256.9884515 Eh     change       -0.1212006E-03 Eh
 * total energy  :  -256.9885314 Eh     change       -0.7996505E-04 Eh
 * total energy  :  -256.9885887 Eh     change       -0.5724979E-04 Eh
 * total energy  :  -256.9898467 Eh     change       -0.7341337E-06 Eh
 * total energy  :  -256.9898476 Eh     change       -0.8970840E-06 Eh
 * total energy  :  -256.9898486 Eh     change       -0.1005364E-05 Eh
 * total energy  :  -256.9898496 Eh     change       -0.1016817E-05 Eh
 * total energy  :  -256.9898499 Eh     change       -0.3004873E-06 Eh
 * total energy  :  -256.9898508 Eh     change       -0.8300930E-06 Eh
 * total energy  :  -256.9898492 Eh     change        0.1580917E-05 Eh
 * total energy  :  -256.9898511 Eh     change       -0.1878601E-05 Eh
 * total energy  :  -256.9898512 Eh     change       -0.9218149E-07 Eh
   *** GEOMETRY OPTIMIZATION CONVERGED AFTER 72 ITERATIONS ***

 final structure:
================
164
 xtb: 6.7.1 (edcfbbe)
C           12.07098175539230        1.08304843370945       -0.48166733419625
C           10.69726860449789        0.75983108229234       -0.98798392392291
C           10.52809490362570       -0.07606566427220       -2.08752468527401
C            9.25773646053754       -0.38985481271868       -2.53858566630121
C            8.14078115629034        0.12167409429946       -1.90716255661265
C            8.29197818490419        0.95778976697870       -0.80147233860210
N            7.16885301445963        1.48095856901097       -0.14875100128213
C            7.18730011418338        2.78936667080144        0.34505975763070
C            6.55069530695608        3.10587508684837        1.54536030905429
C            6.57526969247538        4.40503396957120        2.01373666772056
C            7.23190171203896        5.39799627136347        1.30765195327456
C            7.87753969767856        5.09896345243871        0.11170727352218
C            8.57188199101449        6.17557162661061       -0.66716296212787
C            7.84466543967759        3.79737835547177       -0.36073038091045
C            6.03450802438558        0.68362501875721        0.02954629414218
C            6.16995123851479       -0.67921649882637        0.28646031378312
C            5.03751294112242       -1.47666552374757        0.44491336466789
C            3.74216003069548       -0.91810997410126        0.38119633644158
C            3.63309980362425        0.46870994563784        0.15038967189080
C            4.76603459697703        1.25311869716395       -0.05284773980443
N            2.37549725153192        1.05538189873250        0.10603234476295
C            2.32399732174810        2.46957016170523        0.06144423549850
C            1.94753465951846        3.17688846108348       -1.08857170830672
F            1.61303233975887        2.46951340589446       -2.19536435126892
C            1.90398708375404        4.55159744111044       -1.13593530902002
C            2.25212361996087        5.28417753120426       -0.00596608133206
C            2.63504683758532        4.62528565152403        1.15715204925754
C            2.66560276030436        3.24967220792983        1.17465966587115
F            3.04306933423116        2.61240550567051        2.30859177742147
C            1.19030704091580        0.34463061486094        0.10879834966177
C           -0.01608354707474        1.03672360287919        0.05310093561435
C           -1.23861125209449        0.37672524572525       -0.03162748700460
C           -1.26482070790871       -1.03664895702252       -0.20051412646208
C           -0.04851923834275       -1.69528667833743       -0.01311481768400
C            1.18251276176719       -1.07560478487364        0.20822688793643
B            2.51016337203509       -1.78901172294845        0.52040144520866
C            2.79018776707144       -3.24397869291879        0.94317099690111
C            1.82177939792059       -4.17441386245977        1.34780416971563
C            2.12926168491285       -5.47453103415217        1.67884269597895
C            3.45028730639788       -5.92230285523639        1.62652378155350
C            3.78348443524011       -7.34331555043039        1.96655343590314
C            4.43668714416505       -5.02046827221791        1.27712709216571
C            4.13590082369772       -3.68985608845044        0.95888014929446
N            5.18068010925095       -2.82852122217664        0.67102803928371
C            6.50816864657872       -3.35750958731902        0.64920903172555
C            7.27170623216739       -3.38139291227264        1.80842283487480
C            8.56083667227180       -3.88367767331970        1.75972202497937
C            9.08136596925538       -4.35578424789692        0.56825954735206
C            8.32368905036678       -4.33848698561859       -0.59856425549573
C            8.89152698730276       -4.86958994312792       -1.87879274188454
C            7.03211954403707       -3.83298224306275       -0.54509169926497
B           -2.61049100629576       -1.70290225045134       -0.53857260260179
C           -2.92710880871428       -3.12971209660297       -1.02608601408566
C           -1.98327289936749       -4.06166653159522       -1.48198163824425
C           -2.32260349538853       -5.33904984356067       -1.86610296050195
C           -3.65271573731592       -5.75999385713682       -1.81982917584725
C           -4.01940253672915       -7.15850591377043       -2.21431084814893
C           -4.61597698679862       -4.85287126714980       -1.42269880198969
C           -4.28262837843329       -3.54451095985958       -1.04942769245574
N           -5.30510025312846       -2.67372501443323       -0.71428554499323
C           -6.64492959085959       -3.17103873359562       -0.70864817233845
C           -7.41550094559589       -3.11914749932298       -1.86235498358663
C           -8.71750248375098       -3.58823470480737       -1.82841467183713
C           -9.24349847566196       -4.10303702500394       -0.65717183502469
C           -8.47866586407779       -4.16245189688740        0.50353728688784
C           -9.05217586573781       -4.74039536130844        1.76066364268695
C           -7.17424385847113       -3.68942204603107        0.46518951615881
C           -5.12918084172414       -1.33724631237407       -0.42768887270347
C           -6.24185606051045       -0.52286038544658       -0.22228744568127
C           -6.07293486616845        0.82346806698640        0.09409264950810
N           -7.18724257654500        1.63905866189661        0.31413440121747
C           -7.17963655650717        2.96467515295933       -0.13235087392619
C           -7.79943414619638        3.96688419726646        0.61498496458326
C           -7.77813984387188        5.27222966037899        0.16474998927986
C           -7.14094640069666        5.59959714127977       -1.02027476786122
C           -6.51903620348272        4.61330692169548       -1.77846808647410
C           -5.85894710184001        4.94733475677663       -3.08240056679657
C           -6.54664458529194        3.30307084628794       -1.32803748461159
C           -8.31478407355875        1.11680278116690        0.95855743693599
C           -8.17099858142928        0.23083946150013        2.02539521975309
C           -9.29264864486123       -0.28438322848926        2.64602495057731
C          -10.55972049487467        0.07363117257440        2.22107617184454
C          -10.72162302743022        0.95988475652441        1.15967860053072
C          -12.09622455660008        1.34820873874420        0.70429026256639
C           -9.59600892011184        1.47077770140312        0.53567076139222
C           -4.79136921262950        1.35968411871685        0.19338487726162
C           -3.67805547800112        0.56008622400544       -0.05374608789535
C           -3.82094902016683       -0.81139629449120       -0.34938802418545
N           -2.40652543956230        1.11421045891638        0.01087656987252
C           -2.32171742872560        2.52138183637542        0.13888403696152
C           -2.66081013496231        3.37524446440437       -0.91925047428518
F           -3.06553015401081        2.81656647030101       -2.08524458991267
C           -2.60356727747260        4.74630362806877       -0.81777810025676
C           -2.19443344001640        5.32420449237441        0.37877580737090
C           -1.84706760206118        4.51674609667648        1.45676992048309
C           -1.91775235303348        3.14865050306561        1.32525745738678
F           -1.58466793103349        2.36711864010214        2.38150707891742
C            9.57534984685069        1.26566083947668       -0.35177142728237
H           12.44100276194918        0.26462140076921        0.13689594392718
H           12.76480765769294        1.21676224240934       -1.30901892226779
H           12.06011946671668        1.98712505635610        0.12227290462446
H           11.39477859988632       -0.47809511586459       -2.59145059869296
H            9.13479793683807       -1.03069072162178       -3.39950608188596
H            7.14969781368569       -0.11306019587617       -2.26619545613709
H            6.04446743948156        2.33301838279897        2.10485885791051
H            6.08439187759545        4.64008583263542        2.94711118260033
H            7.24753662058632        6.40966520864311        1.68566825700462
H            9.28711398854501        5.74970414045834       -1.36652986807534
H            7.84154865939778        6.75318709384452       -1.23481554540842
H            9.09168213452203        6.85895211263046        0.00110044708154
H            8.33161798772828        3.55151554662478       -1.29380296756341
H            7.16053597990294       -1.09900071270465        0.35460128188416
H            4.68387629827906        2.30421469529436       -0.28514446890593
H            1.60439740154231        5.03696421585665       -2.05067568600409
H            2.22329658957021        6.35995633309817       -0.03145846693401
H            2.90628199439906        5.16965650887417        2.04673169246638
H           -0.00309355224538        2.11545449045945        0.07838824243341
H           -0.06103844099284       -2.77050292133022       -0.04033095058507
H            0.79534476835640       -3.85136592730087        1.41990266195333
H            1.34630956232705       -6.15729640789824        1.97862446073378
H            3.22354838512952       -8.02640068968062        1.32836305100615
H            4.84596241929635       -7.53670794825831        1.83951055679134
H            3.51121636638516       -7.55827766630566        3.00001820594565
H            5.46343060293252       -5.35463651246363        1.26251701455377
H            6.85303721963206       -3.00825801651321        2.73126749508072
H            9.16079446630178       -3.90433538495119        2.65752826081007
H           10.08861385843793       -4.74504141913567        0.53975236494990
H            8.25421801094495       -4.61703893650432       -2.72193990482533
H            8.97945361540516       -5.95484224008934       -1.82581196735246
H            9.88626542514667       -4.46333957572600       -2.05174846913113
H            6.41866950131866       -3.80380513285717       -1.43411933755261
H           -0.95077084496910       -3.75756345144938       -1.55060117358453
H           -1.55797937104522       -6.02505205747741       -2.20337197802989
H           -3.48675960194259       -7.87813769086528       -1.59293122298357
H           -3.73879065497555       -7.34518485294243       -3.25090350295674
H           -5.08820873029972       -7.32738279241811       -2.10691619557697
H           -5.64992976403474       -5.16440281789683       -1.41335783819070
H           -6.99243638590266       -2.71297741211606       -2.76909615111038
H           -9.32342254268043       -3.54918137273935       -2.72155141386442
H          -10.26091897752850       -4.46555046055268       -0.64005512087459
H           -9.14487433351525       -5.82238525071252        1.66437613251623
H          -10.04510282215398       -4.33624959893891        1.94787440547489
H           -8.41517346276098       -4.52521545349801        2.61437274624068
H           -6.55524253675960       -3.71857050922340        1.35042529244869
H           -7.24249658287874       -0.91638918890631       -0.29878971215635
H           -8.28581043287154        3.71481592292680        1.54574833556067
H           -8.25509550292220        6.04476756922654        0.75051473761643
H           -7.12776234668340        6.62482810570382       -1.35996093709214
H           -6.57123280685746        4.82680029529814       -3.89959184620344
H           -5.51162354055123        5.97787881846986       -3.08862344356353
H           -5.01942341970854        4.28227856873094       -3.27113709258601
H           -6.07129287552840        2.52730667638560       -1.91170026306373
H           -7.18180829825827       -0.04151462006927        2.36252493825673
H           -9.17481315672831       -0.96584918298860        3.47586865414559
H          -11.43065899979791       -0.33278578497009        2.71400253338966
H          -12.05108028446864        1.96560188008703       -0.18919293262473
H          -12.60628184700494        1.90867673236309        1.48759452641980
H          -12.69079589457312        0.46148567746925        0.48958694832636
H           -9.70286432207986        2.15282989169458       -0.29599684691667
H           -4.68503820467323        2.39652400377516        0.47444071047244
H           -2.87640169490043        5.34981089148927       -1.66751908055435
H           -2.14558310017003        6.39562324564980        0.47132470523532
H           -1.52758038283325        4.93885416606442        2.39583297172982
H            9.68865461512873        1.90766393044737        0.51035304218126

          :  Hamiltonian                  GFN2-xTB          :
         :: gradient norm              0.000058929706 Eh/a0 ::
         :: HOMO-LUMO gap              0.060498248255 eV    ::
         :: SCC energy              -261.324560369184 Eh    ::
         :: -> dispersion             -0.251515313623 Eh    ::
         :: -> Gsolv                  -0.100002053379 Eh    ::
         :: repulsion energy           4.334709160562 Eh    ::

    * Orbital Energies and Occupations

         #    Occupation            Energy/Eh            Energy/eV
      -------------------------------------------------------------
         1        2.0000           -0.8278405             -22.5267
       ...           ...                  ...                  ...
       226        2.0000           -0.3877133             -10.5502
       227        2.0000           -0.3838904             -10.4462
       228        2.0000           -0.3832492             -10.4287
       229        2.0000           -0.3794745             -10.3260
       230        2.0000           -0.3750634             -10.2060
       231        2.0000           -0.3690771             -10.0431
       232        2.0000           -0.3661762              -9.9642
       233        2.0000           -0.3578517              -9.7376
       234        1.9995           -0.3512706              -9.5586
       235        1.9700           -0.3473200              -9.4511
       236        1.8905           -0.3460090              -9.4154
       237        1.1400           -0.3422940              -9.3143
       238        0.7582           -0.2565737              -6.9817 (HOMO)
       239        0.2320           -0.2543508              -6.9212 (LUMO)
       240        0.0097           -0.2510964              -6.8327
       241        0.0000           -0.2440288              -6.6404
       242        0.0000           -0.2437222              -6.6320
       243        0.0000           -0.2417080              -6.5772
       244                         -0.2305604              -6.2739
       245                         -0.2304653              -6.2713
       246                         -0.2276719              -6.1953
       247                         -0.2275381              -6.1916
       248                         -0.2269611              -6.1759
       249                         -0.2267233              -6.1695
       ...                                ...                  ...
       458                          0.7321858              19.9238
      -------------------------------------------------------------
                  HL-Gap            0.0022229 Eh            0.0605 eV

     #   Z          covCN         q      C6AA      α(0)
     1   6 C        3.758    -0.111    22.669     6.788
     2   6 C        2.965     0.018    27.603     8.618
     3   6 C        2.924    -0.049    29.227     8.866
     4   6 C        2.918    -0.032    28.809     8.802
     5   6 C        2.922    -0.052    29.303     8.877
     6   6 C        2.923     0.064    26.566     8.452
     7   7 N        2.754    -0.076    22.724     7.080
     8   6 C        2.922     0.064    26.573     8.453
     9   6 C        2.922    -0.053    29.322     8.880
    10   6 C        2.918    -0.033    28.830     8.805
    11   6 C        2.924    -0.051    29.256     8.870
    12   6 C        2.965     0.018    27.615     8.620
    13   6 C        3.758    -0.111    22.675     6.789
    14   6 C        2.928    -0.059    29.475     8.904
    15   6 C        2.922     0.061    26.632     8.463
    16   6 C        2.921    -0.083    30.066     8.992
    17   6 C        2.926     0.062    26.618     8.461
    18   6 C        2.896    -0.108    30.720     9.088
    19   6 C        2.927     0.059    26.679     8.471
    20   6 C        2.921    -0.071    29.761     8.946
    21   7 N        2.753    -0.035    21.922     6.954
    22   6 C        2.925     0.025    27.436     8.590
    23   6 C        2.788     0.149    24.750     8.149
    24   9 F        0.786    -0.237    11.621     4.027
    25   6 C        2.913    -0.060    29.503     8.907
    26   6 C        2.925    -0.044    29.097     8.846
    27   6 C        2.913    -0.058    29.451     8.899
    28   6 C        2.789     0.151    24.719     8.144
    29   9 F        0.786    -0.235    11.599     4.023
    30   6 C        2.926     0.068    26.483     8.439
    31   6 C        2.921    -0.084    30.102     8.997
    32   6 C        2.926     0.068    26.483     8.439
    33   6 C        2.883    -0.080    29.989     8.978
    34   6 C        2.926    -0.055    29.363     8.886
    35   6 C        2.883    -0.080    29.989     8.978
    36   5 B        2.724     0.168    18.849     7.275
    37   6 C        2.886    -0.081    30.024     8.983
    38   6 C        2.920    -0.042    29.041     8.837
    39   6 C        2.919    -0.049    29.206     8.862
    40   6 C        2.964     0.012    27.749     8.640
    41   6 C        3.758    -0.108    22.620     6.781
    42   6 C        2.925    -0.067    29.677     8.934
    43   6 C        2.924     0.058    26.694     8.473
    44   7 N        2.756    -0.040    22.020     6.969
    45   6 C        2.933     0.065    26.542     8.449
    46   6 C        2.921    -0.043    29.067     8.841
    47   6 C        2.919    -0.030    28.754     8.793
    48   6 C        2.925    -0.042    29.033     8.836
    49   6 C        2.966     0.024    27.476     8.598
    50   6 C        3.758    -0.113    22.712     6.795
    51   6 C        2.927    -0.048    29.183     8.859
    52   5 B        2.724     0.168    18.851     7.275
    53   6 C        2.886    -0.081    30.024     8.983
    54   6 C        2.920    -0.042    29.041     8.837
    55   6 C        2.919    -0.049    29.205     8.862
    56   6 C        2.964     0.012    27.749     8.640
    57   6 C        3.758    -0.108    22.620     6.781
    58   6 C        2.925    -0.067    29.677     8.934
    59   6 C        2.924     0.058    26.694     8.473
    60   7 N        2.756    -0.040    22.017     6.969
    61   6 C        2.933     0.065    26.543     8.449
    62   6 C        2.921    -0.043    29.067     8.841
    63   6 C        2.919    -0.030    28.753     8.793
    64   6 C        2.925    -0.042    29.033     8.836
    65   6 C        2.966     0.024    27.477     8.598
    66   6 C        3.758    -0.113    22.711     6.794
    67   6 C        2.927    -0.048    29.184     8.859
    68   6 C        2.926     0.062    26.618     8.461
    69   6 C        2.921    -0.082    30.060     8.991
    70   6 C        2.922     0.061    26.631     8.463
    71   7 N        2.754    -0.077    22.727     7.080
    72   6 C        2.922     0.064    26.575     8.454
    73   6 C        2.922    -0.054    29.342     8.883
    74   6 C        2.917    -0.033    28.833     8.805
    75   6 C        2.924    -0.050    29.253     8.870
    76   6 C        2.965     0.017    27.630     8.622
    77   6 C        3.758    -0.110    22.661     6.787
    78   6 C        2.928    -0.058    29.452     8.900
    79   6 C        2.923     0.064    26.569     8.453
    80   6 C        2.922    -0.053    29.310     8.878
    81   6 C        2.918    -0.032    28.810     8.802
    82   6 C        2.924    -0.050    29.232     8.867
    83   6 C        2.965     0.018    27.606     8.618
    84   6 C        3.758    -0.111    22.667     6.788
    85   6 C        2.928    -0.058    29.432     8.897
    86   6 C        2.921    -0.071    29.759     8.946
    87   6 C        2.927     0.059    26.682     8.471
    88   6 C        2.896    -0.108    30.719     9.087
    89   7 N        2.753    -0.035    21.916     6.953
    90   6 C        2.925     0.025    27.436     8.590
    91   6 C        2.789     0.151    24.721     8.144
    92   9 F        0.786    -0.234    11.597     4.023
    93   6 C        2.913    -0.059    29.454     8.899
    94   6 C        2.925    -0.044    29.092     8.845
    95   6 C        2.913    -0.060    29.501     8.907
    96   6 C        2.788     0.149    24.750     8.149
    97   9 F        0.786    -0.237    11.627     4.028
    98   6 C        2.928    -0.058    29.433     8.897
    99   1 H        0.924     0.052     2.301     2.372
   100   1 H        0.925     0.048     2.339     2.392
   101   1 H        0.925     0.045     2.386     2.416
   102   1 H        0.926     0.034     2.529     2.487
   103   1 H        0.926     0.034     2.532     2.488
   104   1 H        0.926     0.028     2.619     2.531
   105   1 H        0.926     0.028     2.615     2.529
   106   1 H        0.926     0.030     2.584     2.514
   107   1 H        0.926     0.034     2.536     2.490
   108   1 H        0.925     0.046     2.376     2.411
   109   1 H        0.924     0.051     2.305     2.374
   110   1 H        0.925     0.049     2.332     2.388
   111   1 H        0.926     0.033     2.550     2.497
   112   1 H        0.926     0.029     2.594     2.519
   113   1 H        0.926     0.019     2.741     2.589
   114   1 H        0.926     0.072     2.066     2.248
   115   1 H        0.926     0.070     2.089     2.260
   116   1 H        0.926     0.073     2.052     2.240
   117   1 H        0.926     0.003     3.013     2.715
   118   1 H        0.926     0.041     2.441     2.443
   119   1 H        0.926     0.032     2.553     2.499
   120   1 H        0.925     0.023     2.683     2.561
   121   1 H        0.925     0.046     2.370     2.408
   122   1 H        0.925     0.040     2.454     2.450
   123   1 H        0.925     0.046     2.375     2.410
   124   1 H        0.926     0.024     2.676     2.558
   125   1 H        0.926     0.039     2.465     2.455
   126   1 H        0.926     0.041     2.432     2.439
   127   1 H        0.926     0.044     2.403     2.424
   128   1 H        0.925     0.049     2.338     2.391
   129   1 H        0.925     0.057     2.238     2.339
   130   1 H        0.925     0.055     2.263     2.352
   131   1 H        0.926     0.041     2.429     2.437
   132   1 H        0.926     0.032     2.554     2.499
   133   1 H        0.926     0.023     2.683     2.562
   134   1 H        0.925     0.046     2.370     2.407
   135   1 H        0.925     0.046     2.376     2.410
   136   1 H        0.925     0.040     2.455     2.450
   137   1 H        0.926     0.024     2.676     2.558
   138   1 H        0.926     0.039     2.461     2.453
   139   1 H        0.926     0.041     2.430     2.438
   140   1 H        0.926     0.043     2.404     2.425
   141   1 H        0.924     0.057     2.237     2.339
   142   1 H        0.925     0.054     2.267     2.355
   143   1 H        0.925     0.048     2.339     2.392
   144   1 H        0.926     0.041     2.431     2.438
   145   1 H        0.926     0.030     2.593     2.518
   146   1 H        0.926     0.030     2.590     2.517
   147   1 H        0.926     0.033     2.548     2.496
   148   1 H        0.926     0.033     2.541     2.493
   149   1 H        0.924     0.050     2.317     2.380
   150   1 H        0.925     0.046     2.375     2.410
   151   1 H        0.925     0.048     2.345     2.395
   152   1 H        0.926     0.031     2.569     2.506
   153   1 H        0.926     0.027     2.622     2.532
   154   1 H        0.926     0.034     2.534     2.489
   155   1 H        0.926     0.034     2.525     2.485
   156   1 H        0.925     0.043     2.404     2.425
   157   1 H        0.925     0.051     2.311     2.377
   158   1 H        0.925     0.050     2.317     2.380
   159   1 H        0.926     0.031     2.572     2.508
   160   1 H        0.926     0.020     2.736     2.587
   161   1 H        0.926     0.077     2.015     2.220
   162   1 H        0.926     0.070     2.090     2.261
   163   1 H        0.926     0.071     2.076     2.253
   164   1 H        0.926     0.032     2.560     2.502

molecular dipole:
                 x           y           z       tot (Debye)
 q only:        0.221      -0.546      -0.390
   full:        0.192      -0.263      -0.329       1.177

 projected vibrational frequencies (cm⁻¹)
eigval :       -0.00    -0.00    -0.00    -0.00     0.00     0.00
eigval :      -46.63     5.30     6.39    10.39    10.89    12.28
eigval :       13.70    17.42    19.52    20.23    23.05    27.79
eigval :       28.33    30.00    31.61    33.62    38.39    40.79
eigval :       43.17    46.36    47.64    50.91    52.92    55.04
eigval :       56.20    58.36    61.09    63.28    68.30    70.20
eigval :       71.86    74.08    75.65    77.28    79.67    81.26
eigval :       83.10    84.10    87.45    95.40   102.57   107.28
eigval :      109.95   111.74   120.00   127.93   146.10   151.53
eigval :      155.87   166.49   169.20   171.67   174.05   179.68
eigval :      181.60   191.56   194.78   198.91   199.88   202.57
eigval :      202.91   203.39   206.70   213.80   214.31   219.25
eigval :      221.13   222.67   229.60   232.52   233.64   235.26
eigval :      235.94   242.20   247.97   263.31   266.51   278.79
eigval :      282.13   289.10   293.96   297.93   305.79   313.23
eigval :      316.93   323.05   325.43   327.22   333.56   349.14
eigval :      353.00   354.83   368.21   377.61   379.72   383.53
eigval :      386.06   393.59   406.17   408.81   409.41   413.44
eigval :      414.02   414.92   416.78   417.63   419.13   421.27
eigval :      427.79   429.15   444.83   445.38   454.40   457.13
eigval :      472.07   472.26   474.06   479.39   484.41   498.13
eigval :      500.41   501.12   502.65   503.67   504.80   505.83
eigval :      506.34   510.25   514.13   514.59   516.46   529.72
eigval :      531.37   534.38   535.08   535.88   537.59   540.92
eigval :      542.21   542.62   544.95   549.37   552.77   558.70
eigval :      566.97   571.60   573.93   579.76   586.86   601.73
eigval :      605.13   610.73   613.11   616.32   619.19   628.53
eigval :      630.44   632.45   634.13   645.88   653.58   656.71
eigval :      658.62   661.52   663.51   668.50   672.37   672.72
eigval :      673.75   678.34   685.27   691.10   699.38   701.68
eigval :      703.41   704.09   716.04   728.63   756.42   776.05
eigval :      777.70   779.30   781.46   785.04   785.96   788.40
eigval :      790.66   794.61   798.09   802.95   805.77   806.63
eigval :      807.88   810.50   812.94   815.08   816.13   839.56
eigval :      841.31   842.87   849.46   859.46   861.79   863.90
eigval :      870.90   872.48   872.65   876.97   880.64   881.63
eigval :      884.25   884.40   884.74   885.62   887.90   888.42
eigval :      888.51   889.87   892.93   895.76   900.15   903.26
eigval :      906.02   915.63   918.63   920.47   924.41   925.52
eigval :      927.54   927.64   928.13   930.94   931.17   934.05
eigval :      951.79   955.92   958.77   980.12   984.48   985.56
eigval :      986.18   987.02   987.92   989.71   995.44   995.68
eigval :     1000.30  1000.76  1012.69  1012.93  1015.27  1016.53
eigval :     1023.22  1024.76  1026.36  1029.34  1030.57  1030.97
eigval :     1031.33  1032.04  1032.64  1034.36  1037.39  1043.90
eigval :     1051.23  1068.04  1075.46  1079.66  1089.82  1101.89
eigval :     1105.49  1112.34  1125.85  1126.39  1132.55  1133.08
eigval :     1134.12  1134.21  1134.97  1137.40  1149.92  1154.70
eigval :     1160.86  1161.38  1172.51  1173.81  1183.52  1184.36
eigval :     1185.76  1187.22  1187.27  1189.34  1189.95  1192.75
eigval :     1197.71  1198.80  1203.24  1204.15  1206.68  1207.30
eigval :     1211.27  1219.64  1224.88  1229.22  1231.97  1243.39
eigval :     1249.19  1250.82  1262.49  1262.78  1266.21  1267.51
eigval :     1269.35  1271.54  1271.69  1271.93  1273.51  1275.63
eigval :     1277.74  1278.42  1287.34  1291.52  1293.99  1295.95
eigval :     1301.60  1301.82  1310.95  1311.22  1312.38  1318.06
eigval :     1318.79  1319.51  1319.71  1322.87  1325.91  1328.68
eigval :     1328.86  1329.11  1332.95  1346.59  1347.90  1349.26
eigval :     1352.22  1355.07  1361.22  1363.34  1374.32  1390.36
eigval :     1394.56  1396.42  1398.77  1399.40  1400.80  1401.28
eigval :     1401.56  1402.52  1402.95  1405.47  1406.96  1413.92
eigval :     1424.07  1424.78  1430.62  1431.73  1432.09  1432.22
eigval :     1440.56  1441.45  1443.17  1443.72  1443.91  1444.99
eigval :     1454.60  1454.99  1470.24  1470.52  1470.88  1472.45
eigval :     1472.90  1473.77  1474.55  1474.86  1475.55  1476.08
eigval :     1476.59  1477.17  1478.03  1479.34  1479.74  1479.79
eigval :     1480.30  1480.37  1481.26  1481.98  1482.20  1482.54
eigval :     1482.88  1484.17  1496.98  1498.21  1509.50  1513.78
eigval :     1524.17  1527.56  1529.55  1550.02  1572.18  1572.51
eigval :     1574.02  1575.85  1578.37  1579.06  1581.54  1581.77
eigval :     1589.72  1590.12  1594.14  1594.95  1596.40  1596.53
eigval :     2991.99  2995.30  2995.33  2996.03  2996.69  3001.53
eigval :     3001.85  3002.55  3010.24  3012.06  3018.96  3027.83
eigval :     3029.15  3029.54  3030.39  3035.31  3036.97  3038.29
eigval :     3039.73  3040.04  3041.00  3043.51  3046.82  3047.30
eigval :     3063.82  3064.74  3070.61  3070.68  3072.84  3072.89
eigval :     3075.33  3076.00  3076.31  3076.69  3077.02  3078.05
eigval :     3080.22  3080.60  3081.47  3081.52  3082.13  3082.28
eigval :     3083.79  3084.60  3085.41  3085.56  3088.94  3089.88
eigval :     3090.14  3090.65  3090.71  3091.13  3091.62  3093.98
eigval :     3094.14  3100.68  3101.72  3109.88  3110.60  3111.77
eigval :     3113.53  3115.86  3117.97  3127.52  3128.50  3135.90

   temp. (K)  partition function   enthalpy   heat capacity  entropy
                                   cal/mol     cal/K/mol   cal/K/mol   J/K/mol
 298.15  VIB  0.553E+45            52841.286    312.378    338.778
         ROT  0.585E+09              888.752      2.981     43.098
         INT  0.323E+54            53730.039    315.359    381.877
         TR   0.444E+29             1481.254      4.968     47.298
         TOT                       55211.2927   320.3268   429.1752  1795.6690

       T/K    H(0)-H(T)+PV         H(T)/Eh          T*S/Eh         G(T)/Eh
   ------------------------------------------------------------------------
    298.15    0.879848E-01    0.134396E+01    0.203915E+00    0.114005E+01
   ------------------------------------------------------------------------

         :::::::::::::::::::::::::::::::::::::::::::::::::::::
         ::                  THERMODYNAMIC                  ::
         :::::::::::::::::::::::::::::::::::::::::::::::::::::
         :: total free energy        -255.849802588583 Eh   ::
         ::.................................................::
         :: total energy             -256.989851206921 Eh   ::
         :: zero point energy           1.255978807160 Eh   ::
         :: G(RRHO) w/o ZPVE           -0.115930188821 Eh   ::
         :: G(RRHO) contrib.            1.140048618339 Eh   ::
         :::::::::::::::::::::::::::::::::::::::::::::::::::::

           -------------------------------------------------
          | TOTAL ENERGY             -256.989851206921 Eh   |
          | TOTAL ENTHALPY           -255.645887604391 Eh   |
          | TOTAL FREE ENERGY        -255.849802588583 Eh   |
          | GRADIENT NORM               0.000049880222 Eh/α |
          | HOMO-LUMO GAP               0.060487339250 eV   |
           -------------------------------------------------

 * finished run on 2025/08/22 at 01:18:55.321
