   * xtb version 6.7.1 (edcfbbe) compiled by 'albert@albert-system' on 2024-07-22

   ID    Z sym.   atoms
    1    6 C      1-6, 8-20, 22, 23, 25-28, 30-35, 37-43, 45-51, 53-59,
                  61-70, 72-88, 90, 91, 93-96, 98
    2    7 N      7, 21, 44, 60, 71, 89
    3    9 F      24, 29, 92, 97
    4    5 B      36, 52
    5    1 H      99-164

          program call               : xtb data2507/toluene/4F-m-ν-DABNA/4F-m-ν-DABNA_toluene_S0_crest.xyz --gfn 2 --gbsa toluene --ohess vtight --parallel 40 --molden --ceasefiles --namespace data2507/toluene/4F-m-ν-DABNA/4F-m-ν-DABNA_toluene_S0_finalOpt
      * Solvation model:               GBSA
        Solvent                        toluene
        Solvent mass                       9.2140E+01 g/mol
          :  Hamiltonian                  GFN2-xTB          :
 * total energy  :  -257.0684559 Eh     change       -0.1001723E-07 Eh
 * total energy  :  -257.0687048 Eh     change       -0.2488929E-03 Eh
 * total energy  :  -257.0689124 Eh     change       -0.2076105E-03 Eh
 * total energy  :  -257.0690269 Eh     change       -0.1144705E-03 Eh
 * total energy  :  -257.0692261 Eh     change       -0.1992065E-03 Eh
 * total energy  :  -257.0694745 Eh     change       -0.2484246E-03 Eh
 * total energy  :  -257.0696671 Eh     change       -0.1925747E-03 Eh
 * total energy  :  -257.0697901 Eh     change       -0.1230646E-03 Eh
 * total energy  :  -257.0698731 Eh     change       -0.8300652E-04 Eh
 * total energy  :  -257.0699339 Eh     change       -0.6080031E-04 Eh
 * total energy  :  -257.0713927 Eh     change       -0.4564895E-06 Eh
 * total energy  :  -257.0713932 Eh     change       -0.4586491E-06 Eh
 * total energy  :  -257.0713936 Eh     change       -0.3838830E-06 Eh
 * total energy  :  -257.0713940 Eh     change       -0.4002183E-06 Eh
 * total energy  :  -257.0713943 Eh     change       -0.3531383E-06 Eh
 * total energy  :  -257.0713946 Eh     change       -0.2641377E-06 Eh
 * total energy  :  -257.0713949 Eh     change       -0.2791299E-06 Eh
 * total energy  :  -257.0713951 Eh     change       -0.1923642E-06 Eh
 * total energy  :  -257.0713951 Eh     change       -0.1686084E-07 Eh
   *** GEOMETRY OPTIMIZATION CONVERGED AFTER 88 ITERATIONS ***

 final structure:
================
164
 xtb: 6.7.1 (edcfbbe)
C           12.07140707076236        1.12534046977285       -0.38888266204573
C           10.69749841688079        0.82716542898599       -0.91068746880165
C           10.52667724507639        0.05695781359216       -2.05612485587720
C            9.25520648954173       -0.23200135886346       -2.52006397752487
C            8.13960186993692        0.23934821204831       -1.85574543643245
C            8.29210220473567        1.00602882694386       -0.70156945930376
N            7.17036712618741        1.48782926249583       -0.01443768289087
C            7.19680566683602        2.76312707321512        0.56154777111859
C            6.58727489622314        3.00143465276313        1.79251191328833
C            6.62410696374880        4.26776889894333        2.34445068474502
C            7.26519702508050        5.30442408632136        1.69011474821337
C            7.88157867652108        5.08413048183657        0.46194232731784
C            8.58584112955832        6.20531949771924       -0.24187119040224
C            7.83780587673930        3.81564177690669       -0.09221189154925
C            6.03475187567280        0.68188092830840        0.11847113075668
C            6.17101143743376       -0.68953938672248        0.28162872018612
C            5.03913741699974       -1.49480760581375        0.40017483794902
C            3.74763203898197       -0.92726788628939        0.38330163267660
C            3.63853040559883        0.46987817413755        0.23486810016754
C            4.76914045748496        1.26247952898895        0.08180071656128
N            2.37955105379448        1.05511809513960        0.21827662344367
C            2.32586647561087        2.46995767958266        0.21177828846438
C            2.02278732037695        3.19925410772992       -0.93825779164914
F            1.76096405167047        2.52550323766273       -2.07860262783069
C            1.97514275848317        4.58026981711023       -0.95214235825501
C            2.24326121840080        5.27605582613912        0.21442713791201
C            2.54951956773343        4.59435898579511        1.37945359644953
C            2.58718879062536        3.21277615370614        1.36258647992732
F            2.89186586476085        2.55310203054968        2.49868806889500
C            1.18830294791744        0.34220916327052        0.17009381168626
C           -0.01366481856544        1.03874994285778        0.09200486633966
C           -1.23432713901488        0.38194817350849       -0.02351319557357
C           -1.26377218994077       -1.02491711918927       -0.16863984939973
C           -0.05063453882606       -1.68407752904110        0.00864023900163
C            1.18002235291276       -1.07116881071794        0.22814791168895
B            2.51263588080890       -1.80216225540900        0.49560013412711
C            2.79624659997539       -3.27844122660803        0.84250268632980
C            1.83087912142158       -4.22300419512681        1.21909704968029
C            2.13393405136746       -5.53948017556985        1.47274387377160
C            3.45111295521771       -5.98823980301844        1.36237120098914
C            3.78246813049345       -7.42938388065641        1.60753378099799
C            4.43306747805728       -5.07644606243084        1.03899970098760
C            4.13586693875440       -3.72671239547582        0.80133539040099
N            5.18062446669319       -2.85823665534119        0.53726886347433
C            6.50197823999199       -3.39371034804243        0.43780080124214
C            7.30088271864045       -3.50479402875103        1.56787557767023
C            8.58293959289230       -4.01219213420573        1.44494761310929
C            9.06208376211402       -4.40494494920042        0.20810827754475
C            8.26933797748789       -4.30038008643307       -0.93036583020496
C            8.79258903098700       -4.74624569142601       -2.26139844541106
C            6.98530742845936       -3.78927139968997       -0.80173467330326
B           -2.61504522336873       -1.70228846468055       -0.47808658995728
C           -2.93779829928335       -3.14056200082972       -0.93079242359051
C           -1.99957055009777       -4.07362202719540       -1.39427379323585
C           -2.33721475378091       -5.36002409740986       -1.74112150839623
C           -3.66212810852470       -5.78780823942527       -1.63873712984021
C           -4.02941880422520       -7.19787297290663       -1.99056330027190
C           -4.61822985586813       -4.88270065840351       -1.23011471024750
C           -4.28689475053002       -3.56042548831140       -0.90093308651763
N           -5.30706006729446       -2.68981877174142       -0.55852486471932
C           -6.63984947313492       -3.19913349648579       -0.47604626287663
C           -7.45162723745160       -3.22719292509256       -1.60215366479416
C           -8.74511719388845       -3.70803982478332       -1.49398873207233
C           -9.22360883922185       -4.15502260373866       -0.27538135207063
C           -8.41820655425694       -4.13384640830250        0.85864597958032
C           -8.94048654732356       -4.63789854397629        2.16918886767910
C           -7.12208576702212       -3.65031870483096        0.74464913442202
C           -5.13189776072255       -1.34195281121005       -0.33379315309436
C           -6.24221147838314       -0.51778630948430       -0.15492657609485
C           -6.06886635877417        0.83688078898093        0.09160334996810
N           -7.18147513933510        1.66544636639375        0.27254276733141
C           -7.16851416224438        2.97100330357558       -0.23129194496800
C           -7.78105109332198        4.00849330734061        0.47128444629313
C           -7.75436979853504        5.29309622732625       -0.03613401403239
C           -7.11682059096849        5.56543258742823       -1.23435217031139
C           -6.50200810495792        4.54307015611573       -1.94895422222179
C           -5.84133753880715        4.81672821610340       -3.26703671192716
C           -6.53741165714575        3.25384617245197       -1.44202294844059
C           -8.31163630323339        1.17945655091594        0.94194489920253
C           -8.17252052742024        0.35318082045483        2.05539317299740
C           -9.29652835534087       -0.12330126555093        2.70270051148714
C          -10.56181248997549        0.21756642938169        2.25965841660775
C          -10.71922461270877        1.04551397308915        1.15204951927237
C          -12.09228805517313        1.41244081254248        0.67385696221839
C           -9.59093209153827        1.51547946334556        0.50079686835283
C           -4.78860722658482        1.38143018757094        0.15731672345677
C           -3.68020430407607        0.57312757361510       -0.05917874273202
C           -3.82682965292543       -0.80799791962447       -0.29457093330438
N           -2.40697164999607        1.12697701828949       -0.02526517004705
C           -2.32607946211910        2.53921314581149        0.02218558752922
C           -2.61851326072936        3.31592129399430       -1.09874096019636
F           -2.97000489081459        2.68923470534400       -2.24066827225069
C           -2.56966757672287        4.69658211275249       -1.08174481902742
C           -2.21764918506683        5.34460548751014        0.08957315283165
C           -1.91758067946763        4.61556173805368        1.22750780946961
C           -1.97908595124407        3.23565211931533        1.18000908407456
F           -1.69096225296609        2.53203143301964        2.29597036630882
C            9.57627929959280        1.29031609743646       -0.24080162256746
H           12.42770907256685        0.29125500390693        0.21682255111443
H           12.77294089119934        1.26824495002878       -1.20798343970678
H           12.06526872157704        2.01718382253684        0.23321649147483
H           11.39208252953643       -0.31336187088807       -2.58614596006272
H            9.13002491918859       -0.82102833728643       -3.41708634900957
H            7.14787612679718        0.02196808948866       -2.22404393848129
H            6.08942162525463        2.19434013368166        2.30959511734690
H            6.15374442616139        4.44151409159943        3.30177249580776
H            7.29135047605849        6.28961259909522        2.13225406966935
H            8.84198150460967        5.92604222817148       -1.26075330901464
H            7.95978006467202        7.09556547327276       -0.26569951052387
H            9.50488532972569        6.45880594421754        0.28699101867828
H            8.30512017626437        3.62968255612453       -1.04906719982520
H            7.16093884996740       -1.11527632052904        0.31705293477423
H            4.69453876217298        2.32780536085206       -0.07650090409229
H            1.73425692596177        5.08801562883698       -1.87202505921536
H            2.21180836560899        6.35311375025380        0.21546790476165
H            2.75936007108559        5.11420698728944        2.29991102151456
H            0.00123976280692        2.11780563869399        0.12434272917776
H           -0.06634928408050       -2.75907336501946       -0.02717907838990
H            0.80901748412007       -3.89829467162430        1.33674351384843
H            1.35465224176424       -6.23241332239088        1.75817866396352
H            3.30455978087026       -8.05723105578661        0.85535620868551
H            4.85628822871352       -7.59622722957217        1.56769709317580
H            3.41361839174002       -7.74253037188296        2.58367070644279
H            5.45728589172626       -5.41447627659651        0.98046294222660
H            6.91423298306024       -3.19373404135945        2.52714659216242
H            9.21020803429002       -4.09979076319131        2.31998047688335
H           10.06399986521328       -4.79965881844571        0.12146102263528
H            9.79113051172834       -4.34805141952305       -2.43125279258261
H            8.13925743684128       -4.41951569314143       -3.06606258611499
H            8.85797184824085       -5.83402745338912       -2.29089028455456
H            6.34577029742801       -3.69288617189751       -1.66757667871606
H           -0.97256248063965       -3.76172892774505       -1.50366820609282
H           -1.57950804517716       -6.04658662974522       -2.09224062944013
H           -3.77974482164911       -7.40444274259330       -3.03117654082497
H           -5.09277861743493       -7.37327035491671       -1.84563522382615
H           -3.47061906811849       -7.89856901691449       -1.37071400668114
H           -5.64852139112836       -5.20275734010399       -1.17669828610075
H           -7.06601158540643       -2.87308481344583       -2.54680251891139
H           -9.38232313542925       -3.73131008098360       -2.36590516606605
H          -10.23510023774717       -4.52693335083626       -0.19996524385727
H           -9.01652313113333       -5.72525051911964        2.14702688010850
H           -9.93412766001624       -4.23853428328840        2.36291990724550
H           -8.28018903249185       -4.35676921518592        2.98532334254421
H           -6.47264386817334       -3.61852632780407        1.60785702758355
H           -7.24326471190652       -0.91451832992903       -0.21074100669904
H           -8.26947143249675        3.80040032355788        1.41194841680152
H           -8.22779917890842        6.09246045615931        0.51583876083654
H           -7.09866132545742        6.57475249302466       -1.61877319759134
H           -5.02863434686351        4.11629889441556       -3.44485428361983
H           -6.56517235140528        4.70074689920311       -4.07474871027169
H           -5.45793021486283        5.83381195957654       -3.30479574767853
H           -6.06736680833741        2.45026475414850       -1.99152981745262
H           -7.18467517948243        0.09313364833306        2.40614692503258
H           -9.18164594800795       -0.75890855662284        3.56879190997658
H          -11.43468372451735       -0.15687506623145        2.77429464056748
H          -12.67034671850627        0.51537749015430        0.45556600211920
H          -12.04193629214831        2.02333621518810       -0.22385272266234
H          -12.62304190395690        1.97021513745833        1.44499233028996
H           -9.69495637774379        2.15231177690056       -0.36658957181615
H           -4.68598657186534        2.43168307931894        0.38483016826024
H           -2.80782137916523        5.24205144417148       -1.97982518663726
H           -2.17747470581615        6.42098789148268        0.11629266140805
H           -1.64247829772802        5.09634224431376        2.15235790591989
H            9.69272055979895        1.88145041882848        0.65673708488089

          :  Hamiltonian                  GFN2-xTB          :
         :: gradient norm              0.000117195130 Eh/a0 ::
         :: HOMO-LUMO gap              2.052649095583 eV    ::
         :: SCC energy              -261.423041099506 Eh    ::
         :: -> dispersion             -0.251719929937 Eh    ::
         :: -> Gsolv                  -0.100324567862 Eh    ::
         :: repulsion energy           4.351646029376 Eh    ::

    * Orbital Energies and Occupations

         #    Occupation            Energy/Eh            Energy/eV
      -------------------------------------------------------------
         1        2.0000           -0.8362735             -22.7562
       ...           ...                  ...                  ...
       225        2.0000           -0.3905205             -10.6266
       226        2.0000           -0.3866907             -10.5224
       227        2.0000           -0.3823534             -10.4044
       228        2.0000           -0.3823149             -10.4033
       229        2.0000           -0.3784613             -10.2985
       230        2.0000           -0.3743759             -10.1873
       231        2.0000           -0.3683453             -10.0232
       232        2.0000           -0.3645117              -9.9189
       233        2.0000           -0.3569713              -9.7137
       234        2.0000           -0.3468151              -9.4373
       235        2.0000           -0.3435435              -9.3483
       236        2.0000           -0.3424446              -9.3184
       237        2.0000           -0.3378864              -9.1944 (HOMO)
       238                         -0.2624530              -7.1417 (LUMO)
       239                         -0.2620258              -7.1301
       240                         -0.2561733              -6.9708
       241                         -0.2556992              -6.9579
       242                         -0.2549588              -6.9378
       243                         -0.2419906              -6.5849
       244                         -0.2279185              -6.2020
       245                         -0.2278503              -6.2001
       246                         -0.2253263              -6.1314
       247                         -0.2252478              -6.1293
       248                         -0.2246848              -6.1140
       ...                                ...                  ...
       458                          0.7335873              19.9619
      -------------------------------------------------------------
                  HL-Gap            0.0754334 Eh            2.0526 eV

     #   Z          covCN         q      C6AA      α(0)
     1   6 C        3.758    -0.110    22.652     6.786
     2   6 C        2.965     0.017    27.636     8.623
     3   6 C        2.924    -0.051    29.263     8.871
     4   6 C        2.918    -0.033    28.831     8.805
     5   6 C        2.922    -0.053    29.325     8.881
     6   6 C        2.922     0.066    26.533     8.447
     7   7 N        2.754    -0.087    22.929     7.112
     8   6 C        2.922     0.065    26.544     8.449
     9   6 C        2.922    -0.055    29.358     8.885
    10   6 C        2.918    -0.035    28.864     8.810
    11   6 C        2.924    -0.052    29.302     8.877
    12   6 C        2.965     0.016    27.647     8.625
    13   6 C        3.758    -0.110    22.662     6.787
    14   6 C        2.928    -0.060    29.491     8.906
    15   6 C        2.923     0.067    26.491     8.440
    16   6 C        2.922    -0.090    30.251     9.020
    17   6 C        2.927     0.063    26.596     8.457
    18   6 C        2.897    -0.111    30.799     9.099
    19   6 C        2.927     0.064    26.556     8.451
    20   6 C        2.922    -0.089    30.221     9.015
    21   7 N        2.753    -0.053    22.261     7.008
    22   6 C        2.925     0.045    26.990     8.520
    23   6 C        2.791     0.156    24.605     8.125
    24   9 F        0.787    -0.224    11.482     4.003
    25   6 C        2.915    -0.056    29.381     8.889
    26   6 C        2.926    -0.028    28.708     8.787
    27   6 C        2.915    -0.053    29.318     8.879
    28   6 C        2.792     0.159    24.555     8.117
    29   9 F        0.787    -0.221    11.456     3.998
    30   6 C        2.927     0.065    26.553     8.450
    31   6 C        2.922    -0.082    30.059     8.991
    32   6 C        2.926     0.064    26.556     8.451
    33   6 C        2.884    -0.094    30.369     9.035
    34   6 C        2.931    -0.039    28.980     8.829
    35   6 C        2.884    -0.094    30.366     9.034
    36   5 B        2.724     0.189    18.550     7.217
    37   6 C        2.886    -0.090    30.249     9.017
    38   6 C        2.922    -0.038    28.941     8.822
    39   6 C        2.919    -0.055    29.362     8.886
    40   6 C        2.965     0.014    27.689     8.631
    41   6 C        3.758    -0.108    22.614     6.780
    42   6 C        2.926    -0.068    29.698     8.937
    43   6 C        2.925     0.059    26.675     8.470
    44   7 N        2.756    -0.057    22.343     7.020
    45   6 C        2.932     0.067    26.491     8.441
    46   6 C        2.921    -0.044    29.083     8.844
    47   6 C        2.918    -0.031    28.777     8.797
    48   6 C        2.925    -0.042    29.053     8.839
    49   6 C        2.966     0.022    27.508     8.603
    50   6 C        3.758    -0.112    22.695     6.792
    51   6 C        2.927    -0.048    29.196     8.861
    52   5 B        2.724     0.189    18.545     7.216
    53   6 C        2.887    -0.090    30.248     9.017
    54   6 C        2.921    -0.038    28.938     8.822
    55   6 C        2.919    -0.055    29.361     8.886
    56   6 C        2.965     0.014    27.688     8.631
    57   6 C        3.758    -0.108    22.615     6.780
    58   6 C        2.926    -0.068    29.695     8.937
    59   6 C        2.925     0.059    26.675     8.470
    60   7 N        2.756    -0.057    22.341     7.020
    61   6 C        2.932     0.067    26.493     8.441
    62   6 C        2.921    -0.044    29.082     8.843
    63   6 C        2.918    -0.031    28.776     8.797
    64   6 C        2.925    -0.042    29.052     8.839
    65   6 C        2.966     0.022    27.509     8.603
    66   6 C        3.758    -0.112    22.694     6.792
    67   6 C        2.927    -0.048    29.198     8.861
    68   6 C        2.927     0.063    26.594     8.457
    69   6 C        2.922    -0.089    30.240     9.018
    70   6 C        2.924     0.068    26.486     8.440
    71   7 N        2.754    -0.087    22.928     7.112
    72   6 C        2.922     0.065    26.547     8.449
    73   6 C        2.922    -0.055    29.375     8.888
    74   6 C        2.918    -0.034    28.856     8.809
    75   6 C        2.924    -0.052    29.303     8.877
    76   6 C        2.965     0.015    27.674     8.629
    77   6 C        3.758    -0.110    22.663     6.787
    78   6 C        2.928    -0.060    29.491     8.906
    79   6 C        2.922     0.065    26.537     8.448
    80   6 C        2.922    -0.054    29.329     8.881
    81   6 C        2.918    -0.033    28.831     8.805
    82   6 C        2.924    -0.051    29.267     8.872
    83   6 C        2.965     0.016    27.640     8.623
    84   6 C        3.758    -0.110    22.651     6.785
    85   6 C        2.928    -0.059    29.457     8.901
    86   6 C        2.922    -0.088    30.211     9.014
    87   6 C        2.928     0.065    26.555     8.451
    88   6 C        2.897    -0.111    30.796     9.099
    89   7 N        2.753    -0.053    22.261     7.008
    90   6 C        2.925     0.044    27.003     8.522
    91   6 C        2.792     0.159    24.559     8.118
    92   9 F        0.787    -0.222    11.461     3.999
    93   6 C        2.915    -0.053    29.319     8.879
    94   6 C        2.927    -0.028    28.712     8.787
    95   6 C        2.915    -0.056    29.385     8.889
    96   6 C        2.791     0.156    24.615     8.127
    97   9 F        0.787    -0.225    11.494     4.005
    98   6 C        2.928    -0.059    29.463     8.902
    99   1 H        0.924     0.050     2.320     2.382
   100   1 H        0.925     0.047     2.356     2.400
   101   1 H        0.925     0.044     2.395     2.420
   102   1 H        0.926     0.031     2.565     2.505
   103   1 H        0.926     0.031     2.567     2.506
   104   1 H        0.926     0.026     2.646     2.544
   105   1 H        0.926     0.026     2.650     2.546
   106   1 H        0.926     0.029     2.599     2.521
   107   1 H        0.926     0.032     2.553     2.499
   108   1 H        0.925     0.043     2.406     2.426
   109   1 H        0.925     0.049     2.335     2.390
   110   1 H        0.924     0.050     2.314     2.379
   111   1 H        0.926     0.030     2.593     2.518
   112   1 H        0.926     0.023     2.690     2.565
   113   1 H        0.926     0.010     2.893     2.660
   114   1 H        0.926     0.085     1.932     2.173
   115   1 H        0.926     0.085     1.925     2.169
   116   1 H        0.926     0.085     1.923     2.169
   117   1 H        0.926    -0.003     3.107     2.756
   118   1 H        0.926     0.043     2.414     2.430
   119   1 H        0.926     0.031     2.568     2.506
   120   1 H        0.926     0.021     2.725     2.581
   121   1 H        0.925     0.046     2.367     2.406
   122   1 H        0.925     0.039     2.464     2.455
   123   1 H        0.925     0.045     2.384     2.414
   124   1 H        0.926     0.021     2.713     2.576
   125   1 H        0.926     0.037     2.488     2.467
   126   1 H        0.926     0.039     2.463     2.454
   127   1 H        0.926     0.041     2.430     2.437
   128   1 H        0.925     0.053     2.279     2.361
   129   1 H        0.925     0.047     2.352     2.398
   130   1 H        0.925     0.056     2.252     2.347
   131   1 H        0.926     0.039     2.459     2.452
   132   1 H        0.926     0.031     2.570     2.507
   133   1 H        0.926     0.021     2.723     2.581
   134   1 H        0.925     0.046     2.377     2.411
   135   1 H        0.925     0.039     2.464     2.455
   136   1 H        0.925     0.046     2.373     2.409
   137   1 H        0.926     0.021     2.712     2.575
   138   1 H        0.926     0.037     2.483     2.464
   139   1 H        0.926     0.039     2.460     2.453
   140   1 H        0.926     0.041     2.431     2.438
   141   1 H        0.924     0.056     2.252     2.347
   142   1 H        0.925     0.053     2.283     2.363
   143   1 H        0.925     0.047     2.353     2.399
   144   1 H        0.926     0.039     2.461     2.453
   145   1 H        0.926     0.023     2.689     2.564
   146   1 H        0.926     0.027     2.633     2.538
   147   1 H        0.926     0.031     2.579     2.511
   148   1 H        0.926     0.032     2.560     2.502
   149   1 H        0.925     0.047     2.361     2.403
   150   1 H        0.924     0.049     2.329     2.387
   151   1 H        0.925     0.046     2.368     2.406
   152   1 H        0.926     0.029     2.602     2.523
   153   1 H        0.926     0.026     2.647     2.544
   154   1 H        0.926     0.031     2.567     2.505
   155   1 H        0.926     0.032     2.558     2.501
   156   1 H        0.925     0.049     2.330     2.387
   157   1 H        0.925     0.042     2.417     2.431
   158   1 H        0.925     0.049     2.327     2.385
   159   1 H        0.926     0.029     2.606     2.524
   160   1 H        0.926     0.010     2.883     2.655
   161   1 H        0.926     0.089     1.892     2.151
   162   1 H        0.926     0.085     1.929     2.172
   163   1 H        0.926     0.083     1.944     2.180
   164   1 H        0.926     0.029     2.595     2.519

molecular dipole:
                 x           y           z       tot (Debye)
 q only:        0.236       1.363      -0.373
   full:        0.218       1.517      -0.314       3.977

 projected vibrational frequencies (cm⁻¹)
eigval :       -0.00    -0.00     0.00     0.00     0.00     0.00
eigval :      -36.34     6.21     9.42    11.15    12.57    14.02
eigval :       15.62    17.62    18.51    22.87    23.67    29.24
eigval :       29.92    33.36    33.46    36.06    37.98    41.44
eigval :       44.89    46.51    47.23    48.36    51.16    53.53
eigval :       56.31    58.18    60.05    61.42    64.35    68.03
eigval :       71.03    73.17    75.21    76.02    81.79    82.60
eigval :       83.69    86.80   104.06   104.31   107.58   113.55
eigval :      115.37   120.29   123.21   129.37   146.16   154.11
eigval :      158.49   167.69   171.16   173.44   175.91   181.52
eigval :      182.84   193.46   195.34   199.75   201.34   205.13
eigval :      206.55   207.61   208.93   213.80   216.23   220.90
eigval :      222.69   223.61   230.57   231.23   233.15   235.62
eigval :      236.85   244.48   254.49   264.74   269.33   278.28
eigval :      283.98   291.12   294.67   299.49   304.24   315.23
eigval :      319.03   324.07   326.25   328.50   334.14   349.56
eigval :      351.29   352.13   368.05   377.64   380.15   384.23
eigval :      392.38   401.32   408.45   412.11   413.13   413.31
eigval :      415.10   418.73   418.81   420.11   421.21   422.68
eigval :      426.87   429.68   447.50   448.82   458.77   459.42
eigval :      468.02   473.43   482.09   486.15   486.68   500.76
eigval :      502.49   504.11   505.23   505.58   506.48   511.40
eigval :      512.62   520.02   523.34   524.90   526.12   533.32
eigval :      534.86   538.07   542.16   542.54   547.50   551.07
eigval :      552.79   553.74   554.97   556.03   563.10   565.95
eigval :      575.49   579.20   579.50   587.20   592.27   607.47
eigval :      607.92   614.37   616.86   621.81   622.51   632.54
eigval :      633.02   634.36   640.66   655.10   658.67   659.70
eigval :      662.70   665.66   668.34   674.05   674.78   677.36
eigval :      679.68   686.41   701.25   703.94   704.80   706.44
eigval :      707.44   708.82   723.26   735.11   760.44   779.05
eigval :      782.39   785.40   787.33   790.00   792.08   798.00
eigval :      802.90   806.41   807.86   808.13   809.93   810.32
eigval :      813.84   815.05   818.55   819.40   820.44   841.03
eigval :      841.19   846.33   861.89   865.71   867.23   880.28
eigval :      883.69   883.80   883.99   884.34   886.70   886.84
eigval :      887.13   887.60   887.81   889.89   890.72   891.09
eigval :      898.24   898.63   903.84   908.12   910.40   914.46
eigval :      915.97   919.53   923.63   925.99   926.94   928.45
eigval :      928.75   929.52   930.20   930.72   934.13   938.75
eigval :      958.56   975.77   977.10   984.09   984.78   986.48
eigval :      987.68   988.29   988.94   992.05   998.09   998.57
eigval :     1001.28  1001.45  1014.17  1014.57  1018.85  1020.15
eigval :     1027.29  1028.55  1029.00  1031.66  1032.00  1032.19
eigval :     1032.48  1033.62  1033.70  1033.99  1037.72  1045.96
eigval :     1060.79  1079.12  1084.11  1086.73  1099.76  1106.16
eigval :     1111.12  1118.45  1125.75  1126.23  1131.87  1132.78
eigval :     1133.95  1134.14  1154.72  1157.88  1159.78  1161.31
eigval :     1165.64  1167.33  1177.25  1179.75  1184.50  1184.73
eigval :     1187.43  1187.92  1189.59  1190.27  1191.04  1200.45
eigval :     1203.45  1204.19  1204.70  1205.63  1210.01  1210.66
eigval :     1222.80  1224.88  1230.38  1234.43  1242.26  1252.28
eigval :     1254.24  1256.99  1265.72  1267.17  1268.49  1269.88
eigval :     1272.67  1272.89  1273.72  1275.76  1277.98  1283.51
eigval :     1283.90  1288.08  1292.40  1297.60  1299.67  1302.42
eigval :     1303.02  1306.52  1306.83  1308.57  1311.72  1311.84
eigval :     1319.68  1319.94  1323.78  1327.17  1327.75  1328.51
eigval :     1330.45  1331.34  1343.95  1344.13  1354.90  1356.26
eigval :     1370.41  1381.60  1399.48  1400.57  1401.03  1401.60
eigval :     1401.69  1401.73  1402.19  1402.71  1407.26  1413.44
eigval :     1420.07  1420.99  1427.29  1433.04  1433.40  1433.93
eigval :     1435.24  1436.20  1436.94  1440.22  1443.74  1448.70
eigval :     1461.68  1462.75  1466.02  1470.01  1471.45  1471.74
eigval :     1474.08  1474.65  1475.46  1476.62  1477.21  1477.53
eigval :     1478.08  1478.20  1478.27  1478.60  1479.61  1480.58
eigval :     1480.78  1481.31  1482.23  1483.31  1483.42  1484.22
eigval :     1484.59  1484.97  1485.38  1485.88  1504.88  1534.51
eigval :     1537.38  1544.34  1546.14  1558.25  1560.50  1564.61
eigval :     1565.87  1575.73  1577.29  1579.59  1581.23  1582.86
eigval :     1582.89  1583.15  1586.76  1587.19  1594.66  1594.95
eigval :     1597.49  1597.54  1600.99  1601.13  1602.15  1602.42
eigval :     2992.95  2994.33  2997.86  2999.20  2999.54  3000.74
eigval :     3001.38  3003.07  3013.23  3013.69  3016.87  3022.74
eigval :     3028.08  3028.85  3031.96  3033.83  3037.31  3037.79
eigval :     3038.45  3040.00  3042.36  3043.36  3047.39  3047.46
eigval :     3064.86  3065.13  3068.30  3068.71  3070.58  3070.95
eigval :     3073.42  3073.82  3074.03  3074.36  3075.72  3076.27
eigval :     3078.93  3079.92  3079.96  3080.28  3080.36  3080.87
eigval :     3081.45  3082.14  3082.85  3082.89  3083.14  3087.05
eigval :     3088.52  3088.75  3089.00  3090.23  3090.30  3092.02
eigval :     3092.11  3097.13  3099.91  3106.69  3109.36  3111.54
eigval :     3112.79  3117.77  3119.50  3124.61  3126.70  3138.40

   temp. (K)  partition function   enthalpy   heat capacity  entropy
                                   cal/mol     cal/K/mol   cal/K/mol   J/K/mol
 298.15  VIB  0.730E+44            52443.870    310.264    334.999
         ROT  0.585E+09              888.752      2.981     43.099
         INT  0.427E+53            53332.622    313.245    378.097
         TR   0.444E+29             1481.254      4.968     47.298
         TOT                       54813.8764   318.2133   425.3959  1779.8565

       T/K    H(0)-H(T)+PV         H(T)/Eh          T*S/Eh         G(T)/Eh
   ------------------------------------------------------------------------
    298.15    0.873515E-01    0.134929E+01    0.202119E+00    0.114718E+01
   ------------------------------------------------------------------------

         :::::::::::::::::::::::::::::::::::::::::::::::::::::
         ::                  THERMODYNAMIC                  ::
         :::::::::::::::::::::::::::::::::::::::::::::::::::::
         :: total free energy        -255.924219484234 Eh   ::
         ::.................................................::
         :: total energy             -257.071395066372 Eh   ::
         :: zero point energy           1.261943438233 Eh   ::
         :: G(RRHO) w/o ZPVE           -0.114767856095 Eh   ::
         :: G(RRHO) contrib.            1.147175582138 Eh   ::
         :::::::::::::::::::::::::::::::::::::::::::::::::::::

           -------------------------------------------------
          | TOTAL ENERGY             -257.071395066372 Eh   |
          | TOTAL ENTHALPY           -255.722100155912 Eh   |
          | TOTAL FREE ENERGY        -255.924219484234 Eh   |
          | GRADIENT NORM               0.000117178460 Eh/α |
          | HOMO-LUMO GAP               2.052648367570 eV   |
           -------------------------------------------------

 * finished run on 2025/08/22 at 00:09:35.044
