   * xtb version 6.7.1 (edcfbbe) compiled by 'albert@albert-system' on 2024-07-22

   ID    Z sym.   atoms
    1    6 C      1-6, 8-20, 22, 23, 25-28, 30-35, 37-43, 45-51, 53-59,
                  61-70, 72-88, 90, 91, 93-96, 98
    2    7 N      7, 21, 44, 60, 71, 89
    3    9 F      24, 29, 92, 97
    4    5 B      36, 52
    5    1 H      99-164

          program call               : xtb data2507/toluene/4F-m-ν-DABNA/4F-m-ν-DABNA.xyz --gfn 2 --gbsa toluene --ohess vtight --parallel 40 --molden --ceasefiles --namespace data2507/toluene/4F-m-ν-DABNA/4F-m-ν-DABNA_toluene_S0_preOpt
      * Solvation model:               GBSA
        Solvent                        toluene
        Solvent mass                       9.2140E+01 g/mol
          :  Hamiltonian                  GFN2-xTB          :
 * total energy  :  -256.9247627 Eh     change       -0.1548386E-07 Eh
 * total energy  :  -256.9967983 Eh     change       -0.7203567E-01 Eh
 * total energy  :  -257.0256172 Eh     change       -0.2881885E-01 Eh
 * total energy  :  -257.0368328 Eh     change       -0.1121559E-01 Eh
 * total energy  :  -257.0439415 Eh     change       -0.7108730E-02 Eh
 * total energy  :  -257.0486566 Eh     change       -0.4715098E-02 Eh
 * total energy  :  -257.0520978 Eh     change       -0.3441152E-02 Eh
 * total energy  :  -257.0547091 Eh     change       -0.2611293E-02 Eh
 * total energy  :  -257.0566928 Eh     change       -0.1983728E-02 Eh
 * total energy  :  -257.0581116 Eh     change       -0.1418765E-02 Eh
 * total energy  :  -257.0705447 Eh     change       -0.1404848E-06 Eh
 * total energy  :  -257.0705449 Eh     change       -0.1614895E-06 Eh
 * total energy  :  -257.0705450 Eh     change       -0.1642814E-06 Eh
 * total energy  :  -257.0705452 Eh     change       -0.1565131E-06 Eh
 * total energy  :  -257.0705453 Eh     change       -0.1212879E-06 Eh
 * total energy  :  -257.0705454 Eh     change       -0.1167176E-06 Eh
 * total energy  :  -257.0705456 Eh     change       -0.1352404E-06 Eh
 * total energy  :  -257.0705457 Eh     change       -0.1212219E-06 Eh
 * total energy  :  -257.0705458 Eh     change       -0.9821406E-07 Eh
   *** GEOMETRY OPTIMIZATION CONVERGED AFTER 205 ITERATIONS ***

 final structure:
================
164
 xtb: 6.7.1 (edcfbbe)
C           12.01373706645467        1.09367874743620        0.35244362777408
C           10.71408518695371        0.86621946818962       -0.36019136956765
C           10.69355025761624        0.21843456883300       -1.59160241833998
C            9.49416559793277       -0.00343673753357       -2.24431999402007
C            8.30143068423245        0.41484379856884       -1.68597746614023
C            8.30278598138371        1.05845137863482       -0.44995816280247
N            7.10284938702614        1.48738593775873        0.13195055641911
C            7.05814907060287        2.70620262329436        0.81885266683944
C            6.29601287606696        2.84208524807878        1.97819787134736
C            6.25354787919469        4.05698199290423        2.63537786530480
C            6.97004436766976        5.14095157139231        2.16012810448257
C            7.74499932733013        5.02042226947378        1.01036923934841
C            8.53315423178771        6.19139756794139        0.50430053283797
C            7.77673047514379        3.80479046698523        0.34740210029273
C            5.95423490150135        0.69528746715014        0.03392101833927
C            6.05944765515544       -0.68853664795280        0.06174126260002
C            4.91721957328695       -1.47855037333567       -0.05970324317092
C            3.64057115563560       -0.88662616885813       -0.16019893527483
C            3.55978811947891        0.52045767867033       -0.15593594695737
C            4.70654925097220        1.30182549925397       -0.09144357327219
N            2.31487914536477        1.12638074064369       -0.24307232619226
C            2.28600289586592        2.54305624538500       -0.30840218411478
C            2.24872519845962        3.21660566388421       -1.52740038315821
F            2.22053598561370        2.48995497515681       -2.66365249999661
C            2.23913422163572        4.59689903615188       -1.61151406191853
C            2.27081446389197        5.34324002508718       -0.44618761859979
C            2.30537338118667        4.71569696440771        0.78740313688740
C            2.31155092272791        3.33464629921852        0.83929528949653
F            2.34750374003788        2.72351484669315        2.04070501815495
C            1.10771742673032        0.44621341588686       -0.17120369203767
C           -0.07487341364479        1.17900930783332       -0.13771378573857
C           -1.31347285159861        0.55985968387298        0.00097362417858
C           -1.38722487033645       -0.84037946852769        0.18512916024236
C           -0.18715439471373       -1.53738714251639        0.07248387651432
C            1.06530293761837       -0.96703131648808       -0.13789842541733
B            2.39260916815719       -1.74259860271924       -0.27496398485496
C            2.66009126580821       -3.24787928389454       -0.48063964160435
C            1.69741251899597       -4.20123224604618       -0.84118420597160
C            1.97813565964088       -5.54296392331720       -0.94374537949160
C            3.26752408089702       -6.00960064387479       -0.68233417170004
C            3.57094627310892       -7.47576801530995       -0.75474738234762
C            4.25105996650544       -5.09331127309674       -0.37665626706885
C            3.98024057371321       -3.71939187283137       -0.30129519606929
N            5.03092178500354       -2.85169527603925       -0.05867172525865
C            6.33484147204990       -3.40049576638176        0.14369670542139
C            6.78635010154153       -3.64618437102431        1.43225909863329
C            8.05669177889426       -4.16532621022053        1.61885036632824
C            8.86582307750643       -4.43650816458489        0.53085665224360
C            8.42304661946850       -4.19448632810647       -0.76642441512970
C            9.30700203247132       -4.50328097253001       -1.93582816254625
C            7.15048681265243       -3.67274031639037       -0.94750917273850
B           -2.77140241148101       -1.47321152277458        0.44008545875804
C           -3.15810343748406       -2.90102917032046        0.87771845137414
C           -2.27283383408196       -3.86142357410958        1.38720550591759
C           -2.66128893829464       -5.14268267907701        1.69841526590934
C           -3.98597435408314       -5.53844112284061        1.50536933112112
C           -4.40651362467221       -6.94491131008514        1.80866167033791
C           -4.89426427564368       -4.60481038247089        1.05407442760178
C           -4.51365372715796       -3.28567173997111        0.76846407869497
N           -5.49276580756999       -2.38212005618584        0.39302600991729
C           -6.83149567801535       -2.85408643510802        0.22740385378539
C           -7.27518103006757       -3.22458656663314       -1.03381235739546
C           -8.57678436254359       -3.67021383476856       -1.19219802806599
C           -9.42521486314533       -3.74474988994041       -0.10306554175981
C           -8.99077760421892       -3.37692694704579        1.16718712411243
C           -9.92260970578896       -3.46271477279966        2.33694573420039
C           -7.68650346250032       -2.92944920376298        1.31977961745464
C           -5.26918580387979       -1.03677517617277        0.19691077228554
C           -6.34670436027899       -0.17936317713607       -0.02133508594859
C           -6.12725055203715        1.17848162307328       -0.20617403721589
N           -7.21352842902517        2.03982608505838       -0.40030482018282
C           -8.40032769672559        1.82955050556158        0.31397948273557
C           -9.63885671250006        2.01247482474968       -0.29857199760028
C          -10.79879168198604        1.80338096278834        0.42239509551617
C          -10.74323422898765        1.41154647656687        1.74880223204000
C           -9.51578973508253        1.22582165373839        2.37590284784284
C           -9.44648862153434        0.85142872586894        3.82631530564786
C           -8.35414821216875        1.43658890018673        1.65019376574465
C           -7.11013294494347        3.11296220634549       -1.29056408504797
C           -7.73376363729633        4.32929887200128       -1.01187375981936
C           -7.61582517034059        5.38216247397791       -1.89813112758146
C           -6.87363891439180        5.24781916046936       -3.05917695255189
C           -6.24462189593669        4.04305995961896       -3.35308408774162
C           -5.46274948922650        3.87222511939456       -4.62138066412387
C           -6.37492477710250        2.98429525179638       -2.46812763920289
C           -4.83196652962973        1.68980373460567       -0.19702425044008
C           -3.75158971656704        0.83428531637526       -0.02050556196295
C           -3.94721529494027       -0.54413432210717        0.19904861564288
N           -2.46017172777118        1.34025585272666       -0.03476748806822
C           -2.31480758877700        2.74454089241994       -0.17224556369823
C           -2.27804559532926        3.36407453758843       -1.42075021377358
F           -2.37124690734737        2.59330438940768       -2.52344743476763
C           -2.15642204191178        4.73309967041726       -1.56571489244496
C           -2.06695532209630        5.52480283481213       -0.43344880800502
C           -2.09605940387707        4.95208787603654        0.82635101606519
C           -2.21943569281387        3.57943793765413        0.93908457994917
F           -2.25061237200993        3.02229038350514        2.16727187100387
C            9.51616298859789        1.27585276255060        0.20156679017428
H           11.88288852255787        1.76766301310799        1.19534391294920
H           12.40668063441892        0.14746101386430        0.72506956354074
H           12.75240986690825        1.51649588449379       -0.32648458257938
H           11.62140339396015       -0.10782213869358       -2.03853548713324
H            9.48689821729206       -0.49818266986072       -3.20490621367271
H            7.36623353589093        0.25067127123690       -2.20076740447285
H            5.74050657085000        1.99608482910377        2.35560848310427
H            5.65815010332827        4.15305104598114        3.53221512663734
H            6.93309882371257        6.08532612490667        2.68334432818102
H            9.36343650235477        6.40113307745059        1.17892993719441
H            8.93615761764522        5.99133479535140       -0.48523409900385
H            7.90899126107761        7.08217787076883        0.45871792408756
H            8.36423987488852        3.69757381553009       -0.55363199706960
H            7.03456733953285       -1.13600458370987        0.16766886149867
H            4.65776414314788        2.37956880130830       -0.12454892394610
H            2.21115103593445        5.06428229577061       -2.58258544568675
H            2.26785260614538        6.41955887844608       -0.49884422026684
H            2.33179125738433        5.27635005571864        1.70762882322039
H           -0.02963296815221        2.25580408638816       -0.22015945335979
H           -0.23181561795357       -2.60873970462403        0.15513068768794
H            0.69804927475521       -3.86480140520398       -1.06900697008935
H            1.20192758534637       -6.24199621478070       -1.22269549177208
H            2.98679957810442       -8.01749306688436       -0.01087020020259
H            3.30563058807461       -7.86996162481193       -1.73532001888063
H            4.62632609697488       -7.66600207914739       -0.57450800010222
H            5.25599043490434       -5.44841340927074       -0.20151622538235
H            6.14389630861145       -3.42899244795885        2.27267061499105
H            8.41446790190120       -4.35851080988101        2.61956504991789
H            9.85536355750740       -4.84181870004282        0.68493723855710
H            9.50175198796531       -5.57426786624348       -1.98689608700695
H           10.26468146865830       -3.99594919978111       -1.83041617810293
H            8.84402269481378       -4.18985916492591       -2.86764052774082
H            6.77758931939825       -3.47303510476665       -1.94204779934492
H           -1.24736484780313       -3.57630770166123        1.56339562892081
H           -1.94291131565327       -5.85050407697277        2.08793948376887
H           -5.46147231419840       -7.09324343327876        1.59063281047794
H           -4.23090178615594       -7.17363237270360        2.85974481230457
H           -3.82376887316348       -7.64867409216079        1.21489873294423
H           -5.92577892371116       -4.90042820482892        0.93071317199198
H           -6.60211447529377       -3.16167213598057       -1.87592098968327
H           -8.92794074749260       -3.96089007188749       -2.17142395506747
H          -10.43915255575657       -4.09377757281102       -0.23484992424895
H          -10.74387971814492       -2.75784773633474        2.21186147232241
H           -9.40561933790921       -3.23516198412922        3.26509577762944
H          -10.35061305798914       -4.46150935457192        2.40889139665976
H           -7.31817903067701       -2.63836265204718        2.29303074848541
H           -7.35864142782328       -0.55131075446508       -0.04009980706390
H           -9.68264447793362        2.31441807718521       -1.33482706589831
H          -11.75655259097772        1.94155047467721       -0.05869288848156
H          -11.65712578595097        1.25182000932504        2.30234859452446
H          -10.29803759466799        0.23811658936660        4.11112653740748
H           -8.52753934130478        0.31337398828143        4.04567052666038
H           -9.46268008373854        1.75293725716708        4.44048765981336
H           -7.39158166776121        1.30108916235912        2.12316765210052
H           -8.30311135259296        4.44114333166443       -0.10077918649725
H           -8.09992031698281        6.32206158115666       -1.67444063769610
H           -6.78379773292880        6.08026072791877       -3.74167769183606
H           -5.07842624289357        4.82729160476627       -4.97180116081375
H           -6.10517832117538        3.46036675862029       -5.40071208489736
H           -4.63271363059052        3.18444429830573       -4.47454246422067
H           -5.89692998114814        2.04045950809692       -2.68998502032924
H           -4.69618913201414        2.75158816876317       -0.33572722702039
H           -2.13627980363432        5.15834851257765       -2.55583320761078
H           -1.97431789421727        6.59371651940253       -0.53375564463818
H           -2.02825554333864        5.54900392916311        1.72143388012915
H            9.51299455198532        1.77211050310992        1.16199335557629

          :  Hamiltonian                  GFN2-xTB          :
         :: gradient norm              0.000054023431 Eh/a0 ::
         :: HOMO-LUMO gap              2.026883812928 eV    ::
         :: SCC energy              -261.421844742656 Eh    ::
         :: -> dispersion             -0.249953993030 Eh    ::
         :: -> Gsolv                  -0.101662234452 Eh    ::
         :: repulsion energy           4.351298948363 Eh    ::

    * Orbital Energies and Occupations

         #    Occupation            Energy/Eh            Energy/eV
      -------------------------------------------------------------
         1        2.0000           -0.8371549             -22.7801
       ...           ...                  ...                  ...
       225        2.0000           -0.3904204             -10.6239
       226        2.0000           -0.3863808             -10.5140
       227        2.0000           -0.3826740             -10.4131
       228        2.0000           -0.3824628             -10.4073
       229        2.0000           -0.3774468             -10.2708
       230        2.0000           -0.3744456             -10.1892
       231        2.0000           -0.3684082             -10.0249
       232        2.0000           -0.3639193              -9.9027
       233        2.0000           -0.3567758              -9.7084
       234        2.0000           -0.3467523              -9.4356
       235        2.0000           -0.3435790              -9.3493
       236        2.0000           -0.3424053              -9.3173
       237        2.0000           -0.3374304              -9.1819 (HOMO)
       238                         -0.2629438              -7.1551 (LUMO)
       239                         -0.2628625              -7.1529
       240                         -0.2575755              -7.0090
       241                         -0.2571381              -6.9971
       242                         -0.2551590              -6.9432
       243                         -0.2428168              -6.6074
       244                         -0.2280157              -6.2046
       245                         -0.2278441              -6.2000
       246                         -0.2251270              -6.1260
       247                         -0.2249334              -6.1208
       248                         -0.2248910              -6.1196
       ...                                ...                  ...
       458                          0.7333816              19.9563
      -------------------------------------------------------------
                  HL-Gap            0.0744866 Eh            2.0269 eV

     #   Z          covCN         q      C6AA      α(0)
     1   6 C        3.758    -0.110    22.652     6.785
     2   6 C        2.965     0.017    27.636     8.623
     3   6 C        2.924    -0.051    29.266     8.872
     4   6 C        2.918    -0.033    28.828     8.805
     5   6 C        2.922    -0.053    29.323     8.880
     6   6 C        2.922     0.066    26.532     8.447
     7   7 N        2.754    -0.087    22.930     7.112
     8   6 C        2.922     0.065    26.543     8.449
     9   6 C        2.922    -0.054    29.349     8.884
    10   6 C        2.918    -0.035    28.860     8.810
    11   6 C        2.924    -0.052    29.298     8.876
    12   6 C        2.965     0.016    27.645     8.624
    13   6 C        3.758    -0.110    22.664     6.787
    14   6 C        2.928    -0.060    29.490     8.906
    15   6 C        2.923     0.067    26.493     8.441
    16   6 C        2.922    -0.090    30.266     9.022
    17   6 C        2.927     0.063    26.598     8.458
    18   6 C        2.897    -0.111    30.809     9.101
    19   6 C        2.926     0.064    26.558     8.451
    20   6 C        2.922    -0.090    30.261     9.021
    21   7 N        2.754    -0.054    22.294     7.013
    22   6 C        2.926     0.046    26.975     8.517
    23   6 C        2.791     0.158    24.575     8.120
    24   9 F        0.787    -0.222    11.461     3.999
    25   6 C        2.915    -0.054    29.347     8.883
    26   6 C        2.927    -0.028    28.689     8.784
    27   6 C        2.915    -0.054    29.341     8.882
    28   6 C        2.791     0.159    24.553     8.117
    29   9 F        0.787    -0.221    11.450     3.997
    30   6 C        2.928     0.065    26.546     8.450
    31   6 C        2.922    -0.085    30.126     9.001
    32   6 C        2.928     0.065    26.550     8.450
    33   6 C        2.884    -0.095    30.377     9.036
    34   6 C        2.931    -0.039    28.979     8.828
    35   6 C        2.884    -0.095    30.375     9.035
    36   5 B        2.724     0.188    18.550     7.217
    37   6 C        2.887    -0.090    30.253     9.018
    38   6 C        2.922    -0.038    28.938     8.822
    39   6 C        2.919    -0.055    29.364     8.886
    40   6 C        2.965     0.014    27.691     8.632
    41   6 C        3.758    -0.108    22.613     6.780
    42   6 C        2.926    -0.068    29.701     8.937
    43   6 C        2.925     0.059    26.674     8.470
    44   7 N        2.756    -0.057    22.350     7.022
    45   6 C        2.932     0.068    26.489     8.441
    46   6 C        2.921    -0.044    29.094     8.845
    47   6 C        2.918    -0.031    28.768     8.796
    48   6 C        2.925    -0.043    29.056     8.840
    49   6 C        2.966     0.022    27.523     8.605
    50   6 C        3.758    -0.112    22.691     6.791
    51   6 C        2.927    -0.048    29.184     8.859
    52   5 B        2.724     0.189    18.548     7.217
    53   6 C        2.887    -0.090    30.252     9.017
    54   6 C        2.922    -0.038    28.937     8.822
    55   6 C        2.919    -0.055    29.363     8.886
    56   6 C        2.965     0.014    27.691     8.631
    57   6 C        3.758    -0.108    22.614     6.780
    58   6 C        2.926    -0.068    29.702     8.938
    59   6 C        2.925     0.059    26.675     8.470
    60   7 N        2.756    -0.057    22.345     7.021
    61   6 C        2.932     0.067    26.495     8.442
    62   6 C        2.922    -0.044    29.094     8.845
    63   6 C        2.918    -0.031    28.767     8.795
    64   6 C        2.925    -0.043    29.056     8.840
    65   6 C        2.966     0.022    27.522     8.605
    66   6 C        3.758    -0.112    22.695     6.792
    67   6 C        2.926    -0.048    29.185     8.859
    68   6 C        2.927     0.063    26.596     8.457
    69   6 C        2.922    -0.089    30.242     9.018
    70   6 C        2.924     0.068    26.485     8.440
    71   7 N        2.754    -0.087    22.945     7.114
    72   6 C        2.923     0.066    26.529     8.447
    73   6 C        2.922    -0.054    29.332     8.882
    74   6 C        2.918    -0.034    28.841     8.807
    75   6 C        2.924    -0.051    29.260     8.871
    76   6 C        2.965     0.017    27.622     8.621
    77   6 C        3.758    -0.109    22.643     6.784
    78   6 C        2.928    -0.058    29.443     8.899
    79   6 C        2.921     0.065    26.545     8.449
    80   6 C        2.922    -0.056    29.390     8.890
    81   6 C        2.918    -0.035    28.859     8.809
    82   6 C        2.924    -0.052    29.303     8.877
    83   6 C        2.965     0.015    27.667     8.628
    84   6 C        3.758    -0.110    22.650     6.785
    85   6 C        2.929    -0.060    29.493     8.906
    86   6 C        2.921    -0.089    30.245     9.019
    87   6 C        2.926     0.064    26.556     8.451
    88   6 C        2.897    -0.111    30.803     9.100
    89   7 N        2.754    -0.054    22.284     7.011
    90   6 C        2.926     0.046    26.979     8.518
    91   6 C        2.791     0.159    24.551     8.117
    92   9 F        0.787    -0.220    11.449     3.997
    93   6 C        2.915    -0.054    29.338     8.882
    94   6 C        2.927    -0.028    28.690     8.784
    95   6 C        2.915    -0.054    29.346     8.883
    96   6 C        2.791     0.158    24.575     8.121
    97   9 F        0.787    -0.222    11.464     3.999
    98   6 C        2.928    -0.058    29.454     8.900
    99   1 H        0.925     0.043     2.411     2.428
   100   1 H        0.924     0.050     2.323     2.384
   101   1 H        0.925     0.048     2.339     2.392
   102   1 H        0.926     0.032     2.561     2.503
   103   1 H        0.926     0.031     2.570     2.507
   104   1 H        0.926     0.026     2.642     2.542
   105   1 H        0.926     0.025     2.655     2.548
   106   1 H        0.926     0.029     2.601     2.522
   107   1 H        0.926     0.032     2.555     2.500
   108   1 H        0.925     0.051     2.313     2.378
   109   1 H        0.925     0.043     2.403     2.424
   110   1 H        0.925     0.049     2.332     2.388
   111   1 H        0.926     0.030     2.591     2.517
   112   1 H        0.926     0.023     2.694     2.566
   113   1 H        0.926     0.009     2.899     2.662
   114   1 H        0.926     0.087     1.911     2.162
   115   1 H        0.926     0.087     1.912     2.162
   116   1 H        0.926     0.086     1.919     2.166
   117   1 H        0.926    -0.007     3.175     2.787
   118   1 H        0.926     0.042     2.418     2.432
   119   1 H        0.926     0.031     2.574     2.509
   120   1 H        0.926     0.020     2.728     2.583
   121   1 H        0.925     0.046     2.376     2.410
   122   1 H        0.925     0.045     2.379     2.412
   123   1 H        0.925     0.039     2.464     2.455
   124   1 H        0.926     0.021     2.712     2.575
   125   1 H        0.926     0.037     2.492     2.468
   126   1 H        0.926     0.039     2.459     2.452
   127   1 H        0.926     0.041     2.430     2.438
   128   1 H        0.925     0.055     2.261     2.351
   129   1 H        0.925     0.054     2.273     2.358
   130   1 H        0.925     0.047     2.356     2.400
   131   1 H        0.926     0.039     2.457     2.451
   132   1 H        0.926     0.031     2.577     2.510
   133   1 H        0.926     0.020     2.729     2.583
   134   1 H        0.925     0.039     2.462     2.454
   135   1 H        0.925     0.046     2.374     2.410
   136   1 H        0.925     0.045     2.380     2.413
   137   1 H        0.926     0.022     2.706     2.572
   138   1 H        0.926     0.036     2.497     2.471
   139   1 H        0.926     0.039     2.464     2.455
   140   1 H        0.926     0.041     2.434     2.440
   141   1 H        0.925     0.055     2.262     2.352
   142   1 H        0.925     0.049     2.338     2.391
   143   1 H        0.925     0.053     2.278     2.360
   144   1 H        0.926     0.040     2.446     2.446
   145   1 H        0.926     0.023     2.690     2.565
   146   1 H        0.926     0.026     2.639     2.540
   147   1 H        0.926     0.030     2.586     2.515
   148   1 H        0.926     0.031     2.565     2.505
   149   1 H        0.925     0.048     2.343     2.394
   150   1 H        0.925     0.044     2.391     2.418
   151   1 H        0.924     0.049     2.327     2.386
   152   1 H        0.926     0.029     2.605     2.524
   153   1 H        0.926     0.026     2.643     2.542
   154   1 H        0.926     0.030     2.584     2.514
   155   1 H        0.926     0.031     2.572     2.508
   156   1 H        0.925     0.046     2.374     2.409
   157   1 H        0.924     0.049     2.332     2.388
   158   1 H        0.925     0.046     2.374     2.409
   159   1 H        0.926     0.028     2.615     2.529
   160   1 H        0.926     0.010     2.888     2.658
   161   1 H        0.926     0.087     1.905     2.159
   162   1 H        0.926     0.086     1.914     2.164
   163   1 H        0.926     0.086     1.917     2.165
   164   1 H        0.926     0.029     2.602     2.522

molecular dipole:
                 x           y           z       tot (Debye)
 q only:        0.604       1.445      -0.011
   full:        0.584       1.627      -0.014       4.392

 projected vibrational frequencies (cm⁻¹)
eigval :       -0.00    -0.00     0.00     0.00     0.00     0.00
eigval :      -38.43     3.99     5.35    10.82    11.57    13.72
eigval :       14.44    16.26    17.49    18.28    19.87    22.34
eigval :       24.77    28.06    29.84    32.48    33.81    34.39
eigval :       38.29    41.84    43.90    46.01    49.06    52.86
eigval :       56.62    58.48    61.26    64.01    68.03    68.38
eigval :       69.91    73.00    77.18    81.72    82.68    87.97
eigval :       89.70    90.59   105.37   110.97   112.46   116.06
eigval :      119.89   126.67   127.55   140.04   143.60   152.06
eigval :      156.69   162.17   169.15   176.14   177.57   180.47
eigval :      184.73   189.32   197.72   199.74   201.15   203.32
eigval :      204.93   207.04   210.21   214.45   217.11   218.30
eigval :      219.87   223.23   229.33   230.03   235.17   236.51
eigval :      238.38   241.75   244.29   263.50   266.14   286.80
eigval :      287.75   292.27   293.54   293.68   296.67   313.26
eigval :      315.23   322.46   326.35   328.36   333.76   347.23
eigval :      349.76   353.98   368.52   376.91   379.71   384.03
eigval :      392.46   402.06   408.07   410.13   411.57   413.17
eigval :      414.90   415.43   417.40   420.63   420.75   424.07
eigval :      427.25   428.37   445.85   450.19   454.98   459.50
eigval :      472.03   472.39   481.28   485.13   485.82   499.21
eigval :      502.40   502.91   504.20   505.14   505.24   510.26
eigval :      512.70   518.79   519.71   524.13   529.49   533.93
eigval :      534.33   540.16   542.31   544.78   548.20   550.95
eigval :      552.77   553.98   556.14   557.05   562.83   568.31
eigval :      572.86   577.83   582.67   584.99   586.20   605.93
eigval :      607.90   617.48   617.65   621.17   622.28   627.06
eigval :      632.20   636.45   640.39   654.19   655.77   660.11
eigval :      663.42   665.87   668.52   673.48   674.63   677.66
eigval :      679.93   686.34   702.96   703.77   706.89   707.23
eigval :      707.96   708.84   724.08   735.54   763.04   772.55
eigval :      780.30   786.68   786.99   788.25   792.55   795.27
eigval :      802.94   806.67   807.51   808.74   809.56   810.94
eigval :      812.55   814.53   817.50   818.77   821.85   839.82
eigval :      840.41   847.93   862.95   865.38   867.33   881.84
eigval :      882.32   883.77   884.65   885.51   885.73   886.34
eigval :      887.75   888.28   888.52   888.85   889.23   892.19
eigval :      893.43   899.62   903.96   908.30   910.51   915.58
eigval :      918.20   919.01   923.57   923.90   925.38   926.57
eigval :      927.32   928.72   929.21   930.18   931.28   938.38
eigval :      957.87   976.22   978.64   982.54   984.47   986.48
eigval :      987.06   987.77   988.65   991.49   997.29   998.09
eigval :      999.51  1002.17  1014.07  1015.72  1017.73  1018.87
eigval :     1025.35  1026.91  1030.42  1031.12  1031.75  1031.91
eigval :     1032.14  1032.55  1034.13  1034.82  1036.88  1052.57
eigval :     1058.66  1075.90  1082.41  1086.14  1099.16  1105.75
eigval :     1110.89  1117.83  1122.86  1125.31  1129.09  1131.55
eigval :     1131.63  1133.67  1153.69  1158.14  1159.34  1160.15
eigval :     1165.01  1165.48  1176.53  1177.86  1183.60  1183.74
eigval :     1185.12  1186.56  1187.48  1190.13  1190.90  1200.69
eigval :     1202.81  1203.76  1204.18  1205.25  1208.58  1209.67
eigval :     1221.24  1225.13  1230.89  1235.25  1242.17  1251.62
eigval :     1254.07  1256.22  1264.82  1265.85  1267.33  1269.23
eigval :     1271.43  1271.83  1272.78  1273.58  1277.68  1283.86
eigval :     1284.47  1288.03  1291.69  1297.54  1299.62  1299.83
eigval :     1302.88  1305.75  1306.26  1307.85  1312.35  1312.56
eigval :     1317.28  1320.00  1323.82  1324.83  1328.41  1328.48
eigval :     1329.19  1330.85  1343.49  1343.84  1354.70  1355.42
eigval :     1371.18  1383.15  1400.65  1400.71  1400.82  1401.08
eigval :     1401.53  1401.92  1402.05  1402.27  1407.31  1413.32
eigval :     1419.78  1420.73  1428.46  1432.87  1433.01  1433.51
eigval :     1435.66  1436.01  1436.61  1439.71  1443.45  1447.62
eigval :     1460.78  1462.78  1466.81  1470.41  1471.69  1472.15
eigval :     1472.44  1474.02  1474.36  1475.76  1476.40  1477.02
eigval :     1477.37  1477.55  1477.74  1478.06  1478.95  1480.68
eigval :     1481.92  1482.77  1483.06  1483.32  1483.82  1484.06
eigval :     1484.49  1485.60  1486.96  1487.51  1505.60  1534.46
eigval :     1537.48  1544.11  1545.97  1558.00  1564.53  1566.19
eigval :     1566.62  1575.32  1576.95  1579.19  1582.18  1582.51
eigval :     1582.72  1583.30  1588.08  1588.18  1592.07  1595.02
eigval :     1597.54  1597.64  1600.85  1601.40  1601.99  1602.27
eigval :     2990.91  2992.27  2998.71  2999.04  2999.05  3000.31
eigval :     3005.27  3007.79  3013.12  3013.24  3020.94  3021.39
eigval :     3022.19  3022.35  3034.24  3036.29  3036.39  3036.70
eigval :     3037.20  3038.63  3041.65  3043.45  3048.67  3049.92
eigval :     3063.22  3064.22  3067.31  3068.55  3068.91  3069.38
eigval :     3069.92  3072.96  3073.55  3074.17  3074.80  3074.94
eigval :     3075.62  3078.13  3078.56  3079.27  3079.36  3079.51
eigval :     3080.87  3081.94  3082.49  3083.15  3083.18  3087.32
eigval :     3088.12  3088.57  3088.66  3090.19  3090.52  3092.03
eigval :     3092.78  3096.83  3098.21  3105.63  3110.76  3110.90
eigval :     3111.37  3116.33  3117.79  3123.63  3124.72  3142.54

   temp. (K)  partition function   enthalpy   heat capacity  entropy
                                   cal/mol     cal/K/mol   cal/K/mol   J/K/mol
 298.15  VIB  0.111E+46            52516.457    309.660    336.344
         ROT  0.579E+09              888.752      2.981     43.079
         INT  0.641E+54            53405.210    312.641    379.423
         TR   0.444E+29             1481.254      4.968     47.298
         TOT                       54886.4637   317.6087   426.7210  1785.4008

       T/K    H(0)-H(T)+PV         H(T)/Eh          T*S/Eh         G(T)/Eh
   ------------------------------------------------------------------------
    298.15    0.874671E-01    0.134899E+01    0.202749E+00    0.114625E+01
   ------------------------------------------------------------------------

         :::::::::::::::::::::::::::::::::::::::::::::::::::::
         ::                  THERMODYNAMIC                  ::
         :::::::::::::::::::::::::::::::::::::::::::::::::::::
         :: total free energy        -255.924300405986 Eh   ::
         ::.................................................::
         :: total energy             -257.070545789294 Eh   ::
         :: zero point energy           1.261527165239 Eh   ::
         :: G(RRHO) w/o ZPVE           -0.115281781931 Eh   ::
         :: G(RRHO) contrib.            1.146245383308 Eh   ::
         :::::::::::::::::::::::::::::::::::::::::::::::::::::

           -------------------------------------------------
          | TOTAL ENERGY             -257.070545789294 Eh   |
          | TOTAL ENTHALPY           -255.721551476647 Eh   |
          | TOTAL FREE ENERGY        -255.924300405986 Eh   |
          | GRADIENT NORM               0.000054007215 Eh/α |
          | HOMO-LUMO GAP               2.026884102420 eV   |
           -------------------------------------------------

 * finished run on 2025/08/21 at 23:30:21.966
