   * xtb version 6.7.1 (edcfbbe) compiled by 'albert@albert-system' on 2024-07-22

   ID    Z sym.   atoms
    1    6 C      1-12, 14-28, 32-34
    2    7 N      13, 29, 30
    3   16 S      31
    4    1 H      35-53

          program call               : xtb data2507/toluene/CPBzFC/CPBzFC.xyz --gfn 2 --gbsa toluene --ohess vtight --parallel 40 --molden --ceasefiles --namespace data2507/toluene/CPBzFC/CPBzFC_toluene_S0_preOpt
      * Solvation model:               GBSA
        Solvent                        toluene
        Solvent mass                       9.2140E+01 g/mol
          :  Hamiltonian                  GFN2-xTB          :
 * total energy  :   -85.9764189 Eh     change       -0.2004967E-08 Eh
 * total energy  :   -85.9909633 Eh     change       -0.1454444E-01 Eh
 * total energy  :   -85.9936553 Eh     change       -0.2692034E-02 Eh
 * total energy  :   -85.9940438 Eh     change       -0.3884619E-03 Eh
 * total energy  :   -85.9946259 Eh     change       -0.5821339E-03 Eh
 * total energy  :   -85.9948297 Eh     change       -0.2037211E-03 Eh
 * total energy  :   -85.9950198 Eh     change       -0.1901791E-03 Eh
 * total energy  :   -85.9952032 Eh     change       -0.1834088E-03 Eh
 * total energy  :   -85.9953622 Eh     change       -0.1589228E-03 Eh
 * total energy  :   -85.9955234 Eh     change       -0.1612657E-03 Eh
 * total energy  :   -85.9974669 Eh     change       -0.1932113E-05 Eh
 * total energy  :   -85.9974681 Eh     change       -0.1148508E-05 Eh
 * total energy  :   -85.9974687 Eh     change       -0.6095426E-06 Eh
 * total energy  :   -85.9974691 Eh     change       -0.4300627E-06 Eh
 * total energy  :   -85.9974695 Eh     change       -0.4040531E-06 Eh
 * total energy  :   -85.9974699 Eh     change       -0.3920391E-06 Eh
 * total energy  :   -85.9974703 Eh     change       -0.3281359E-06 Eh
 * total energy  :   -85.9974705 Eh     change       -0.2141828E-06 Eh
 * total energy  :   -85.9974705 Eh     change       -0.2155957E-07 Eh
   *** GEOMETRY OPTIMIZATION CONVERGED AFTER 58 ITERATIONS ***

 final structure:
================
53
 xtb: 6.7.1 (edcfbbe)
C            9.11505301542439        0.02304030520029       -0.23684402436013
C            8.45652984357084       -0.82452768741881        0.63873814861999
C            7.07477235216088       -0.83610509900817        0.68878446651514
C            6.33076784870244       -0.00269847191437       -0.14322490243950
C            4.86233501739163       -0.01180660006310       -0.10247638261453
C            4.09892094721191        0.02047944384846       -1.26206871636883
C            2.70754337206460        0.01281629143303       -1.24090336981859
C            1.98187495515449       -0.00918119271978       -0.05957947841043
C            0.51744717032205       -0.00867420037944       -0.04699200078772
C           -0.19773098627994       -0.70668346429995       -1.02114630415800
C           -1.57750807879859       -0.70617111256290       -1.02289124382990
C           -2.27853170376097       -0.00287785522890       -0.04629252253108
N           -3.68031228507837        0.00075961700546       -0.04667990072387
C           -4.49212104323724       -1.11547134742609       -0.10196497108318
C           -4.14710486681857       -2.45978801139326       -0.11771844417539
C           -5.17002938134986       -3.38862579764907       -0.14521327133503
C           -6.50781861515604       -2.99814515180258       -0.14857802654827
C           -6.85754575293405       -1.66290562387044       -0.10936696296145
C           -5.84687426829538       -0.71025976897371       -0.08060066185962
C           -5.84258207046339        0.72479703679779       -0.01462597062180
C           -6.84749539774553        1.68358464271706        0.01235366590627
C           -6.48967719369195        3.01664814628862        0.05244817737530
C           -5.14950262838124        3.39894371666629        0.05270497718816
C           -4.13220455151919        2.46389598853290        0.02711612647895
C           -4.48544220706442        1.12174393905180        0.00952421910906
C           -1.57263801536353        0.69398899558000        0.93132414777422
C           -0.19288416689114        0.68901464525188        0.92992538008048
C            2.73163583479184       -0.02870239630694        1.13290070241392
N            2.25373777496694       -0.05010171750264        2.40111854491539
N            3.11876780322749       -0.06522001192998        3.29623698949615
S            4.70003771968448       -0.06491974492508        2.73816834433884
C            4.15003522700965       -0.04477757224844        1.09724072351515
C            7.00183619550060        0.84221158071002       -1.02541938874251
C            8.38365611878267        0.85648712407315       -1.06754284153635
H           10.19442006639176        0.03397964820823       -0.27141932653465
H            9.02045468340279       -1.48073851149403        1.28544219881400
H            6.56871811502602       -1.51280818811760        1.36224627525493
H            4.60643122099826        0.03564566912276       -2.21495760036067
H            2.17721130534472        0.04891323411702       -2.18033028510927
H            0.33147555929002       -1.27181491543760       -1.77373116263268
H           -2.12096733811387       -1.24162561462877       -1.78713755791873
H           -3.11416788699434       -2.77319916157428       -0.09752410924202
H           -4.92712280222147       -4.44131715429446       -0.15993082403279
H           -7.27864895732220       -3.75460608401936       -0.17241491714855
H           -7.89433543432990       -1.36110472928072       -0.09534172245953
H           -7.88606731402925        1.38808151705834       -0.00308214445494
H           -7.25590293530697        3.77780247622228        0.07521337742520
H           -4.90022899346611        4.45011183943677        0.06947907701817
H           -3.09724434398221        2.77084972365343        0.01250420072329
H           -2.11230844608863        1.22607530997165        1.70034608309293
H            0.34375000872977        1.22758087176454        1.69489058383471
H            6.43535307209018        1.50532793913063       -1.66295930780522
H            8.89223343744417        1.52207748462908       -1.74974606728680

          :  Hamiltonian                  GFN2-xTB          :
         :: gradient norm              0.000112535921 Eh/a0 ::
         :: HOMO-LUMO gap              1.738620638016 eV    ::
         :: SCC energy               -87.533372947207 Eh    ::
         :: -> dispersion             -0.072839823946 Eh    ::
         :: -> Gsolv                  -0.036927004579 Eh    ::
         :: repulsion energy           1.535902449504 Eh    ::

    * Orbital Energies and Occupations

         #    Occupation            Energy/Eh            Energy/eV
      -------------------------------------------------------------
         1        2.0000           -0.7490349             -20.3823
       ...           ...                  ...                  ...
        68        2.0000           -0.4241163             -11.5408
        69        2.0000           -0.4220735             -11.4852
        70        2.0000           -0.4183576             -11.3841
        71        2.0000           -0.4182678             -11.3816
        72        2.0000           -0.4171248             -11.3505
        73        2.0000           -0.4145734             -11.2811
        74        2.0000           -0.4126136             -11.2278
        75        2.0000           -0.4116942             -11.2028
        76        2.0000           -0.4047532             -11.0139
        77        2.0000           -0.3881199             -10.5613
        78        2.0000           -0.3874915             -10.5442
        79        2.0000           -0.3781800             -10.2908
        80        2.0000           -0.3618583              -9.8467 (HOMO)
        81                         -0.2979651              -8.1080 (LUMO)
        82                         -0.2641231              -7.1872
        83                         -0.2450376              -6.6678
        84                         -0.2352895              -6.4026
        85                         -0.2329519              -6.3389
        86                         -0.2320690              -6.3149
        87                         -0.2264353              -6.1616
        88                         -0.2215414              -6.0284
        89                         -0.2190360              -5.9603
        90                         -0.2011003              -5.4722
        91                         -0.1882805              -5.1234
       ...                                ...                  ...
       160                          0.7447490              20.2657
      -------------------------------------------------------------
                  HL-Gap            0.0638932 Eh            1.7386 eV

     #   Z          covCN         q      C6AA      α(0)
     1   6 C        2.920    -0.028    28.710     8.787
     2   6 C        2.918    -0.028    28.698     8.785
     3   6 C        2.924    -0.033    28.813     8.803
     4   6 C        2.976     0.010    27.800     8.649
     5   6 C        2.980    -0.001    28.036     8.685
     6   6 C        2.928    -0.034    28.844     8.808
     7   6 C        2.924    -0.040    28.986     8.829
     8   6 C        2.968     0.003    27.945     8.671
     9   6 C        2.975     0.011    27.761     8.643
    10   6 C        2.924    -0.032    28.806     8.802
    11   6 C        2.920    -0.042    29.053     8.839
    12   6 C        2.912     0.066    26.527     8.446
    13   7 N        2.802    -0.044    22.092     6.981
    14   6 C        3.075     0.047    26.864     8.498
    15   6 C        2.909    -0.052    29.282     8.873
    16   6 C        2.924    -0.035    28.868     8.811
    17   6 C        2.920    -0.042    29.055     8.839
    18   6 C        2.912    -0.035    28.864     8.810
    19   6 C        3.067    -0.018    28.393     8.737
    20   6 C        3.067    -0.018    28.393     8.737
    21   6 C        2.912    -0.035    28.864     8.810
    22   6 C        2.920    -0.042    29.055     8.839
    23   6 C        2.924    -0.035    28.868     8.811
    24   6 C        2.909    -0.052    29.283     8.873
    25   6 C        3.075     0.047    26.865     8.498
    26   6 C        2.920    -0.040    29.003     8.831
    27   6 C        2.924    -0.028    28.695     8.785
    28   6 C        3.185     0.063    26.160     8.346
    29   7 N        2.124    -0.128    24.343     7.320
    30   7 N        1.975    -0.121    24.377     7.322
    31  16 S        2.313     0.046   139.208    19.858
    32   6 C        3.001     0.015    27.675     8.630
    33   6 C        2.925    -0.033    28.827     8.805
    34   6 C        2.918    -0.028    28.702     8.785
    35   1 H        0.926     0.038     2.480     2.463
    36   1 H        0.926     0.037     2.488     2.467
    37   1 H        0.926     0.033     2.543     2.493
    38   1 H        0.926     0.053     2.279     2.361
    39   1 H        0.926     0.052     2.289     2.366
    40   1 H        0.926     0.046     2.375     2.410
    41   1 H        0.926     0.046     2.365     2.405
    42   1 H        0.926     0.030     2.585     2.514
    43   1 H        0.926     0.030     2.584     2.514
    44   1 H        0.926     0.028     2.614     2.528
    45   1 H        0.926     0.031     2.579     2.511
    46   1 H        0.926     0.031     2.579     2.511
    47   1 H        0.926     0.028     2.614     2.528
    48   1 H        0.926     0.030     2.583     2.513
    49   1 H        0.926     0.030     2.584     2.514
    50   1 H        0.926     0.046     2.366     2.405
    51   1 H        0.926     0.052     2.300     2.372
    52   1 H        0.926     0.038     2.480     2.463
    53   1 H        0.926     0.038     2.476     2.460

molecular dipole:
                 x           y           z       tot (Debye)
 q only:        0.959       0.057      -1.204
   full:        1.249       0.064      -1.553       5.068

 projected vibrational frequencies (cm⁻¹)
eigval :       -0.00     0.00     0.00     0.00     0.00     0.00
eigval :       13.32    20.06    24.71    43.97    53.66    62.07
eigval :       77.86    85.43    93.05   104.31   123.21   145.24
eigval :      159.31   178.18   193.32   218.69   227.00   240.61
eigval :      270.30   277.33   302.33   330.19   370.01   377.04
eigval :      377.71   392.37   404.80   407.81   424.67   432.40
eigval :      439.87   477.58   496.58   507.03   518.42   533.44
eigval :      540.46   546.83   565.00   574.94   584.81   588.00
eigval :      601.88   613.26   621.71   633.67   651.99   670.45
eigval :      673.22   680.94   691.33   706.69   715.21   723.53
eigval :      755.78   758.61   769.80   770.75   780.52   815.24
eigval :      844.31   864.10   866.20   873.89   875.44   876.26
eigval :      897.18   901.83   902.04   902.92   914.76   917.53
eigval :      920.77   924.83   927.07   929.85   930.33   933.64
eigval :      938.56   996.54  1008.16  1011.12  1060.47  1068.95
eigval :     1072.71  1083.86  1116.20  1121.13  1130.05  1139.00
eigval :     1150.76  1164.17  1174.23  1178.99  1180.79  1182.99
eigval :     1199.69  1203.39  1234.91  1241.74  1252.12  1265.30
eigval :     1270.65  1281.00  1290.21  1298.63  1300.33  1310.12
eigval :     1316.68  1327.48  1335.18  1355.17  1359.88  1365.29
eigval :     1404.55  1425.38  1426.54  1427.31  1434.70  1459.43
eigval :     1473.56  1482.77  1486.33  1504.55  1543.07  1548.19
eigval :     1559.19  1573.06  1579.86  1586.88  1591.48  1596.20
eigval :     1596.68  1612.49  3070.28  3070.60  3072.40  3073.50
eigval :     3076.07  3076.76  3080.09  3081.91  3084.38  3084.50
eigval :     3085.18  3087.57  3089.67  3090.92  3092.90  3093.54
eigval :     3093.86  3098.80  3108.84

   temp. (K)  partition function   enthalpy   heat capacity  entropy
                                   cal/mol     cal/K/mol   cal/K/mol   J/K/mol
 298.15  VIB  0.588E+11            14655.237     95.970     89.880
         ROT  0.369E+08              888.752      2.981     37.607
         INT  0.217E+19            15543.989     98.951    127.487
         TR   0.935E+28             1481.254      4.968     44.205
         TOT                       17025.2431   103.9195   171.6919   718.3589

       T/K    H(0)-H(T)+PV         H(T)/Eh          T*S/Eh         G(T)/Eh
   ------------------------------------------------------------------------
    298.15    0.271315E-01    0.422512E+00    0.815764E-01    0.340935E+00
   ------------------------------------------------------------------------

         :::::::::::::::::::::::::::::::::::::::::::::::::::::
         ::                  THERMODYNAMIC                  ::
         :::::::::::::::::::::::::::::::::::::::::::::::::::::
         :: total free energy         -85.656535155041 Eh   ::
         ::.................................................::
         :: total energy              -85.997470492419 Eh   ::
         :: zero point energy           0.395380243606 Eh   ::
         :: G(RRHO) w/o ZPVE           -0.054444906228 Eh   ::
         :: G(RRHO) contrib.            0.340935337378 Eh   ::
         :::::::::::::::::::::::::::::::::::::::::::::::::::::

           -------------------------------------------------
          | TOTAL ENERGY              -85.997470492419 Eh   |
          | TOTAL ENTHALPY            -85.574958796965 Eh   |
          | TOTAL FREE ENERGY         -85.656535155041 Eh   |
          | GRADIENT NORM               0.000112559795 Eh/α |
          | HOMO-LUMO GAP               1.738622802855 eV   |
           -------------------------------------------------

 * finished run on 2025/08/30 at 07:10:05.977
