   * xtb version 6.7.1 (edcfbbe) compiled by 'albert@albert-system' on 2024-07-22

   ID    Z sym.   atoms
    1    6 C      1-12, 14-28, 32-34
    2    7 N      13, 29, 30
    3   16 S      31
    4    1 H      35-53

          program call               : xtb data2507/toluene/CPBzFC/CPBzFC_toluene_S0_finalOpt.xtbopt.xyz --gfn 2 --uhf 2 --gbsa toluene --ohess vtight --parallel 40 --molden --ceasefiles --namespace data2507/toluene/CPBzFC/CPBzFC_toluene_T1_preOpt
      * Solvation model:               GBSA
        Solvent                        toluene
        Solvent mass                       9.2140E+01 g/mol
          :  Hamiltonian                  GFN2-xTB          :
 * total energy  :   -85.9137725 Eh     change       -0.1208051E-08 Eh
 * total energy  :   -85.9181884 Eh     change       -0.4415871E-02 Eh
 * total energy  :   -85.9201980 Eh     change       -0.2009619E-02 Eh
 * total energy  :   -85.9206784 Eh     change       -0.4803375E-03 Eh
 * total energy  :   -85.9212359 Eh     change       -0.5575536E-03 Eh
 * total energy  :   -85.9216720 Eh     change       -0.4360831E-03 Eh
 * total energy  :   -85.9220115 Eh     change       -0.3395328E-03 Eh
 * total energy  :   -85.9222103 Eh     change       -0.1987665E-03 Eh
 * total energy  :   -85.9223041 Eh     change       -0.9379835E-04 Eh
 * total energy  :   -85.9223534 Eh     change       -0.4929371E-04 Eh
 * total energy  :   -85.9226827 Eh     change       -0.5131586E-06 Eh
 * total energy  :   -85.9226833 Eh     change       -0.5987251E-06 Eh
 * total energy  :   -85.9226841 Eh     change       -0.7260535E-06 Eh
 * total energy  :   -85.9226850 Eh     change       -0.9057628E-06 Eh
 * total energy  :   -85.9226860 Eh     change       -0.1007390E-05 Eh
 * total energy  :   -85.9226870 Eh     change       -0.9845130E-06 Eh
 * total energy  :   -85.9226878 Eh     change       -0.8829069E-06 Eh
 * total energy  :   -85.9226887 Eh     change       -0.8195621E-06 Eh
 * total energy  :   -85.9226887 Eh     change       -0.7268412E-08 Eh
   *** GEOMETRY OPTIMIZATION CONVERGED AFTER 44 ITERATIONS ***

 final structure:
================
53
 xtb: 6.7.1 (edcfbbe)
C            8.82642684834216       -0.87881305843661       -0.26156627403996
C            8.02421343186315       -1.53172404565956       -1.18734099043873
C            6.65059939638286       -1.45469988953605       -1.09789112032260
C            6.03657670986659       -0.70810223557073       -0.08060434276200
C            4.59317484199044       -0.61361178869515       -0.00439781630868
C            3.75519196562401       -1.68856226960254       -0.43401554842878
C            2.39620586364883       -1.60187922255782       -0.44191432764740
C            1.67804076945176       -0.44623388779818       -0.02383699897177
C            0.25850079549373       -0.38659760988228       -0.01690051040897
C           -0.54223887616011       -1.33738580274532       -0.70580618783957
C           -1.90778205813541       -1.26036880428744       -0.71139875170321
C           -2.57381447771375       -0.22862724776380       -0.02988018920166
N           -3.95953190003904       -0.15042630907674       -0.03625308019703
C           -4.83229851741625       -1.20333717747815        0.17492956418287
C           -4.56084029056316       -2.52810894755802        0.49179943113061
C           -5.63405654890011       -3.37894532695124        0.68742473900744
C           -6.94709271214544       -2.92670894032136        0.58800128708414
C           -7.22402650691474       -1.59984038514169        0.30592223896296
C           -6.16391367632948       -0.73033655549371        0.10290756563020
C           -6.08198011922505        0.68125966610629       -0.17149199087410
C           -7.03480249998177        1.66728173920943       -0.37422752919802
C           -6.60624193161698        2.95319066598498       -0.65619983219939
C           -5.24967739006909        3.25067382815095       -0.75563527224949
C           -4.28155432130439        2.28196038429184       -0.55995864661425
C           -4.70468709604579        0.99732318728420       -0.24367705359335
C           -1.80373678854898        0.72021967990068        0.66294843298668
C           -0.43925755677029        0.63772847080553        0.67619418456300
C            2.50352012332017        0.64630782401731        0.41761402525616
N            2.09699423434625        1.86181603713061        0.77214450149562
N            3.00654406270575        2.68465834891324        1.12880739945770
S            4.55095857559573        2.04512271754076        0.98643385909048
C            3.92111219538940        0.51756510912749        0.44603485872506
C            6.86201102927798       -0.05918254027899        0.84808001743036
C            8.23584184253225       -0.14703294700111        0.75798729669586
H            9.90193262566897       -0.94252137343520       -0.33286735767611
H            8.47730651434090       -2.09918113480518       -1.98752277201801
H            6.03942259934241       -1.94179310552770       -1.84297178069687
H            4.22932951075431       -2.61094274847773       -0.73130878081011
H            1.83752957873310       -2.47376078105886       -0.74337642603688
H           -0.07105660246092       -2.11152830923236       -1.28954177410800
H           -2.48507163551040       -1.96627793475623       -1.29001113169952
H           -3.54823017788674       -2.88379499065155        0.60026924723982
H           -5.44789044706529       -4.41457338971024        0.92996758957233
H           -7.75894022224204       -3.62067103376218        0.74671926343983
H           -8.24215398374509       -1.24602887689904        0.25178197247600
H           -8.08701717460854        1.43343548236161       -0.32013236339322
H           -7.33210852441749        3.73689294510699       -0.81369372460899
H           -4.94471132197855        4.25799807333843       -0.99691721100812
H           -3.23455926601717        2.52002729787972       -0.66499157142149
H           -2.30265769805503        1.48898467105881        1.23384164444551
H            0.13406831474012        1.35694241732591        1.23968723304500
H            6.41644059647277        0.48503542916210        1.66769649409397
H            8.85162853060087        0.35412176612565        1.49071750346886

          :  Hamiltonian                  GFN2-xTB          :
         :: gradient norm              0.000061043803 Eh/a0 ::
         :: HOMO-LUMO gap              0.867064048109 eV    ::
         :: SCC energy               -87.441526077288 Eh    ::
         :: -> dispersion             -0.072888730167 Eh    ::
         :: -> Gsolv                  -0.039149833222 Eh    ::
         :: repulsion energy           1.518837402880 Eh    ::

    * Orbital Energies and Occupations

         #    Occupation            Energy/Eh            Energy/eV
      -------------------------------------------------------------
         1        2.0000           -0.7310966             -19.8942
       ...           ...                  ...                  ...
        69        2.0000           -0.4221021             -11.4860
        70        2.0000           -0.4167205             -11.3395
        71        2.0000           -0.4154763             -11.3057
        72        2.0000           -0.4134814             -11.2514
        73        2.0000           -0.4099250             -11.1546
        74        2.0000           -0.4092641             -11.1366
        75        2.0000           -0.4068158             -11.0700
        76        2.0000           -0.4056576             -11.0385
        77        2.0000           -0.3902280             -10.6186
        78        2.0000           -0.3806543             -10.3581
        79        1.9927           -0.3720178             -10.1231
        80        1.0073           -0.3626782              -9.8690
        81        1.0000           -0.2912342              -7.9249 (HOMO)
        82                         -0.2593703              -7.0578 (LUMO)
        83                         -0.2549803              -6.9384
        84                         -0.2354050              -6.4057
        85                         -0.2339956              -6.3673
        86                         -0.2286183              -6.2210
        87                         -0.2276010              -6.1933
        88                         -0.2123730              -5.7790
        89                         -0.2030543              -5.5254
        90                         -0.2009218              -5.4674
        91                         -0.1970823              -5.3629
        92                         -0.1831269              -4.9831
       ...                                ...                  ...
       160                          0.7324471              19.9309
      -------------------------------------------------------------
                  HL-Gap            0.0318640 Eh            0.8671 eV

     #   Z          covCN         q      C6AA      α(0)
     1   6 C        2.919    -0.029    28.720     8.788
     2   6 C        2.916    -0.029    28.718     8.788
     3   6 C        2.924    -0.033    28.835     8.806
     4   6 C        2.972     0.012    27.743     8.640
     5   6 C        2.979    -0.009    28.237     8.716
     6   6 C        2.918    -0.050    29.237     8.867
     7   6 C        2.914    -0.039    28.980     8.828
     8   6 C        2.964    -0.023    28.564     8.766
     9   6 C        2.967     0.017    27.623     8.621
    10   6 C        2.919    -0.037    28.919     8.819
    11   6 C        2.914    -0.041    29.010     8.832
    12   6 C        2.911     0.054    26.778     8.485
    13   7 N        2.799    -0.006    21.377     6.867
    14   6 C        3.069     0.045    26.911     8.506
    15   6 C        2.909    -0.043    29.057     8.839
    16   6 C        2.923    -0.031    28.775     8.797
    17   6 C        2.920    -0.033    28.828     8.805
    18   6 C        2.912    -0.029    28.732     8.790
    19   6 C        3.064    -0.010    28.213     8.710
    20   6 C        3.064    -0.011    28.218     8.711
    21   6 C        2.912    -0.029    28.734     8.790
    22   6 C        2.920    -0.033    28.822     8.804
    23   6 C        2.923    -0.031    28.764     8.795
    24   6 C        2.909    -0.042    29.041     8.836
    25   6 C        3.069     0.046    26.905     8.505
    26   6 C        2.914    -0.039    28.966     8.825
    27   6 C        2.920    -0.038    28.933     8.821
    28   6 C        3.157     0.070    26.143     8.360
    29   7 N        2.128    -0.157    24.983     7.416
    30   7 N        1.961    -0.183    25.743     7.524
    31  16 S        2.309    -0.000   141.065    19.990
    32   6 C        2.995     0.020    27.560     8.612
    33   6 C        2.924    -0.033    28.824     8.804
    34   6 C        2.916    -0.028    28.700     8.785
    35   1 H        0.926     0.037     2.490     2.467
    36   1 H        0.926     0.037     2.494     2.470
    37   1 H        0.926     0.037     2.485     2.465
    38   1 H        0.926     0.039     2.462     2.454
    39   1 H        0.926     0.042     2.424     2.435
    40   1 H        0.926     0.044     2.392     2.419
    41   1 H        0.926     0.048     2.348     2.396
    42   1 H        0.926     0.043     2.406     2.426
    43   1 H        0.926     0.041     2.434     2.440
    44   1 H        0.926     0.040     2.444     2.445
    45   1 H        0.926     0.043     2.411     2.428
    46   1 H        0.926     0.043     2.408     2.427
    47   1 H        0.926     0.041     2.442     2.444
    48   1 H        0.926     0.041     2.436     2.441
    49   1 H        0.926     0.043     2.404     2.425
    50   1 H        0.926     0.046     2.366     2.405
    51   1 H        0.926     0.064     2.153     2.295
    52   1 H        0.926     0.036     2.508     2.476
    53   1 H        0.926     0.036     2.507     2.476

molecular dipole:
                 x           y           z       tot (Debye)
 q only:       -2.458      -1.535      -0.582
   full:       -2.191      -1.869      -0.722       7.546

 projected vibrational frequencies (cm⁻¹)
eigval :       -0.00    -0.00    -0.00    -0.00     0.00     0.00
eigval :       10.92    15.88    27.67    42.49    54.77    68.80
eigval :       80.14    88.87   100.93   113.39   131.61   140.65
eigval :      152.31   172.74   210.78   219.15   227.78   242.95
eigval :      272.76   293.45   300.10   315.50   345.16   371.43
eigval :      382.28   385.39   399.33   405.85   419.55   426.93
eigval :      438.48   445.05   460.86   489.28   514.32   530.33
eigval :      538.11   539.21   546.98   560.88   574.56   577.96
eigval :      588.76   590.18   612.46   626.61   649.15   659.01
eigval :      666.39   676.76   681.00   682.95   710.06   717.03
eigval :      748.17   749.52   755.59   770.21   779.00   793.21
eigval :      804.09   831.74   842.09   862.61   871.27   871.55
eigval :      887.91   893.09   894.79   902.60   903.00   913.83
eigval :      917.21   918.99   919.83   924.72   925.42   926.69
eigval :      928.52   985.69   987.70  1010.04  1021.16  1068.41
eigval :     1071.42  1080.75  1103.82  1113.68  1126.62  1139.61
eigval :     1145.42  1158.45  1172.00  1177.32  1177.96  1179.54
eigval :     1199.60  1208.42  1215.78  1226.68  1237.19  1256.71
eigval :     1266.13  1276.83  1279.18  1286.28  1289.72  1307.39
eigval :     1321.35  1323.26  1330.20  1340.72  1357.24  1362.18
eigval :     1390.18  1410.28  1411.58  1418.14  1423.86  1434.49
eigval :     1437.06  1455.94  1461.18  1466.53  1472.85  1478.92
eigval :     1525.57  1549.76  1556.45  1567.23  1577.51  1577.88
eigval :     1581.05  1598.88  3071.48  3072.68  3080.64  3080.97
eigval :     3082.21  3084.37  3085.62  3086.73  3087.20  3087.95
eigval :     3089.73  3093.31  3094.59  3095.82  3098.79  3100.39
eigval :     3100.82  3101.49  3108.15

   temp. (K)  partition function   enthalpy   heat capacity  entropy
                                   cal/mol     cal/K/mol   cal/K/mol   J/K/mol
 298.15  VIB  0.707E+11            14808.769     97.469     90.584
         ROT  0.370E+08              888.752      2.981     37.614
         INT  0.262E+19            15697.521    100.450    128.198
         TR   0.935E+28             1481.254      4.968     44.205
         TOT                       17178.7753   105.4180   172.4029   721.3338

       T/K    H(0)-H(T)+PV         H(T)/Eh          T*S/Eh         G(T)/Eh
   ------------------------------------------------------------------------
    298.15    0.273761E-01    0.419983E+00    0.819142E-01    0.338068E+00
   ------------------------------------------------------------------------

         :::::::::::::::::::::::::::::::::::::::::::::::::::::
         ::                  THERMODYNAMIC                  ::
         :::::::::::::::::::::::::::::::::::::::::::::::::::::
         :: total free energy         -85.584620280696 Eh   ::
         ::.................................................::
         :: total energy              -85.922688675576 Eh   ::
         :: zero point energy           0.392606463607 Eh   ::
         :: G(RRHO) w/o ZPVE           -0.054538068727 Eh   ::
         :: G(RRHO) contrib.            0.338068394880 Eh   ::
         :::::::::::::::::::::::::::::::::::::::::::::::::::::

           -------------------------------------------------
          | TOTAL ENERGY              -85.922688675576 Eh   |
          | TOTAL ENTHALPY            -85.502706090946 Eh   |
          | TOTAL FREE ENERGY         -85.584620280696 Eh   |
          | GRADIENT NORM               0.000060689377 Eh/α |
          | HOMO-LUMO GAP               0.867062705178 eV   |
           -------------------------------------------------

 * finished run on 2025/08/30 at 07:12:07.259
