   * xtb version 6.7.1 (edcfbbe) compiled by 'albert@albert-system' on 2024-07-22

   ID    Z sym.   atoms
    1    6 C      1-12, 14-28, 32-34
    2    7 N      13, 29, 30
    3   16 S      31
    4    1 H      35-53

          program call               : xtb data2507/toluene/CPBzFC/CPBzFC_toluene_T1_crest.xyz --gfn 2 --uhf 2 --gbsa toluene --ohess vtight --parallel 40 --molden --ceasefiles --namespace data2507/toluene/CPBzFC/CPBzFC_toluene_T1_finalOpt
      * Solvation model:               GBSA
        Solvent                        toluene
        Solvent mass                       9.2140E+01 g/mol
          :  Hamiltonian                  GFN2-xTB          :
 * total energy  :   -85.9225897 Eh     change       -0.4292531E-09 Eh
 * total energy  :   -85.9226253 Eh     change       -0.3558020E-04 Eh
 * total energy  :   -85.9226420 Eh     change       -0.1670481E-04 Eh
 * total energy  :   -85.9226480 Eh     change       -0.5941344E-05 Eh
 * total energy  :   -85.9226530 Eh     change       -0.5055509E-05 Eh
 * total energy  :   -85.9226567 Eh     change       -0.3638949E-05 Eh
 * total energy  :   -85.9226589 Eh     change       -0.2274275E-05 Eh
 * total energy  :   -85.9226603 Eh     change       -0.1342118E-05 Eh
 * total energy  :   -85.9226612 Eh     change       -0.9452902E-06 Eh
 * total energy  :   -85.9226621 Eh     change       -0.8953092E-06 Eh
 * total energy  :   -85.9226772 Eh     change       -0.6767120E-06 Eh
 * total energy  :   -85.9226775 Eh     change       -0.3052917E-06 Eh
 * total energy  :   -85.9226781 Eh     change       -0.6240556E-06 Eh
 * total energy  :   -85.9226784 Eh     change       -0.2920985E-06 Eh
 * total energy  :   -85.9226787 Eh     change       -0.2763197E-06 Eh
 * total energy  :   -85.9226790 Eh     change       -0.3221790E-06 Eh
 * total energy  :   -85.9226792 Eh     change       -0.2340595E-06 Eh
 * total energy  :   -85.9226794 Eh     change       -0.1227603E-06 Eh
 * total energy  :   -85.9226794 Eh     change       -0.6016509E-07 Eh
   *** GEOMETRY OPTIMIZATION CONVERGED AFTER 29 ITERATIONS ***

 final structure:
================
53
 xtb: 6.7.1 (edcfbbe)
C            8.82680948762298       -0.88282010669882       -0.35411104547853
C            8.02292033940848       -1.62458776999297       -1.20880191790450
C            6.64953274786442       -1.53314749565586       -1.13052971405664
C            6.03642385122780       -0.68354022572383       -0.19653417480643
C            4.59352823333495       -0.57842433468511       -0.12885164661203
C            3.75249544165642       -1.68662767692966       -0.45708841335899
C            2.39344378532904       -1.60120784169644       -0.46243982134183
C            1.67793838779231       -0.41446606002931       -0.13802999409122
C            0.25847795072750       -0.35810379624127       -0.11233882833302
C           -0.54950199105269       -1.36256972543224       -0.71030209568407
C           -1.91535731939590       -1.29252778711974       -0.69410161538276
C           -2.57409322367799       -0.21570758521174       -0.07841524341136
N           -3.96012950897713       -0.14514095466978       -0.06193647834960
C           -4.82209357016725       -1.18376400704384        0.24367390422367
C           -4.53649493632593       -2.48037170605846        0.65162833816637
C           -5.60051693154639       -3.31973736770924        0.92978561076824
C           -6.91800743475613       -2.88233450645580        0.82318155674561
C           -7.20849531729935       -1.58084743953365        0.45098679123137
C           -6.15779295923715       -0.72366982557842        0.16395635600520
C           -6.09010319341655        0.66440684988437       -0.21444688484932
C           -7.05291853539461        1.62886570499045       -0.46744324356392
C           -6.63813373763673        2.89330199006685       -0.84937140908768
C           -5.28585629194946        3.18849776678452       -1.00021837199001
C           -4.30801430038698        2.24082731730467       -0.75575259378529
C           -4.71647832518459        0.98075434811112       -0.33774926410786
C           -1.79636181944888        0.78735352050137        0.52365014532401
C           -0.43133452088265        0.71389751674509        0.51305090736485
C            2.50579914898046        0.71412485665389        0.19405522217852
N            2.09951284769907        1.95661635913408        0.43877585918176
N            3.01087678871565        2.80973950049181        0.70934463823550
S            4.55496313927839        2.16151090066421        0.61159912426012
C            3.92372316773849        0.58978164535688        0.22028450073712
C            6.86401852685585        0.05424653833135        0.66161723141561
C            8.23756939715265       -0.04676615822553        0.58271778313852
H            9.90212479804157       -0.95816651689611       -0.41632919500885
H            8.47462191265585       -2.27368722408824       -1.94516093651900
H            6.03859421943329       -2.09250856715543       -1.82305174163874
H            4.22420806393837       -2.63185776817940       -0.67586469468702
H            1.83286260169604       -2.49595699841841       -0.68245041829015
H           -0.08466238963603       -2.17642199399648       -1.24295118076888
H           -2.49954383836245       -2.04307124943002       -1.20563007309199
H           -3.51986573178172       -2.82246227502179        0.76609060056929
H           -5.40342204951224       -4.33414103601431        1.24313540257660
H           -7.72249131407131       -3.56671156214877        1.04745759671597
H           -8.22960916538422       -1.23672535735247        0.39118434877007
H           -8.10229359236168        1.39484441831561       -0.37382181904747
H           -7.37192686890408        3.66035900759574       -1.04693922261593
H           -4.99197233371451        4.17708083218731       -1.31999652908618
H           -3.26501976871306        2.47518119624614       -0.90096918263344
H           -2.28854366985836        1.59461435773253        1.04508982242486
H            0.14870974943445        1.47777985553265        1.00646135544111
H            6.42040634920369        0.68045670198197        1.42148595330724
H            8.85416077924793        0.52506824437866        1.26098227740234

          :  Hamiltonian                  GFN2-xTB          :
         :: gradient norm              0.000030420158 Eh/a0 ::
         :: HOMO-LUMO gap              0.864460010393 eV    ::
         :: SCC energy               -87.441445248889 Eh    ::
         :: -> dispersion             -0.072888816309 Eh    ::
         :: -> Gsolv                  -0.039154061576 Eh    ::
         :: repulsion energy           1.518765831243 Eh    ::

    * Orbital Energies and Occupations

         #    Occupation            Energy/Eh            Energy/eV
      -------------------------------------------------------------
         1        2.0000           -0.7311483             -19.8956
       ...           ...                  ...                  ...
        69        2.0000           -0.4220675             -11.4850
        70        2.0000           -0.4167254             -11.3397
        71        2.0000           -0.4154757             -11.3057
        72        2.0000           -0.4134594             -11.2508
        73        2.0000           -0.4099082             -11.1542
        74        2.0000           -0.4093174             -11.1381
        75        2.0000           -0.4069326             -11.0732
        76        2.0000           -0.4056421             -11.0381
        77        2.0000           -0.3902139             -10.6183
        78        2.0000           -0.3806300             -10.3575
        79        1.9926           -0.3719853             -10.1222
        80        1.0074           -0.3626838              -9.8691
        81        1.0000           -0.2912111              -7.9243 (HOMO)
        82                         -0.2594428              -7.0598 (LUMO)
        83                         -0.2550041              -6.9390
        84                         -0.2354760              -6.4076
        85                         -0.2339899              -6.3672
        86                         -0.2286645              -6.2223
        87                         -0.2275627              -6.1923
        88                         -0.2123244              -5.7776
        89                         -0.2030166              -5.5244
        90                         -0.2009255              -5.4675
        91                         -0.1970703              -5.3626
        92                         -0.1830154              -4.9801
       ...                                ...                  ...
       160                          0.7324411              19.9307
      -------------------------------------------------------------
                  HL-Gap            0.0317683 Eh            0.8645 eV

     #   Z          covCN         q      C6AA      α(0)
     1   6 C        2.919    -0.029    28.719     8.788
     2   6 C        2.916    -0.029    28.719     8.788
     3   6 C        2.924    -0.034    28.836     8.806
     4   6 C        2.972     0.012    27.743     8.640
     5   6 C        2.979    -0.009    28.236     8.716
     6   6 C        2.918    -0.050    29.239     8.867
     7   6 C        2.913    -0.039    28.980     8.827
     8   6 C        2.964    -0.023    28.565     8.766
     9   6 C        2.967     0.017    27.621     8.621
    10   6 C        2.919    -0.037    28.918     8.818
    11   6 C        2.914    -0.041    29.010     8.832
    12   6 C        2.911     0.055    26.777     8.485
    13   7 N        2.799    -0.006    21.377     6.867
    14   6 C        3.069     0.045    26.912     8.506
    15   6 C        2.910    -0.043    29.058     8.839
    16   6 C        2.923    -0.031    28.775     8.797
    17   6 C        2.920    -0.033    28.828     8.805
    18   6 C        2.912    -0.029    28.733     8.790
    19   6 C        3.064    -0.010    28.213     8.710
    20   6 C        3.064    -0.011    28.218     8.711
    21   6 C        2.912    -0.029    28.734     8.790
    22   6 C        2.920    -0.033    28.822     8.804
    23   6 C        2.923    -0.031    28.764     8.795
    24   6 C        2.909    -0.042    29.041     8.837
    25   6 C        3.069     0.046    26.906     8.505
    26   6 C        2.914    -0.039    28.967     8.826
    27   6 C        2.920    -0.037    28.925     8.820
    28   6 C        3.158     0.070    26.136     8.358
    29   7 N        2.127    -0.158    24.991     7.417
    30   7 N        1.961    -0.182    25.742     7.524
    31  16 S        2.310     0.000   141.055    19.989
    32   6 C        2.995     0.020    27.562     8.612
    33   6 C        2.924    -0.033    28.826     8.805
    34   6 C        2.916    -0.028    28.700     8.785
    35   1 H        0.926     0.037     2.490     2.467
    36   1 H        0.926     0.037     2.494     2.470
    37   1 H        0.926     0.037     2.484     2.465
    38   1 H        0.926     0.039     2.460     2.453
    39   1 H        0.926     0.042     2.425     2.435
    40   1 H        0.926     0.044     2.392     2.419
    41   1 H        0.926     0.048     2.347     2.396
    42   1 H        0.926     0.043     2.406     2.425
    43   1 H        0.926     0.041     2.435     2.440
    44   1 H        0.926     0.040     2.444     2.445
    45   1 H        0.926     0.043     2.411     2.428
    46   1 H        0.926     0.043     2.408     2.427
    47   1 H        0.926     0.041     2.442     2.444
    48   1 H        0.926     0.041     2.436     2.441
    49   1 H        0.926     0.043     2.403     2.424
    50   1 H        0.926     0.046     2.365     2.405
    51   1 H        0.926     0.063     2.160     2.298
    52   1 H        0.926     0.036     2.506     2.475
    53   1 H        0.926     0.036     2.507     2.476

molecular dipole:
                 x           y           z       tot (Debye)
 q only:       -2.459      -1.595      -0.385
   full:       -2.192      -1.940      -0.496       7.547

 projected vibrational frequencies (cm⁻¹)
eigval :       -0.00    -0.00    -0.00    -0.00     0.00     0.00
eigval :       13.25    17.60    27.42    39.32    59.45    67.29
eigval :       79.64    87.98    99.92   112.12   130.07   140.39
eigval :      149.72   173.10   212.71   219.21   226.78   242.85
eigval :      270.73   293.85   299.87   315.11   344.33   371.99
eigval :      381.43   384.77   398.52   404.55   418.53   426.48
eigval :      437.79   447.35   459.72   489.38   514.17   530.65
eigval :      535.52   539.07   544.76   560.98   575.80   577.78
eigval :      588.67   590.13   612.02   626.54   649.17   659.83
eigval :      666.42   674.89   680.86   682.84   708.73   716.69
eigval :      747.39   749.65   755.42   772.43   781.10   793.67
eigval :      807.64   834.93   842.61   861.56   871.32   871.51
eigval :      887.40   892.52   894.83   903.36   904.58   914.56
eigval :      918.37   919.69   921.23   924.03   924.48   930.16
eigval :      931.61   985.40   987.66  1009.89  1020.84  1068.18
eigval :     1071.09  1080.57  1103.46  1112.86  1125.56  1138.76
eigval :     1144.54  1159.08  1171.31  1176.53  1177.41  1178.42
eigval :     1198.97  1207.53  1215.56  1226.28  1237.11  1256.83
eigval :     1265.50  1276.01  1278.48  1285.46  1289.29  1307.47
eigval :     1321.34  1323.37  1330.02  1340.25  1356.99  1361.75
eigval :     1389.98  1410.09  1411.37  1418.02  1423.44  1434.51
eigval :     1436.82  1455.69  1460.45  1466.41  1472.87  1478.51
eigval :     1525.41  1549.25  1556.41  1566.92  1577.28  1577.60
eigval :     1580.82  1598.64  3071.45  3072.83  3080.43  3081.13
eigval :     3082.91  3083.06  3086.34  3086.79  3087.17  3087.96
eigval :     3090.10  3093.47  3094.79  3095.96  3099.57  3100.24
eigval :     3100.97  3101.59  3107.75

   temp. (K)  partition function   enthalpy   heat capacity  entropy
                                   cal/mol     cal/K/mol   cal/K/mol   J/K/mol
 298.15  VIB  0.576E+11            14816.576     97.472     90.437
         ROT  0.371E+08              888.752      2.981     37.615
         INT  0.213E+19            15705.329    100.453    128.052
         TR   0.935E+28             1481.254      4.968     44.205
         TOT                       17186.5827   105.4214   172.2569   720.7231

       T/K    H(0)-H(T)+PV         H(T)/Eh          T*S/Eh         G(T)/Eh
   ------------------------------------------------------------------------
    298.15    0.273886E-01    0.419961E+00    0.818448E-01    0.338117E+00
   ------------------------------------------------------------------------

         :::::::::::::::::::::::::::::::::::::::::::::::::::::
         ::                  THERMODYNAMIC                  ::
         :::::::::::::::::::::::::::::::::::::::::::::::::::::
         :: total free energy         -85.584562897686 Eh   ::
         ::.................................................::
         :: total energy              -85.922679416640 Eh   ::
         :: zero point energy           0.392572789035 Eh   ::
         :: G(RRHO) w/o ZPVE           -0.054456270082 Eh   ::
         :: G(RRHO) contrib.            0.338116518954 Eh   ::
         :::::::::::::::::::::::::::::::::::::::::::::::::::::

           -------------------------------------------------
          | TOTAL ENERGY              -85.922679416640 Eh   |
          | TOTAL ENTHALPY            -85.502718064654 Eh   |
          | TOTAL FREE ENERGY         -85.584562897686 Eh   |
          | GRADIENT NORM               0.000030433813 Eh/α |
          | HOMO-LUMO GAP               0.864459947452 eV   |
           -------------------------------------------------

 * finished run on 2025/08/30 at 07:14:39.343
