   * xtb version 6.7.1 (edcfbbe) compiled by 'albert@albert-system' on 2024-07-22

   ID    Z sym.   atoms
    1    6 C      1-12, 14-28, 32-34
    2    7 N      13, 29, 30
    3   16 S      31
    4    1 H      35-53

          program call               : xtb data2507/toluene/CPBzFC/CPBzFC_toluene_S0_crest.xyz --gfn 2 --gbsa toluene --ohess vtight --parallel 40 --molden --ceasefiles --namespace data2507/toluene/CPBzFC/CPBzFC_toluene_S0_finalOpt
      * Solvation model:               GBSA
        Solvent                        toluene
        Solvent mass                       9.2140E+01 g/mol
          :  Hamiltonian                  GFN2-xTB          :
 * total energy  :   -85.9977221 Eh     change       -0.1803855E-08 Eh
 * total energy  :   -85.9977486 Eh     change       -0.2647916E-04 Eh
 * total energy  :   -85.9977689 Eh     change       -0.2034444E-04 Eh
 * total energy  :   -85.9977779 Eh     change       -0.8933534E-05 Eh
 * total energy  :   -85.9977858 Eh     change       -0.7973514E-05 Eh
 * total energy  :   -85.9977899 Eh     change       -0.4092481E-05 Eh
 * total energy  :   -85.9977929 Eh     change       -0.2993620E-05 Eh
 * total energy  :   -85.9977946 Eh     change       -0.1723302E-05 Eh
 * total energy  :   -85.9977953 Eh     change       -0.6302837E-06 Eh
 * total energy  :   -85.9977957 Eh     change       -0.4082779E-06 Eh
 * total energy  :   -85.9977961 Eh     change       -0.4146363E-06 Eh
 * total energy  :   -85.9977964 Eh     change       -0.2926842E-06 Eh
 * total energy  :   -85.9977966 Eh     change       -0.2379916E-06 Eh
 * total energy  :   -85.9977969 Eh     change       -0.2350614E-06 Eh
 * total energy  :   -85.9977971 Eh     change       -0.2210758E-06 Eh
 * total energy  :   -85.9977973 Eh     change       -0.1757154E-06 Eh
 * total energy  :   -85.9977974 Eh     change       -0.1319984E-06 Eh
 * total energy  :   -85.9977975 Eh     change       -0.1068961E-06 Eh
 * total energy  :   -85.9977976 Eh     change       -0.9013321E-07 Eh
   *** GEOMETRY OPTIMIZATION CONVERGED AFTER 19 ITERATIONS ***

 final structure:
================
53
 xtb: 6.7.1 (edcfbbe)
C            8.81611690900056       -0.93287635523853       -0.11280555852918
C            8.04583527637071       -1.68427799451847       -0.98554852616776
C            6.66737951782181       -1.58147639899164       -0.96196936002528
C            6.03855118370506       -0.71724184146223       -0.06736463866961
C            4.57371598750295       -0.61091220697187       -0.04877837612187
C            3.75843070528212       -1.73056440674475       -0.15361653233219
C            2.36960922052687       -1.64767106192041       -0.14275466789734
C            1.69801651358785       -0.43972258284733       -0.02958483044538
C            0.23683168052531       -0.35817400020684       -0.02405920043437
C           -0.52300118790636       -1.21607683036026       -0.82077784139051
C           -1.90060183223227       -1.14454463437165       -0.82395113842467
C           -2.55595033688920       -0.21948887766828       -0.01425197259394
N           -3.95486617989092       -0.14844793453862       -0.01118899495697
C           -4.81841464955212       -1.21406604806881        0.15344668517762
C           -4.53667337893994       -2.55043239407413        0.40076250801834
C           -5.60172821071324       -3.41721551047179        0.55700884224937
C           -6.91980897661701       -2.97143849731028        0.48043966154107
C           -7.20644378241032       -1.63897983149786        0.25822091075156
C           -6.15254356053617       -0.74835645868346        0.09760878247698
C           -6.08085049277754        0.67000541790577       -0.11981129686463
C           -7.04012071084719        1.66187247233708       -0.28078172346056
C           -6.62052943478480        2.95856046911927       -0.50276585953937
C           -5.26415859351997        3.26949014849610       -0.57865362560375
C           -4.29125357151509        2.30041255418975       -0.42236539211452
C           -4.70670389258510        0.99930246622995       -0.17537373391964
C           -1.80505679801345        0.63641917982736        0.78846207375348
C           -0.42717547722639        0.57170585089345        0.77614944078167
C            2.50079653260206        0.71284142273834        0.07700257936647
N            2.07903985340451        1.99843640225062        0.15744965199011
N            2.98276726469483        2.85312445656393        0.20881440344732
S            4.53825082833626        2.22708980174828        0.16708785632367
C            3.91618717637280        0.61468858107559        0.06871689571168
C            6.82157349109061        0.03406015431755        0.80603289661408
C            8.19967436823539       -0.07600606478285        0.78415280158501
H            9.89282272691481       -1.01482590221989       -0.13135229960857
H            8.52138256721666       -2.35163460908520       -1.68952365653017
H            6.07158755304245       -2.15634942911590       -1.65588137329590
H            4.22235280642616       -2.70289444942364       -0.22512406333893
H            1.79767404407464       -2.56108754351635       -0.20249738172281
H           -0.02852315944086       -1.92111020066874       -1.47212394457333
H           -2.47751850058801       -1.79183179853945       -1.46753955615915
H           -3.51934274499832       -2.90259356881962        0.48053374710561
H           -5.40812169625193       -4.46295423340506        0.74750926246415
H           -7.72534772264313       -3.68018340119344        0.60598740604882
H           -8.22788982208029       -1.29127045386360        0.21490910111046
H           -8.09138303328585        1.41852882492371       -0.23816403721746
H           -7.35029706923102        3.74511974629674       -0.62829398473405
H           -4.96596110305515        4.29045466825292       -0.76817317801444
H           -3.24372584247934        2.54965290528014       -0.50044817696511
H           -2.30911480380821        1.34223464623259        1.43138230233732
H            0.14461549394566        1.23806526336845        1.40256915076125
H            6.34797996316659        0.69083909067059        1.52151297727651
H            8.79363752447258        0.50867379346288        1.47126713145894

          :  Hamiltonian                  GFN2-xTB          :
         :: gradient norm              0.000032677615 Eh/a0 ::
         :: HOMO-LUMO gap              1.742249964351 eV    ::
         :: SCC energy               -87.533770714492 Eh    ::
         :: -> dispersion             -0.072930623075 Eh    ::
         :: -> Gsolv                  -0.036911038022 Eh    ::
         :: repulsion energy           1.535973125366 Eh    ::

    * Orbital Energies and Occupations

         #    Occupation            Energy/Eh            Energy/eV
      -------------------------------------------------------------
         1        2.0000           -0.7488045             -20.3760
       ...           ...                  ...                  ...
        68        2.0000           -0.4243084             -11.5460
        69        2.0000           -0.4220113             -11.4835
        70        2.0000           -0.4190757             -11.4036
        71        2.0000           -0.4181464             -11.3783
        72        2.0000           -0.4167216             -11.3396
        73        2.0000           -0.4143976             -11.2763
        74        2.0000           -0.4125350             -11.2256
        75        2.0000           -0.4110679             -11.1857
        76        2.0000           -0.4047549             -11.0139
        77        2.0000           -0.3897422             -10.6054
        78        2.0000           -0.3861425             -10.5075
        79        2.0000           -0.3782083             -10.2916
        80        2.0000           -0.3618416              -9.8462 (HOMO)
        81                         -0.2978150              -8.1040 (LUMO)
        82                         -0.2642865              -7.1916
        83                         -0.2450418              -6.6679
        84                         -0.2354347              -6.4065
        85                         -0.2328021              -6.3349
        86                         -0.2320163              -6.3135
        87                         -0.2259053              -6.1472
        88                         -0.2215590              -6.0289
        89                         -0.2190813              -5.9615
        90                         -0.2008527              -5.4655
        91                         -0.1876941              -5.1074
       ...                                ...                  ...
       160                          0.7446441              20.2628
      -------------------------------------------------------------
                  HL-Gap            0.0640265 Eh            1.7423 eV

     #   Z          covCN         q      C6AA      α(0)
     1   6 C        2.920    -0.028    28.710     8.787
     2   6 C        2.918    -0.028    28.703     8.786
     3   6 C        2.925    -0.033    28.828     8.805
     4   6 C        2.976     0.009    27.802     8.649
     5   6 C        2.980    -0.001    28.042     8.686
     6   6 C        2.928    -0.034    28.846     8.808
     7   6 C        2.924    -0.040    28.990     8.830
     8   6 C        2.969     0.003    27.947     8.671
     9   6 C        2.975     0.011    27.766     8.643
    10   6 C        2.924    -0.032    28.805     8.802
    11   6 C        2.920    -0.042    29.055     8.839
    12   6 C        2.912     0.066    26.526     8.446
    13   7 N        2.802    -0.044    22.081     6.979
    14   6 C        3.074     0.047    26.871     8.499
    15   6 C        2.910    -0.052    29.288     8.874
    16   6 C        2.924    -0.035    28.872     8.812
    17   6 C        2.919    -0.042    29.055     8.839
    18   6 C        2.912    -0.035    28.863     8.810
    19   6 C        3.067    -0.018    28.389     8.737
    20   6 C        3.067    -0.018    28.393     8.737
    21   6 C        2.912    -0.035    28.866     8.810
    22   6 C        2.920    -0.042    29.048     8.838
    23   6 C        2.924    -0.035    28.860     8.810
    24   6 C        2.909    -0.051    29.275     8.872
    25   6 C        3.074     0.047    26.866     8.498
    26   6 C        2.920    -0.041    29.012     8.833
    27   6 C        2.924    -0.027    28.686     8.783
    28   6 C        3.185     0.063    26.156     8.345
    29   7 N        2.124    -0.128    24.350     7.321
    30   7 N        1.976    -0.122    24.384     7.323
    31  16 S        2.313     0.045   139.249    19.861
    32   6 C        3.000     0.015    27.674     8.629
    33   6 C        2.924    -0.033    28.814     8.803
    34   6 C        2.918    -0.028    28.699     8.785
    35   1 H        0.926     0.038     2.481     2.463
    36   1 H        0.926     0.038     2.477     2.461
    37   1 H        0.926     0.038     2.481     2.463
    38   1 H        0.926     0.053     2.281     2.362
    39   1 H        0.926     0.052     2.294     2.368
    40   1 H        0.926     0.046     2.377     2.411
    41   1 H        0.926     0.047     2.364     2.404
    42   1 H        0.926     0.031     2.576     2.510
    43   1 H        0.926     0.030     2.580     2.512
    44   1 H        0.926     0.028     2.614     2.528
    45   1 H        0.926     0.031     2.579     2.511
    46   1 H        0.926     0.031     2.577     2.510
    47   1 H        0.926     0.028     2.611     2.527
    48   1 H        0.926     0.031     2.578     2.511
    49   1 H        0.926     0.032     2.563     2.504
    50   1 H        0.926     0.046     2.365     2.405
    51   1 H        0.926     0.051     2.308     2.376
    52   1 H        0.926     0.033     2.542     2.493
    53   1 H        0.926     0.037     2.489     2.467

molecular dipole:
                 x           y           z       tot (Debye)
 q only:        0.848      -1.235      -0.089
   full:        1.125      -1.593      -0.139       4.970

 projected vibrational frequencies (cm⁻¹)
eigval :       -0.00    -0.00     0.00     0.00     0.00     0.00
eigval :       10.44    22.77    26.60    37.53    50.75    62.04
eigval :       76.64    84.64    94.78   105.40   127.16   145.34
eigval :      156.07   176.30   204.29   216.99   218.65   244.00
eigval :      271.26   289.29   298.76   334.48   367.60   370.37
eigval :      381.56   391.24   403.44   410.40   425.15   436.35
eigval :      441.31   481.11   489.29   508.76   518.30   533.14
eigval :      541.30   546.86   565.19   577.85   585.58   588.91
eigval :      595.39   618.83   626.04   630.94   651.77   669.35
eigval :      673.07   680.80   693.00   707.52   718.32   724.13
eigval :      755.87   757.20   768.73   771.23   779.97   816.64
eigval :      841.42   864.11   866.09   872.05   872.90   875.45
eigval :      897.22   899.42   901.18   902.15   912.82   918.10
eigval :      920.02   924.83   926.85   927.47   930.51   931.48
eigval :      938.37   996.63  1007.95  1011.06  1060.65  1069.39
eigval :     1072.65  1083.45  1116.57  1120.81  1130.17  1139.17
eigval :     1151.41  1164.97  1175.15  1178.59  1180.88  1183.06
eigval :     1199.36  1203.35  1235.26  1241.63  1252.27  1265.81
eigval :     1271.19  1280.66  1290.73  1298.77  1300.26  1310.63
eigval :     1316.91  1327.83  1335.94  1355.55  1359.74  1365.72
eigval :     1405.72  1424.92  1426.75  1427.02  1434.35  1459.34
eigval :     1473.61  1482.92  1486.46  1504.96  1543.13  1547.84
eigval :     1558.59  1573.15  1579.83  1586.82  1590.69  1596.18
eigval :     1596.75  1612.31  3070.97  3071.32  3072.12  3072.90
eigval :     3076.49  3077.29  3079.90  3082.80  3084.23  3084.35
eigval :     3085.34  3088.05  3090.75  3091.15  3093.13  3093.24
eigval :     3094.96  3098.91  3107.00

   temp. (K)  partition function   enthalpy   heat capacity  entropy
                                   cal/mol     cal/K/mol   cal/K/mol   J/K/mol
 298.15  VIB  0.718E+11            14650.519     95.791     89.865
         ROT  0.368E+08              888.752      2.981     37.602
         INT  0.264E+19            15539.272     98.772    127.467
         TR   0.935E+28             1481.254      4.968     44.205
         TOT                       17020.5256   103.7399   171.6719   718.2753

       T/K    H(0)-H(T)+PV         H(T)/Eh          T*S/Eh         G(T)/Eh
   ------------------------------------------------------------------------
    298.15    0.271239E-01    0.422522E+00    0.815669E-01    0.340955E+00
   ------------------------------------------------------------------------

         :::::::::::::::::::::::::::::::::::::::::::::::::::::
         ::                  THERMODYNAMIC                  ::
         :::::::::::::::::::::::::::::::::::::::::::::::::::::
         :: total free energy         -85.656842770552 Eh   ::
         ::.................................................::
         :: total energy              -85.997797588034 Eh   ::
         :: zero point energy           0.395397753305 Eh   ::
         :: G(RRHO) w/o ZPVE           -0.054442935822 Eh   ::
         :: G(RRHO) contrib.            0.340954817482 Eh   ::
         :::::::::::::::::::::::::::::::::::::::::::::::::::::

           -------------------------------------------------
          | TOTAL ENERGY              -85.997797588034 Eh   |
          | TOTAL ENTHALPY            -85.575275900632 Eh   |
          | TOTAL FREE ENERGY         -85.656842770552 Eh   |
          | GRADIENT NORM               0.000032595159 Eh/α |
          | HOMO-LUMO GAP               1.742250677703 eV   |
           -------------------------------------------------

 * finished run on 2025/08/30 at 07:12:03.514
