   * xtb version 6.7.1 (edcfbbe) compiled by 'albert@albert-system' on 2024-07-22

   ID    Z sym.   atoms
    1    6 C      1-6, 8-28, 30-39
    2    7 N      7, 29
    3    8 O      40, 41
    4    1 H      42-69

          program call               : xtb data2507/gas/IDAC-MCO/IDAC-MCO_gas_S0_finalOpt.xtbopt.xyz --gfn 2 --spinpol --tblite --uhf 2 --ohess vtight --parallel 40 --molden --ceasefiles --namespace data2507/gas/IDAC-MCO/IDAC-MCO_gas_T1_preOpt
 * total energy  :  -107.4930200 Eh     change        0.2982729E-07 Eh
 * total energy  :  -107.4957173 Eh     change       -0.2697329E-02 Eh
 * total energy  :  -107.4965191 Eh     change       -0.8017243E-03 Eh
 * total energy  :  -107.4965980 Eh     change       -0.7896270E-04 Eh
 * total energy  :  -107.4966340 Eh     change       -0.3597150E-04 Eh
 * total energy  :  -107.4966429 Eh     change       -0.8914517E-05 Eh
 * total energy  :  -107.4966517 Eh     change       -0.8791112E-05 Eh
 * total energy  :  -107.4966571 Eh     change       -0.5412863E-05 Eh
 * total energy  :  -107.4966645 Eh     change       -0.7345291E-05 Eh
 * total energy  :  -107.4966677 Eh     change       -0.3266357E-05 Eh
 * total energy  :  -107.4966940 Eh     change       -0.1631541E-06 Eh
 * total energy  :  -107.4966941 Eh     change       -0.1215320E-06 Eh
 * total energy  :  -107.4966943 Eh     change       -0.1817497E-06 Eh
 * total energy  :  -107.4966945 Eh     change       -0.2015605E-06 Eh
 * total energy  :  -107.4966948 Eh     change       -0.2428231E-06 Eh
 * total energy  :  -107.4966950 Eh     change       -0.1956650E-06 Eh
 * total energy  :  -107.4966951 Eh     change       -0.1342088E-06 Eh
 * total energy  :  -107.4966953 Eh     change       -0.2309508E-06 Eh
 * total energy  :  -107.4966954 Eh     change       -0.7313776E-07 Eh
   *** GEOMETRY OPTIMIZATION CONVERGED AFTER 38 ITERATIONS ***

 final structure:
================
69
 xtb: 6.7.1 (edcfbbe)
C            8.54622410285244       -0.21997060250416        1.80967652227086
C            7.28173933212960       -0.42817733363073        1.03976771400934
C            6.16877501512566        0.31284052115731        1.18127987590075
C            5.01009108613567        0.02691361455285        0.38288382177024
C            3.83356009355712        0.74796804966230        0.47741657718802
C            2.72709944091352        0.41170450909289       -0.31386404820146
N            1.53928386312775        1.12379730919080       -0.20528664681937
C            1.42483023091005        2.51833785861202       -0.17185829586819
C            2.40429583435062        3.47727609724007       -0.27996979960666
C            2.01253465580217        4.82052153047892       -0.24819703410908
C            0.67612196684817        5.17198443124591       -0.11631169647838
C           -0.31849057881493        4.21194595796617       -0.03419592487350
C            0.04830071373298        2.86468575422585       -0.07687158069260
C           -0.68097915356477        1.64835128184373       -0.06874066322913
C           -2.02740889627498        1.32472451525451       -0.00990334627200
C           -2.41758371249366       -0.01769294900397        0.01182976229051
C           -1.44960074699850       -1.07056893943803        0.00313862638069
C           -0.10219987683337       -0.74182059573599       -0.07384266635425
C            0.28926171441092        0.58314690037015       -0.14122379391548
C           -1.84979568983587       -2.52587774975155        0.08658609358852
C           -1.30881503701064       -3.26243831154006       -1.15509945191675
C           -1.24235208001049       -3.13526941909677        1.36572983342902
C           -3.35001135530527       -2.70767898861500        0.13474311619446
C           -3.89120023178785       -3.98393672038734        0.20138526972496
C           -5.25650247017338       -4.19971624593799        0.23959310304810
C           -6.12100607728437       -3.11583760655605        0.20782471220462
C           -5.61426628629798       -1.83786103130496        0.14530187135241
C           -4.23029959833846       -1.61557210307073        0.11338979118047
N           -3.75145880891570       -0.32004469370967        0.06078670488292
C           -4.69594439725547        0.75019246794566        0.06132272261184
C           -5.16823071236188        1.25355060494220        1.26759794588847
C           -6.08293170385103        2.29173203273081        1.26288320644750
C           -6.52486637632943        2.82559174778646        0.06254137696899
C           -6.05080265824379        2.32096068290243       -1.13861947274378
C           -5.13590740548855        1.28302044947142       -1.14404707153914
C            2.82476010422304       -0.66295215479892       -1.22604454989131
C            3.98449734228911       -1.37457837458799       -1.33419488335282
C            5.10214687976134       -1.05700228918053       -0.53035757375792
C            6.30894424081569       -1.82690651364512       -0.64637009486617
O            6.48840698037364       -2.77326292553580       -1.38673534052696
O            7.37419207436393       -1.45782254672843        0.16925527083317
H            8.79268350327058       -1.12461523727049        2.36323723633173
H            8.44239028465395        0.61140632127139        2.49967841846232
H            9.36684990394498       -0.02251700183704        1.12183769135970
H            6.13870267667555        1.12476683734320        1.88904171572902
H            3.75017110670086        1.54457997143194        1.20164405318376
H            3.44335627535111        3.21538549507261       -0.40481982378566
H            2.76458708106793        5.58928440363389       -0.33229577926293
H            0.40702118680520        6.21789148044406       -0.08757111053407
H           -1.35706929425191        4.49157648855014        0.05537765221169
H           -2.76522236618152        2.10966320399432        0.02316821748753
H            0.64660274606537       -1.51719095037434       -0.06536533145235
H           -1.72995277583188       -2.82547684836536       -2.05854846492748
H           -0.22704020606303       -3.18391715430262       -1.20647729937863
H           -1.57051976750297       -4.31613412509044       -1.12878424831048
H           -1.48175572962788       -4.19171996248490        1.44565797510639
H           -0.16146214873208       -3.02984247775718        1.36334322957643
H           -1.63540157976531       -2.62488500281405        2.24295822124130
H           -3.23333692506197       -4.83879357080457        0.22414430908485
H           -5.64351011849746       -5.20548923173316        0.29117466055329
H           -7.18917055891418       -3.26786056111663        0.23198412832059
H           -6.28947613947238       -0.99694547330648        0.11958696530469
H           -4.81463601888930        0.82972384673047        2.19560356910360
H           -6.44993034321989        2.68502296154374        2.19867910030156
H           -7.23794515441381        3.63564111246542        0.06286720960194
H           -6.39328438393613        2.73670750452668       -2.07392716209630
H           -4.75703034593248        0.88243927692669       -2.07237063507141
H            1.98509623899130       -0.87565974661809       -1.87120118377703
H            4.08563324107480       -2.18582112146421       -2.03802998699631

 projected vibrational frequencies (cm⁻¹)
eigval :       -0.00    -0.00    -0.00     0.00     0.00     0.00
eigval :       12.04    20.21    22.42    27.55    34.20    48.15
eigval :       51.82    55.73    75.29    81.56    97.15   107.87
eigval :      113.41   125.11   131.97   141.69   148.66   158.81
eigval :      161.96   196.16   204.11   213.16   217.73   240.98
eigval :      251.39   256.64   271.89   277.05   289.97   295.21
eigval :      322.03   333.86   336.43   360.56   363.91   371.17
eigval :      388.25   396.19   413.52   419.53   427.04   432.71
eigval :      443.12   473.24   493.00   499.49   506.31   512.42
eigval :      527.65   529.31   536.66   542.92   556.95   563.03
eigval :      572.76   579.04   591.77   601.81   615.70   617.89
eigval :      627.54   651.96   658.27   664.29   666.17   668.31
eigval :      677.43   692.73   700.70   710.56   750.73   751.70
eigval :      757.87   773.38   784.74   802.03   811.60   818.10
eigval :      829.86   834.56   853.75   860.77   867.42   867.87
eigval :      869.03   886.87   893.03   901.05   904.77   915.34
eigval :      915.52   917.71   921.13   922.43   927.11   932.48
eigval :      956.43   956.62   965.15   981.46   986.59  1004.82
eigval :     1012.22  1022.26  1032.05  1064.05  1071.11  1075.59
eigval :     1082.98  1096.77  1110.24  1111.41  1128.45  1144.55
eigval :     1145.80  1153.15  1157.33  1161.92  1164.20  1172.73
eigval :     1180.86  1187.64  1198.69  1209.85  1222.42  1225.83
eigval :     1231.60  1241.37  1245.50  1250.78  1260.01  1262.30
eigval :     1281.97  1288.58  1300.86  1306.86  1313.95  1314.45
eigval :     1330.98  1341.46  1341.82  1352.87  1381.89  1389.84
eigval :     1398.50  1401.15  1403.01  1406.92  1412.49  1418.88
eigval :     1426.83  1429.10  1437.29  1438.31  1449.96  1452.46
eigval :     1453.91  1460.41  1467.37  1469.60  1486.02  1488.25
eigval :     1490.48  1495.90  1498.63  1501.74  1522.00  1543.63
eigval :     1564.80  1565.96  1578.59  1640.72  1681.10  3012.73
eigval :     3027.54  3028.18  3029.72  3045.09  3048.04  3054.33
eigval :     3058.65  3061.86  3075.66  3079.87  3084.63  3084.74
eigval :     3085.48  3087.49  3088.26  3092.22  3092.69  3093.08
eigval :     3097.77  3101.72  3102.52  3103.35  3104.08  3104.32
eigval :     3107.00  3108.45  3110.14

   temp. (K)  partition function   enthalpy   heat capacity  entropy
                                   cal/mol     cal/K/mol   cal/K/mol   J/K/mol
 298.15  VIB  0.532E+15            19840.738    126.204    122.014
         ROT  0.533E+08              888.752      2.981     38.338
         INT  0.283E+23            20729.490    129.185    160.351
         TR   0.119E+29             1481.254      4.968     44.684
         TOT                       22210.7442   134.1533   205.0350   857.8665

       T/K    H(0)-H(T)+PV         H(T)/Eh          T*S/Eh         G(T)/Eh
   ------------------------------------------------------------------------
    298.15    0.353951E-01    0.566711E+00    0.974188E-01    0.469293E+00
   ------------------------------------------------------------------------

         :::::::::::::::::::::::::::::::::::::::::::::::::::::
         ::                  THERMODYNAMIC                  ::
         :::::::::::::::::::::::::::::::::::::::::::::::::::::
         :: total free energy        -107.027402955718 Eh   ::
         ::.................................................::
         :: total energy             -107.496695489744 Eh   ::
         :: zero point energy           0.531316216346 Eh   ::
         :: G(RRHO) w/o ZPVE           -0.062023682321 Eh   ::
         :: G(RRHO) contrib.            0.469292534026 Eh   ::
         :::::::::::::::::::::::::::::::::::::::::::::::::::::

           -------------------------------------------------
          | TOTAL ENERGY             -107.496695489744 Eh   |
          | TOTAL ENTHALPY           -106.929984199539 Eh   |
          | TOTAL FREE ENERGY        -107.027402955718 Eh   |
          | GRADIENT NORM               0.000085064865 Eh/α |
           -------------------------------------------------

 * finished run on 2025/08/29 at 14:03:08.971
