   * xtb version 6.7.1 (edcfbbe) compiled by 'albert@albert-system' on 2024-07-22

   ID    Z sym.   atoms
    1    6 C      1-6, 8-28, 30-39
    2    7 N      7, 29
    3    8 O      40, 41
    4    1 H      42-69

          program call               : xtb data2507/gas/IDAC-MCO/IDAC-MCO.xyz --gfn 2 --ohess vtight --parallel 40 --molden --ceasefiles --namespace data2507/gas/IDAC-MCO/IDAC-MCO_gas_S0_preOpt
          :  Hamiltonian                  GFN2-xTB          :
 * total energy  :  -107.5605163 Eh     change       -0.3013767E-08 Eh
 * total energy  :  -107.5777875 Eh     change       -0.1727118E-01 Eh
 * total energy  :  -107.5840566 Eh     change       -0.6269094E-02 Eh
 * total energy  :  -107.5851852 Eh     change       -0.1128656E-02 Eh
 * total energy  :  -107.5855382 Eh     change       -0.3529946E-03 Eh
 * total energy  :  -107.5856203 Eh     change       -0.8209331E-04 Eh
 * total energy  :  -107.5856522 Eh     change       -0.3189130E-04 Eh
 * total energy  :  -107.5856756 Eh     change       -0.2343508E-04 Eh
 * total energy  :  -107.5856911 Eh     change       -0.1542162E-04 Eh
 * total energy  :  -107.5857064 Eh     change       -0.1536237E-04 Eh
 * total energy  :  -107.5857740 Eh     change       -0.5571922E-06 Eh
 * total energy  :  -107.5857743 Eh     change       -0.3173785E-06 Eh
 * total energy  :  -107.5857746 Eh     change       -0.2720455E-06 Eh
 * total energy  :  -107.5857749 Eh     change       -0.3328383E-06 Eh
 * total energy  :  -107.5857752 Eh     change       -0.2997214E-06 Eh
 * total energy  :  -107.5857755 Eh     change       -0.2807162E-06 Eh
 * total energy  :  -107.5857757 Eh     change       -0.2284118E-06 Eh
 * total energy  :  -107.5857759 Eh     change       -0.1266040E-06 Eh
 * total energy  :  -107.5857759 Eh     change       -0.2681061E-07 Eh
   *** GEOMETRY OPTIMIZATION CONVERGED AFTER 43 ITERATIONS ***

 final structure:
================
69
 xtb: 6.7.1 (edcfbbe)
C            8.79664746672326       -0.73729011721160        1.47138761216223
C            7.50473104457172       -0.85944983890479        0.73337751202488
C            6.44052995247873       -0.05215538147729        0.89749125674112
C            5.25248141169700       -0.27417012569176        0.12553790403623
C            4.11226516536505        0.51872242194109        0.24978952115513
C            2.98833953451207        0.25964850561495       -0.52044265896833
N            1.85168701707534        1.05373102704580       -0.39750823986137
C            1.81650025183708        2.43663509791449       -0.37604494296140
C            2.84888490874353        3.35197317636249       -0.51901414604506
C            2.52952650006362        4.69684149430361       -0.49712611894361
C            1.21480861462542        5.13053140534437       -0.34811132348272
C            0.17862627368056        4.22451005092599       -0.23665983949484
C            0.47534284486534        2.86904688063724       -0.25560418747464
C           -0.33280453627058        1.68301748651517       -0.19502920584740
C           -1.69144303038769        1.46380645087504       -0.05508969880130
C           -2.17609566593613        0.15736627611472       -0.00726820375319
C           -1.28892668597233       -0.93424223251017       -0.05651411788467
C            0.07209478986612       -0.70588036390022       -0.19163121512456
C            0.54784639729076        0.58908153334519       -0.29025473927797
C           -1.77223245099904       -2.36906617457820        0.04860472656345
C           -1.33777707581766       -3.12928755169226       -1.21837722132275
C           -1.13954091673176       -3.01110925435036        1.29725759762780
C           -3.28128682817698       -2.45673049549730        0.17238731516415
C           -3.88929917704254       -3.70089004623476        0.26600180565046
C           -5.26060684787315       -3.84199856072791        0.37050041553620
C           -6.05805581602134       -2.71175595976139        0.37604510083978
C           -5.48043553361556       -1.46324340964094        0.28684679193844
C           -4.09276946424194       -1.31778088629774        0.19309079085420
N           -3.54154996722573       -0.05152014547337        0.11330839629772
C           -4.40482474857201        1.07923688748918        0.15015903885259
C           -4.84589081214846        1.57639422998594        1.37006222802596
C           -5.68578162545941        2.67537776550286        1.40245410629903
C           -6.08416560692528        3.28105760017988        0.22223848645099
C           -5.64297948750655        2.78641745554593       -0.99398570923930
C           -4.80497272047764        1.68627354551089       -1.03357894231903
C            2.99611929097002       -0.81016863206952       -1.43018053531372
C            4.10994280049628       -1.60300802393554       -1.55371488395999
C            5.24714993096907       -1.34847315308194       -0.78230969449361
C            6.42385871279388       -2.19756142622701       -0.92673354425437
O            6.51964804658510       -3.13959786327504       -1.67359797498317
O            7.50543701029670       -1.88989026128246       -0.14235908281541
H            8.99403807548378       -1.65589809985443        2.02149264396957
H            8.76615597164401        0.09962682964853        2.16133188081644
H            9.61259360604652       -0.59756115536344        0.76427156314902
H            6.47193200679694        0.76024815149995        1.60365884665873
H            4.10090653049790        1.32489536531815        0.96763954979316
H            3.86984774247953        3.03102256202126       -0.66032011079052
H            3.31820013674276        5.42707748429592       -0.60323634127072
H            1.00657459719542        6.18993497671868       -0.33259229387591
H           -0.84420711531589        4.55717361404749       -0.14270747083325
H           -2.36507250752748        2.30200222793598        0.02325747013112
H            0.76229509112355       -1.53427685012691       -0.20558332675221
H           -1.67982430131671       -4.15977308207270       -1.18840364817596
H           -1.76388680052327       -2.65272040086402       -2.09934236422330
H           -0.25590695984282       -3.13567023920460       -1.31873638080815
H           -1.45504437234632       -4.04535959761322        1.40171980870445
H           -0.05458208044792       -2.99101566175406        1.24029095446145
H           -1.44706675315160       -2.46684072899229        2.18827996406458
H           -3.27986385255336       -4.59208650178126        0.25750750130647
H           -5.70035719779426       -4.82499290104209        0.44277532677140
H           -7.13191026799465       -2.79920215940251        0.44916871647460
H           -6.10850123241391       -0.58550678368693        0.28731349759689
H           -4.52889591801625        1.09498253966732        2.28340691671897
H           -6.02889448000968        3.06045107398713        2.35122365913390
H           -6.73928257710365        4.13887482699448        0.25031775323400
H           -5.95382067182506        3.25727291416033       -1.91473056167091
H           -4.45394161389360        1.29170829347383       -1.97563059139887
H            2.12782021644335       -0.98233191012908       -2.04712202300274
H            4.13966675950971       -2.42643417522215       -2.25066131977702

          :  Hamiltonian                  GFN2-xTB          :
         :: gradient norm              0.000081988763 Eh/a0 ::
         :: HOMO-LUMO gap              1.808948489113 eV    ::
         :: SCC energy              -109.446070051635 Eh    ::
         :: -> dispersion             -0.095028416530 Eh    ::
         :: repulsion energy           1.860294174527 Eh    ::

    * Orbital Energies and Occupations

         #    Occupation            Energy/Eh            Energy/eV
      -------------------------------------------------------------
         1        2.0000           -0.7499314             -20.4067
       ...           ...                  ...                  ...
        87        2.0000           -0.4196734             -11.4199
        88        2.0000           -0.4178402             -11.3700
        89        2.0000           -0.4174691             -11.3599
        90        2.0000           -0.4162674             -11.3272
        91        2.0000           -0.4074259             -11.0866
        92        2.0000           -0.4066785             -11.0663
        93        2.0000           -0.4057781             -11.0418
        94        2.0000           -0.4046069             -11.0099
        95        2.0000           -0.3931838             -10.6991
        96        2.0000           -0.3919926             -10.6667
        97        2.0000           -0.3815077             -10.3814
        98        2.0000           -0.3702030             -10.0737
        99        2.0000           -0.3391129              -9.2277 (HOMO)
       100                         -0.2726354              -7.4188 (LUMO)
       101                         -0.2635249              -7.1709
       102                         -0.2450354              -6.6678
       103                         -0.2368645              -6.4454
       104                         -0.2357676              -6.4156
       105                         -0.2236393              -6.0855
       106                         -0.2149948              -5.8503
       107                         -0.2096951              -5.7061
       108                         -0.2017676              -5.4904
       109                         -0.1933019              -5.2600
       110                         -0.1806109              -4.9147
       ...                                ...                  ...
       192                          0.7479141              20.3518
      -------------------------------------------------------------
                  HL-Gap            0.0664775 Eh            1.8089 eV

     #   Z          covCN         q      C6AA      α(0)
     1   6 C        3.756    -0.124    22.934     6.828
     2   6 C        2.846     0.149    24.754     8.154
     3   6 C        2.906    -0.083    30.073     8.992
     4   6 C        2.986     0.026    27.418     8.589
     5   6 C        2.923    -0.055    29.367     8.887
     6   6 C        2.910     0.073    26.360     8.419
     7   7 N        2.801    -0.042    22.043     6.973
     8   6 C        3.071     0.046    26.896     8.503
     9   6 C        2.910    -0.051    29.278     8.873
    10   6 C        2.924    -0.034    28.842     8.807
    11   6 C        2.920    -0.041    29.008     8.832
    12   6 C        2.913    -0.033    28.815     8.802
    13   6 C        3.069    -0.016    28.332     8.728
    14   6 C        3.064    -0.018    28.393     8.738
    15   6 C        2.918    -0.064    29.601     8.922
    16   6 C        2.926     0.052    26.843     8.497
    17   6 C        2.981    -0.014    28.355     8.735
    18   6 C        2.917    -0.057    29.418     8.894
    19   6 C        3.070     0.034    27.175     8.548
    20   6 C        3.909     0.022    20.142     6.379
    21   6 C        3.761    -0.103    22.512     6.764
    22   6 C        3.761    -0.103    22.510     6.763
    23   6 C        2.980    -0.016    28.396     8.741
    24   6 C        2.928    -0.036    28.907     8.817
    25   6 C        2.917    -0.046    29.133     8.851
    26   6 C        2.920    -0.033    28.825     8.804
    27   6 C        2.924    -0.060    29.480     8.904
    28   6 C        2.928     0.058    26.694     8.473
    29   7 N        2.755    -0.072    22.631     7.065
    30   6 C        2.929     0.070    26.424     8.430
    31   6 C        2.922    -0.037    28.925     8.820
    32   6 C        2.920    -0.028    28.696     8.785
    33   6 C        2.920    -0.031    28.763     8.795
    34   6 C        2.920    -0.028    28.694     8.784
    35   6 C        2.922    -0.037    28.923     8.819
    36   6 C        2.920    -0.045    29.107     8.847
    37   6 C        2.919    -0.020    28.518     8.757
    38   6 C        2.980    -0.040    28.994     8.833
    39   6 C        2.717     0.340    21.228     7.542
    40   8 O        0.857    -0.399    21.652     6.239
    41   8 O        1.709    -0.225    17.731     5.685
    42   1 H        0.925     0.076     2.021     2.223
    43   1 H        0.925     0.061     2.191     2.315
    44   1 H        0.925     0.076     2.020     2.222
    45   1 H        0.926     0.050     2.325     2.385
    46   1 H        0.926     0.047     2.356     2.400
    47   1 H        0.926     0.027     2.627     2.535
    48   1 H        0.926     0.029     2.596     2.520
    49   1 H        0.926     0.028     2.610     2.526
    50   1 H        0.926     0.030     2.581     2.512
    51   1 H        0.926     0.029     2.602     2.523
    52   1 H        0.926     0.033     2.545     2.494
    53   1 H        0.925     0.041     2.440     2.443
    54   1 H        0.925     0.032     2.564     2.504
    55   1 H        0.925     0.037     2.483     2.464
    56   1 H        0.925     0.041     2.440     2.443
    57   1 H        0.925     0.037     2.489     2.467
    58   1 H        0.925     0.031     2.569     2.507
    59   1 H        0.926     0.029     2.604     2.524
    60   1 H        0.926     0.025     2.657     2.549
    61   1 H        0.926     0.026     2.643     2.542
    62   1 H        0.926     0.023     2.687     2.564
    63   1 H        0.926     0.041     2.437     2.441
    64   1 H        0.926     0.038     2.480     2.462
    65   1 H        0.926     0.037     2.491     2.468
    66   1 H        0.926     0.038     2.476     2.461
    67   1 H        0.926     0.041     2.434     2.440
    68   1 H        0.926     0.051     2.313     2.378
    69   1 H        0.926     0.065     2.144     2.290

molecular dipole:
                 x           y           z       tot (Debye)
 q only:       -0.561       1.449       1.048
   full:       -0.556       1.611       1.147       5.221

 projected vibrational frequencies (cm⁻¹)
eigval :       -0.00    -0.00     0.00     0.00     0.00     0.00
eigval :       11.83    18.21    21.12    26.21    33.69    46.95
eigval :       49.95    54.05    72.29    83.46    95.99   107.37
eigval :      112.70   125.03   129.85   150.87   154.83   158.45
eigval :      165.04   190.76   208.61   213.93   220.79   242.04
eigval :      253.21   262.66   275.40   278.93   296.34   301.04
eigval :      327.02   338.52   341.59   365.87   373.60   382.55
eigval :      387.56   404.90   421.88   426.52   433.91   438.31
eigval :      451.42   476.89   491.51   502.79   507.25   518.77
eigval :      531.80   534.67   541.06   543.94   563.48   573.42
eigval :      580.29   590.27   592.01   620.56   628.47   636.77
eigval :      650.61   665.83   670.66   672.94   674.87   677.27
eigval :      689.22   704.13   720.71   736.65   760.83   768.92
eigval :      775.32   777.06   789.90   822.00   829.92   832.41
eigval :      846.86   864.79   867.05   873.38   876.58   882.40
eigval :      889.80   899.84   905.30   908.78   913.56   920.72
eigval :      921.06   923.10   929.26   933.32   933.91   937.75
eigval :      956.68   979.37   984.87   995.33  1005.31  1014.63
eigval :     1022.81  1025.27  1049.88  1073.28  1078.11  1083.39
eigval :     1089.72  1113.17  1117.91  1121.55  1133.48  1149.41
eigval :     1156.45  1158.79  1169.36  1179.35  1180.53  1180.64
eigval :     1187.35  1194.77  1210.68  1217.54  1231.62  1237.51
eigval :     1241.06  1246.24  1255.63  1265.99  1273.06  1280.52
eigval :     1293.13  1309.12  1313.22  1328.00  1330.76  1339.87
eigval :     1348.78  1361.58  1367.63  1388.65  1393.06  1403.24
eigval :     1418.41  1421.88  1433.00  1441.51  1446.35  1448.29
eigval :     1451.06  1458.39  1463.13  1471.81  1475.17  1484.43
eigval :     1489.91  1492.04  1493.56  1501.59  1505.66  1539.64
eigval :     1566.23  1581.06  1582.81  1583.64  1589.59  1595.05
eigval :     1598.92  1602.92  1619.16  1640.84  1737.92  3016.20
eigval :     3026.25  3028.44  3030.89  3038.56  3041.48  3049.16
eigval :     3053.29  3068.26  3076.80  3077.31  3079.05  3081.44
eigval :     3081.55  3081.81  3088.93  3089.20  3092.97  3093.47
eigval :     3094.95  3096.15  3096.27  3098.65  3098.85  3099.54
eigval :     3106.53  3107.32  3119.39

   temp. (K)  partition function   enthalpy   heat capacity  entropy
                                   cal/mol     cal/K/mol   cal/K/mol   J/K/mol
 298.15  VIB  0.558E+15            19591.679    124.107    120.784
         ROT  0.534E+08              888.752      2.981     38.341
         INT  0.298E+23            20480.432    127.088    159.125
         TR   0.119E+29             1481.254      4.968     44.684
         TOT                       21961.6855   132.0558   203.8089   852.7363

       T/K    H(0)-H(T)+PV         H(T)/Eh          T*S/Eh         G(T)/Eh
   ------------------------------------------------------------------------
    298.15    0.349982E-01    0.571782E+00    0.968362E-01    0.474946E+00
   ------------------------------------------------------------------------

         :::::::::::::::::::::::::::::::::::::::::::::::::::::
         ::                  THERMODYNAMIC                  ::
         :::::::::::::::::::::::::::::::::::::::::::::::::::::
         :: total free energy        -107.110830065352 Eh   ::
         ::.................................................::
         :: total energy             -107.585775877109 Eh   ::
         :: zero point energy           0.536783802231 Eh   ::
         :: G(RRHO) w/o ZPVE           -0.061837990474 Eh   ::
         :: G(RRHO) contrib.            0.474945811757 Eh   ::
         :::::::::::::::::::::::::::::::::::::::::::::::::::::

           -------------------------------------------------
          | TOTAL ENERGY             -107.585775877109 Eh   |
          | TOTAL ENTHALPY           -107.013993901282 Eh   |
          | TOTAL FREE ENERGY        -107.110830065352 Eh   |
          | GRADIENT NORM               0.000081980775 Eh/α |
          | HOMO-LUMO GAP               1.808945818257 eV   |
           -------------------------------------------------

 * finished run on 2025/08/29 at 13:59:52.554
