   * xtb version 6.7.1 (edcfbbe) compiled by 'albert@albert-system' on 2024-07-22

   ID    Z sym.   atoms
    1    6 C      1-6, 8-28, 30-39
    2    7 N      7, 29
    3    8 O      40, 41
    4    1 H      42-69

          program call               : xtb data2507/gas/IDAC-MCO/IDAC-MCO_gas_S0_crest.xyz --gfn 2 --ohess vtight --parallel 40 --molden --ceasefiles --namespace data2507/gas/IDAC-MCO/IDAC-MCO_gas_S0_finalOpt
          :  Hamiltonian                  GFN2-xTB          :
 * total energy  :  -107.5857676 Eh     change       -0.2981551E-08 Eh
 * total energy  :  -107.5857683 Eh     change       -0.7479030E-06 Eh
 * total energy  :  -107.5857691 Eh     change       -0.7253631E-06 Eh
 * total energy  :  -107.5857698 Eh     change       -0.7683496E-06 Eh
 * total energy  :  -107.5857708 Eh     change       -0.9736435E-06 Eh
 * total energy  :  -107.5857716 Eh     change       -0.8319833E-06 Eh
 * total energy  :  -107.5857721 Eh     change       -0.4417783E-06 Eh
 * total energy  :  -107.5857725 Eh     change       -0.4588407E-06 Eh
 * total energy  :  -107.5857733 Eh     change       -0.7989185E-06 Eh
 * total energy  :  -107.5857745 Eh     change       -0.1129958E-05 Eh
 * total energy  :  -107.5857753 Eh     change       -0.8695263E-06 Eh
 * total energy  :  -107.5857757 Eh     change       -0.3798793E-06 Eh
 * total energy  :  -107.5857759 Eh     change       -0.1452601E-06 Eh
 * total energy  :  -107.5857759 Eh     change       -0.9008214E-07 Eh
   *** GEOMETRY OPTIMIZATION CONVERGED AFTER 14 ITERATIONS ***

 final structure:
================
69
 xtb: 6.7.1 (edcfbbe)
C            8.53639571715405       -0.21268205239614        1.85893281145649
C            7.28036088851040       -0.41792061425923        1.07861195821007
C            6.16050216428800        0.31720813345194        1.20764474527116
C            5.01614861530980        0.02013239690974        0.39595733605244
C            3.82304625513387        0.73647313650638        0.48229514676561
C            2.74542666171172        0.40809771440623       -0.32677221969752
N            1.55639695361215        1.12679028240184       -0.24165550532724
C            1.43248117843365        2.50456789771138       -0.21398656575147
C            2.40825695001400        3.48491044099845       -0.31872635406271
C            2.00303962440186        4.80650935967184       -0.30051718560349
C            0.65922644812448        5.15462174053638       -0.19204246607496
C           -0.31994941195511        4.18364241858715       -0.11917097501917
C            0.06335818958689        2.85005336537651       -0.13551126304893
C           -0.66912577699681        1.61473337728168       -0.10867168513474
C           -2.01501776495310        1.30936085901002       -0.01581193597871
C           -2.41769370303902       -0.02527564175487        0.00610106030568
C           -1.46207740511426       -1.05834548499097       -0.01966435167692
C           -0.11432208437971       -0.74361476837257       -0.10619083013627
C            0.28186434362471        0.57947183886366       -0.18080054754465
C           -1.85709883546187       -2.52158220558386        0.06017048077142
C           -1.33325092425121       -3.24279205571149       -1.19577865600301
C           -1.22756424224858       -3.13264672181175        1.32582862737803
C           -3.36098031663384       -2.70501206858964        0.13111971549546
C           -3.89203107657801       -3.98576478651129        0.19514013348789
C           -5.25448519454097       -4.21389454407207        0.24942034128698
C           -6.12158067536346       -3.13626430502363        0.23236949387062
C           -5.62128639679599       -1.85315683605168        0.17168348197807
C           -4.24312043433042       -1.61967665886128        0.13007686620897
N           -3.77063318519114       -0.32050972391396        0.07811442750884
C           -4.70399109578544        0.75343626791595        0.09734795864050
C           -5.22600353134058        1.19759042562296        1.30573460159292
C           -6.13383177168607        2.24151682458003        1.32142814608294
C           -6.51960602237838        2.84539656687690        0.13611305135498
C           -5.99766807964089        2.40388741069843       -1.06853617597527
C           -5.09160905555772        1.35858450798156       -1.09156281536394
C            2.85421311793552       -0.65530647896831       -1.23754442616450
C            4.02073023327117       -1.37393020538504       -1.32344138964216
C            5.11183446226677       -1.04908288625446       -0.51285890323700
C            6.34552272585211       -1.81947634851038       -0.61753307144783
O            6.52775325758320       -2.75134761825697       -1.36106185282428
O            7.37768910297819       -1.44397757597793        0.20312491193540
H            8.77428938531573       -1.11650558490109        2.41741765979911
H            8.42899186442387        0.62058752029162        2.54558064771810
H            9.36465932755591       -0.02062814471097        1.17896364662781
H            6.11490371356380        1.12806929333733        1.91481401420557
H            3.73471447128861        1.53728212970762        1.20078379845268
H            3.45169216754180        3.23092360315770       -0.42855130188456
H            2.74646149062211        5.58622325147463       -0.37723290266202
H            0.38337699981525        6.19847545430231       -0.17778786356981
H           -1.36449714404734        4.44958249289259       -0.05704626344333
H           -2.74216616342033        2.10299465823955        0.04609160185020
H            0.62679340604487       -1.52688704448662       -0.10094260828784
H           -1.76259981910813       -2.79021739984442       -2.08774935789306
H           -0.25079747524850       -3.17613726156122       -1.26190837620746
H           -1.60611590851448       -4.29403580520644       -1.18100637428149
H           -1.48433354373097       -4.18437059322759        1.41566655835380
H           -0.14443957799616       -3.04814153821394        1.30374352899616
H           -1.59497867836367       -2.61308281325527        2.20887573477052
H           -3.22754117536552       -4.83670383284524        0.20305303071640
H           -5.63351037859626       -5.22318496535712        0.29996783345017
H           -7.18969340717301       -3.29183288637939        0.26525898946106
H           -6.30334347211281       -1.01689125485263        0.15355407187295
H           -4.91800704520626        0.71825899567017        2.22325466282330
H           -6.53963650673021        2.58529349084444        2.26127265552641
H           -7.22764696694741        3.66041727090783        0.15119340702495
H           -6.29845154006592        2.87333078153214       -1.99335496408700
H           -4.67742285961943        1.00588812990475       -2.02453447530180
H            2.02102874672994       -0.88090630785425       -1.88490500921449
H            4.12770601667596       -2.19114469039618       -2.02011724795547

          :  Hamiltonian                  GFN2-xTB          :
         :: gradient norm              0.000056359615 Eh/a0 ::
         :: HOMO-LUMO gap              1.810484437041 eV    ::
         :: SCC energy              -109.446057967970 Eh    ::
         :: -> dispersion             -0.095033415701 Eh    ::
         :: repulsion energy           1.860282023590 Eh    ::

    * Orbital Energies and Occupations

         #    Occupation            Energy/Eh            Energy/eV
      -------------------------------------------------------------
         1        2.0000           -0.7498989             -20.4058
       ...           ...                  ...                  ...
        87        2.0000           -0.4196586             -11.4195
        88        2.0000           -0.4178383             -11.3700
        89        2.0000           -0.4174826             -11.3603
        90        2.0000           -0.4162519             -11.3268
        91        2.0000           -0.4074268             -11.0866
        92        2.0000           -0.4066685             -11.0660
        93        2.0000           -0.4057858             -11.0420
        94        2.0000           -0.4046259             -11.0104
        95        2.0000           -0.3931619             -10.6985
        96        2.0000           -0.3920165             -10.6673
        97        2.0000           -0.3815308             -10.3820
        98        2.0000           -0.3702355             -10.0746
        99        2.0000           -0.3391502              -9.2287 (HOMO)
       100                         -0.2726161              -7.4183 (LUMO)
       101                         -0.2635026              -7.1703
       102                         -0.2450675              -6.6686
       103                         -0.2368380              -6.4447
       104                         -0.2357194              -6.4143
       105                         -0.2236762              -6.0865
       106                         -0.2150219              -5.8510
       107                         -0.2097356              -5.7072
       108                         -0.2017485              -5.4899
       109                         -0.1933278              -5.2607
       110                         -0.1806177              -4.9149
       ...                                ...                  ...
       192                          0.7479002              20.3514
      -------------------------------------------------------------
                  HL-Gap            0.0665341 Eh            1.8105 eV

     #   Z          covCN         q      C6AA      α(0)
     1   6 C        3.756    -0.124    22.934     6.828
     2   6 C        2.846     0.149    24.754     8.154
     3   6 C        2.906    -0.083    30.073     8.992
     4   6 C        2.986     0.026    27.418     8.589
     5   6 C        2.923    -0.055    29.368     8.887
     6   6 C        2.910     0.073    26.361     8.419
     7   7 N        2.801    -0.042    22.042     6.973
     8   6 C        3.071     0.046    26.896     8.503
     9   6 C        2.910    -0.051    29.278     8.873
    10   6 C        2.924    -0.034    28.842     8.807
    11   6 C        2.920    -0.041    29.008     8.832
    12   6 C        2.913    -0.033    28.815     8.802
    13   6 C        3.069    -0.016    28.332     8.728
    14   6 C        3.065    -0.018    28.393     8.738
    15   6 C        2.918    -0.064    29.601     8.922
    16   6 C        2.926     0.052    26.843     8.497
    17   6 C        2.981    -0.014    28.355     8.735
    18   6 C        2.917    -0.057    29.418     8.894
    19   6 C        3.070     0.034    27.176     8.548
    20   6 C        3.909     0.022    20.142     6.379
    21   6 C        3.761    -0.103    22.512     6.764
    22   6 C        3.761    -0.103    22.510     6.763
    23   6 C        2.980    -0.016    28.395     8.741
    24   6 C        2.928    -0.036    28.907     8.817
    25   6 C        2.917    -0.046    29.132     8.851
    26   6 C        2.920    -0.033    28.825     8.804
    27   6 C        2.924    -0.059    29.479     8.904
    28   6 C        2.928     0.058    26.694     8.473
    29   7 N        2.755    -0.072    22.629     7.065
    30   6 C        2.929     0.070    26.425     8.430
    31   6 C        2.922    -0.037    28.926     8.820
    32   6 C        2.920    -0.028    28.696     8.785
    33   6 C        2.920    -0.031    28.764     8.795
    34   6 C        2.920    -0.028    28.695     8.784
    35   6 C        2.922    -0.037    28.925     8.820
    36   6 C        2.920    -0.045    29.108     8.847
    37   6 C        2.919    -0.020    28.518     8.757
    38   6 C        2.980    -0.040    28.994     8.833
    39   6 C        2.717     0.340    21.228     7.542
    40   8 O        0.857    -0.399    21.652     6.239
    41   8 O        1.709    -0.225    17.731     5.685
    42   1 H        0.925     0.076     2.021     2.223
    43   1 H        0.925     0.061     2.191     2.315
    44   1 H        0.925     0.076     2.020     2.222
    45   1 H        0.926     0.050     2.325     2.385
    46   1 H        0.926     0.047     2.355     2.400
    47   1 H        0.926     0.027     2.626     2.534
    48   1 H        0.926     0.029     2.596     2.520
    49   1 H        0.926     0.028     2.609     2.526
    50   1 H        0.926     0.030     2.581     2.512
    51   1 H        0.926     0.029     2.601     2.522
    52   1 H        0.926     0.033     2.544     2.494
    53   1 H        0.925     0.032     2.564     2.504
    54   1 H        0.925     0.037     2.483     2.464
    55   1 H        0.925     0.041     2.440     2.443
    56   1 H        0.925     0.041     2.440     2.443
    57   1 H        0.925     0.037     2.488     2.467
    58   1 H        0.925     0.031     2.569     2.507
    59   1 H        0.926     0.029     2.604     2.523
    60   1 H        0.926     0.025     2.657     2.549
    61   1 H        0.926     0.026     2.643     2.542
    62   1 H        0.926     0.023     2.687     2.563
    63   1 H        0.926     0.041     2.438     2.442
    64   1 H        0.926     0.038     2.480     2.463
    65   1 H        0.926     0.037     2.491     2.468
    66   1 H        0.926     0.038     2.477     2.461
    67   1 H        0.926     0.041     2.434     2.440
    68   1 H        0.926     0.050     2.314     2.379
    69   1 H        0.926     0.065     2.145     2.290

molecular dipole:
                 x           y           z       tot (Debye)
 q only:       -0.689       1.408       1.031
   full:       -0.698       1.569       1.130       5.226

 projected vibrational frequencies (cm⁻¹)
eigval :       -0.00    -0.00    -0.00     0.00     0.00     0.00
eigval :       11.96    19.24    21.25    26.38    33.73    46.92
eigval :       49.96    54.16    71.63    83.41    96.00   107.40
eigval :      112.78   124.97   129.78   151.06   154.85   158.45
eigval :      164.98   190.66   208.62   214.01   220.78   242.07
eigval :      253.25   262.73   275.47   278.92   296.45   301.04
eigval :      326.89   338.53   341.72   365.94   373.70   382.51
eigval :      387.40   404.85   421.84   426.48   434.05   438.25
eigval :      451.47   476.94   491.65   502.76   507.27   518.75
eigval :      531.76   534.73   541.06   543.94   563.51   573.47
eigval :      580.28   590.24   592.00   620.50   628.49   636.77
eigval :      650.59   665.81   670.69   672.89   674.89   677.28
eigval :      689.26   704.13   720.70   736.63   760.81   768.91
eigval :      775.35   777.09   789.93   822.01   829.88   832.54
eigval :      846.83   864.88   867.03   873.37   876.66   882.44
eigval :      889.87   899.90   905.38   908.76   913.58   920.73
eigval :      921.03   923.16   929.32   933.29   933.91   937.73
eigval :      956.67   979.38   984.84   995.29  1005.20  1014.62
eigval :     1022.77  1025.27  1049.85  1073.33  1078.10  1083.44
eigval :     1089.78  1113.20  1117.97  1121.59  1133.47  1149.37
eigval :     1156.45  1158.76  1169.34  1179.45  1180.54  1180.63
eigval :     1187.37  1194.85  1210.68  1217.57  1231.65  1237.54
eigval :     1241.14  1246.23  1255.65  1266.06  1273.10  1280.47
eigval :     1293.17  1309.20  1313.30  1327.95  1330.72  1339.84
eigval :     1348.72  1361.59  1367.56  1388.56  1393.01  1403.23
eigval :     1418.37  1421.87  1432.99  1441.50  1446.34  1448.29
eigval :     1451.00  1458.39  1463.12  1471.84  1475.15  1484.40
eigval :     1489.88  1492.05  1493.52  1501.59  1505.63  1539.66
eigval :     1566.22  1581.04  1582.75  1583.64  1589.52  1595.00
eigval :     1598.88  1602.90  1619.22  1640.85  1737.89  3016.35
eigval :     3026.30  3028.49  3031.05  3038.61  3041.56  3049.21
eigval :     3053.36  3068.36  3076.81  3077.34  3079.02  3081.43
eigval :     3081.52  3081.87  3088.99  3089.16  3093.00  3093.44
eigval :     3095.08  3096.24  3096.32  3098.66  3098.93  3099.58
eigval :     3106.61  3107.61  3119.36

   temp. (K)  partition function   enthalpy   heat capacity  entropy
                                   cal/mol     cal/K/mol   cal/K/mol   J/K/mol
 298.15  VIB  0.520E+15            19589.820    124.109    120.726
         ROT  0.534E+08              888.752      2.981     38.341
         INT  0.278E+23            20478.572    127.090    159.067
         TR   0.119E+29             1481.254      4.968     44.684
         TOT                       21959.8259   132.0577   203.7505   852.4920

       T/K    H(0)-H(T)+PV         H(T)/Eh          T*S/Eh         G(T)/Eh
   ------------------------------------------------------------------------
    298.15    0.349952E-01    0.571787E+00    0.968084E-01    0.474978E+00
   ------------------------------------------------------------------------

         :::::::::::::::::::::::::::::::::::::::::::::::::::::
         ::                  THERMODYNAMIC                  ::
         :::::::::::::::::::::::::::::::::::::::::::::::::::::
         :: total free energy        -107.110797849796 Eh   ::
         ::.................................................::
         :: total energy             -107.585775944381 Eh   ::
         :: zero point energy           0.536791310681 Eh   ::
         :: G(RRHO) w/o ZPVE           -0.061813216096 Eh   ::
         :: G(RRHO) contrib.            0.474978094585 Eh   ::
         :::::::::::::::::::::::::::::::::::::::::::::::::::::

           -------------------------------------------------
          | TOTAL ENERGY             -107.585775944381 Eh   |
          | TOTAL ENTHALPY           -107.013989423634 Eh   |
          | TOTAL FREE ENERGY        -107.110797849796 Eh   |
          | GRADIENT NORM               0.000056276958 Eh/α |
          | HOMO-LUMO GAP               1.810485563781 eV   |
           -------------------------------------------------

 * finished run on 2025/08/29 at 14:03:01.476
