   * xtb version 6.7.1 (edcfbbe) compiled by 'albert@albert-system' on 2024-07-22

   ID    Z sym.   atoms
    1    6 C      1-6, 8-28, 30-39
    2    7 N      7, 29
    3    8 O      40, 41
    4    1 H      42-69

          program call               : xtb data2507/gas/IDAC-MCO/IDAC-MCO_gas_T1_crest.xyz --gfn 2 --spinpol --tblite --uhf 2 --ohess vtight --parallel 40 --molden --ceasefiles --namespace data2507/gas/IDAC-MCO/IDAC-MCO_gas_T1_finalOpt
 * total energy  :  -107.4966736 Eh     change       -0.4989786E-08 Eh
 * total energy  :  -107.4966807 Eh     change       -0.7116295E-05 Eh
 * total energy  :  -107.4966851 Eh     change       -0.4398707E-05 Eh
 * total energy  :  -107.4966859 Eh     change       -0.8823957E-06 Eh
 * total energy  :  -107.4966870 Eh     change       -0.1100854E-05 Eh
 * total energy  :  -107.4966882 Eh     change       -0.1166298E-05 Eh
 * total energy  :  -107.4966897 Eh     change       -0.1524302E-05 Eh
 * total energy  :  -107.4966908 Eh     change       -0.1087663E-05 Eh
 * total energy  :  -107.4966914 Eh     change       -0.5377596E-06 Eh
 * total energy  :  -107.4966917 Eh     change       -0.3588025E-06 Eh
 * total energy  :  -107.4966946 Eh     change       -0.7389687E-06 Eh
 * total energy  :  -107.4966950 Eh     change       -0.4218545E-06 Eh
 * total energy  :  -107.4966951 Eh     change       -0.8381160E-07 Eh
 * total energy  :  -107.4966948 Eh     change        0.2548736E-06 Eh
 * total energy  :  -107.4966952 Eh     change       -0.4027989E-06 Eh
 * total energy  :  -107.4966954 Eh     change       -0.1311664E-06 Eh
 * total energy  :  -107.4966955 Eh     change       -0.1217835E-06 Eh
 * total energy  :  -107.4966955 Eh     change        0.2513093E-07 Eh
 * total energy  :  -107.4966955 Eh     change       -0.4036613E-07 Eh
   *** GEOMETRY OPTIMIZATION CONVERGED AFTER 22 ITERATIONS ***

 final structure:
================
69
 xtb: 6.7.1 (edcfbbe)
C            8.55993976547253       -0.20308701967294        1.77803187110393
C            7.29107949930352       -0.41710049511504        1.01693469503219
C            6.17841932043596        0.32402803822621        1.16042624093822
C            5.01539657108316        0.03262955777803        0.37035519199015
C            3.83911548597470        0.75384494120902        0.46684550027412
C            2.72854315130729        0.41238109702002       -0.31645879588646
N            1.54109175811405        1.12482554677912       -0.20707054244091
C            1.42558839479864        2.51944629930733       -0.18235724616271
C            2.40402533705180        3.47851545320538       -0.29864583555637
C            2.01129057345254        4.82158481392200       -0.27443934188462
C            0.67486885102512        5.17282302028090       -0.14189345222488
C           -0.31880938065398        4.21253447043923       -0.05196529307283
C            0.04892930108861        2.86533162169247       -0.08701354698711
C           -0.67944326875791        1.64850859261909       -0.07029219064226
C           -2.02557562330839        1.32401159108487       -0.00972277367420
C           -2.41456313034907       -0.01864002244452        0.01919446459817
C           -1.44549674662586       -1.07058631805039        0.02054316947872
C           -0.09846268070601       -0.74108872327975       -0.05849768781647
C            0.29157802141655        0.58369629088040       -0.13691709413524
C           -1.84411493755402       -2.52536847116267        0.11921986018684
C           -1.29701321164009       -3.27624450679481       -1.11114457297675
C           -1.24118484095022       -3.11849949048224        1.40811694859034
C           -3.34428974933605       -2.70855239217406        0.16288993511743
C           -3.88420524639848       -3.98475346204004        0.24008055843182
C           -5.24943912300173       -4.20201325159448        0.27178577107405
C           -6.11515193796153       -3.11980835422579        0.22148801636050
C           -5.60967724596215       -1.84183302429288        0.14936406926788
C           -4.22581575268045       -1.61785643218207        0.12592170304599
N           -3.74830945223172       -0.32211456037126        0.06572192970023
C           -4.69393500104710        0.74695952911015        0.05510554031570
C           -5.18378733939154        1.24717509311011        1.25564343747874
C           -6.09952122155109        2.28435696927492        1.24029769354131
C           -6.52486827296932        2.82053110341257        0.03499686179236
C           -6.03324830750413        2.31912547637646       -1.16043723762206
C           -5.11738249986173        1.28204854641582       -1.15522795448156
C            2.82164559491231       -0.66816858544838       -1.22223548691103
C            3.98090742912103       -1.38019314761986       -1.33210406595094
C            5.10293778075203       -1.05697057257475       -0.53657949852705
C            6.30944240816024       -1.82679069545105       -0.65491430852238
O            6.48533609435378       -2.77768571176335       -1.39028953876052
O            7.37933991144267       -1.45182550084611        0.15217513816033
H            8.81416868734326       -1.10652544402909        2.33000485253168
H            8.45726531759987        0.62812085450772        2.46841549751198
H            9.37494528014735       -0.00215866178499        1.08449003102788
H            6.15187654331928        1.14017433665702        1.86345420476883
H            3.75940580060635        1.55484100665809        1.18662672827824
H            3.44300137892137        3.21662693717644       -0.42414773257865
H            2.76252096897460        5.59042027315111       -0.36497678062104
H            0.40502313651948        6.21868430495077       -0.11906582775203
H           -1.35742404569769        4.49195507071238        0.03790263530809
H           -2.76411288248386        2.10845805605855        0.01842003623891
H            0.65126645160957       -1.51546370942493       -0.04305524031369
H           -1.55736132497214       -4.32990897955691       -1.07301020891733
H           -1.71508017465116       -2.85099281591324       -2.02156996172998
H           -0.21514868590938       -3.19701857088623       -1.15915400531775
H           -1.47696193114205       -4.17496260833461        1.49817797049446
H           -0.16070705109679       -3.00873151708705        1.41016719143505
H           -1.64079829111789       -2.60019429923104        2.27770379377582
H           -3.22537760700210       -4.83839539457615        0.27630209888753
H           -5.63542901797635       -5.20770288769705        0.33190072357120
H           -7.18326690752379       -3.27309143938046        0.23879383091533
H           -6.28584432740523       -1.00226005909990        0.10911540816064
H           -4.84291530174106        0.82169213597872        2.18764810034248
H           -6.47996901087694        2.67531408848729        2.17168318521564
H           -7.23874820952100        3.62983661204106        0.02702667727117
H           -6.36305541994357        2.73646119272136       -2.09958351891894
H           -4.72496033467410        0.88391540243073       -2.07896430769182
H            1.97856769115639       -0.88513455622731       -1.86149276314430
H            4.07844149181447       -2.19593407855805       -2.03122635129043

 projected vibrational frequencies (cm⁻¹)
eigval :       -0.00    -0.00    -0.00    -0.00     0.00     0.00
eigval :       12.07    20.25    22.49    27.73    34.15    48.10
eigval :       51.69    55.83    75.55    81.64    97.20   107.95
eigval :      113.32   125.15   131.70   141.75   148.67   158.76
eigval :      162.09   196.17   203.95   213.45   217.75   241.13
eigval :      251.50   256.50   272.01   277.07   289.92   295.56
eigval :      322.00   333.79   335.94   360.58   364.23   371.21
eigval :      388.02   396.35   413.58   419.58   427.23   432.66
eigval :      443.05   473.04   492.99   499.35   506.68   512.45
eigval :      527.65   529.33   536.59   542.94   557.03   563.14
eigval :      572.86   579.09   591.80   601.78   615.69   617.79
eigval :      627.62   651.97   658.29   663.93   666.02   668.10
eigval :      677.50   692.73   700.66   710.22   750.18   752.98
eigval :      757.72   773.39   784.32   802.15   811.36   817.29
eigval :      829.85   834.60   853.77   860.32   867.46   867.91
eigval :      869.00   886.99   893.01   900.76   904.77   915.32
eigval :      915.43   917.76   921.12   922.39   927.04   932.06
eigval :      956.37   956.70   964.50   981.53   985.85  1004.71
eigval :     1012.22  1022.40  1032.50  1063.84  1071.70  1075.99
eigval :     1082.90  1096.92  1110.14  1111.45  1128.33  1144.60
eigval :     1145.73  1153.47  1157.78  1163.70  1164.27  1172.82
eigval :     1180.88  1188.55  1198.86  1209.80  1222.59  1225.81
eigval :     1231.42  1241.17  1245.88  1250.50  1259.97  1262.38
eigval :     1282.25  1288.66  1300.74  1306.73  1314.00  1314.52
eigval :     1331.07  1341.45  1343.06  1352.71  1382.08  1390.05
eigval :     1398.42  1401.18  1402.66  1406.95  1411.40  1418.86
eigval :     1426.70  1429.17  1437.03  1438.35  1450.05  1452.55
eigval :     1453.96  1460.43  1467.37  1470.03  1486.04  1488.20
eigval :     1491.16  1495.88  1498.42  1501.50  1522.07  1543.61
eigval :     1564.59  1566.09  1578.89  1640.74  1681.01  3012.75
eigval :     3027.77  3028.37  3030.00  3045.05  3048.09  3054.34
eigval :     3058.85  3061.93  3075.85  3080.13  3084.76  3084.97
eigval :     3085.55  3087.75  3088.38  3092.54  3093.01  3093.27
eigval :     3097.91  3101.96  3102.63  3103.64  3104.18  3104.64
eigval :     3107.31  3108.63  3110.28

   temp. (K)  partition function   enthalpy   heat capacity  entropy
                                   cal/mol     cal/K/mol   cal/K/mol   J/K/mol
 298.15  VIB  0.524E+15            19839.850    126.206    121.996
         ROT  0.533E+08              888.752      2.981     38.338
         INT  0.279E+23            20728.603    129.187    160.334
         TR   0.119E+29             1481.254      4.968     44.684
         TOT                       22209.8567   134.1553   205.0174   857.7927

       T/K    H(0)-H(T)+PV         H(T)/Eh          T*S/Eh         G(T)/Eh
   ------------------------------------------------------------------------
    298.15    0.353937E-01    0.566728E+00    0.974104E-01    0.469318E+00
   ------------------------------------------------------------------------

         :::::::::::::::::::::::::::::::::::::::::::::::::::::
         ::                  THERMODYNAMIC                  ::
         :::::::::::::::::::::::::::::::::::::::::::::::::::::
         :: total free energy        -107.027377649010 Eh   ::
         ::.................................................::
         :: total energy             -107.496695523488 Eh   ::
         :: zero point energy           0.531334584338 Eh   ::
         :: G(RRHO) w/o ZPVE           -0.062016709860 Eh   ::
         :: G(RRHO) contrib.            0.469317874478 Eh   ::
         :::::::::::::::::::::::::::::::::::::::::::::::::::::

           -------------------------------------------------
          | TOTAL ENERGY             -107.496695523488 Eh   |
          | TOTAL ENTHALPY           -106.929967279535 Eh   |
          | TOTAL FREE ENERGY        -107.027377649010 Eh   |
          | GRADIENT NORM               0.000105630385 Eh/α |
           -------------------------------------------------

 * finished run on 2025/08/29 at 14:07:10.668
