   * xtb version 6.7.1 (edcfbbe) compiled by 'albert@albert-system' on 2024-07-22

   ID    Z sym.   atoms
    1    6 C      1-9, 11-15, 17-22, 24-27, 29-45, 47-54
    2    7 N      10, 28, 46
    3    8 O      16, 23
    4    1 H      55-93

          program call               : xtb data2507/gas/26DAcBPy/26DAcBPy_gas_S0_finalOpt.xtbopt.xyz --gfn 2 --spinpol --tblite --uhf 2 --ohess vtight --parallel 40 --molden --ceasefiles --namespace data2507/gas/26DAcBPy/26DAcBPy_gas_T1_preOpt
 * total energy  :  -141.6917319 Eh     change        0.8247468E-08 Eh
 * total energy  :  -141.6941983 Eh     change       -0.2466419E-02 Eh
 * total energy  :  -141.6950892 Eh     change       -0.8908990E-03 Eh
 * total energy  :  -141.6952841 Eh     change       -0.1948943E-03 Eh
 * total energy  :  -141.6954489 Eh     change       -0.1647771E-03 Eh
 * total energy  :  -141.6955410 Eh     change       -0.9208496E-04 Eh
 * total energy  :  -141.6956159 Eh     change       -0.7490128E-04 Eh
 * total energy  :  -141.6956769 Eh     change       -0.6103049E-04 Eh
 * total energy  :  -141.6957452 Eh     change       -0.6833039E-04 Eh
 * total energy  :  -141.6958119 Eh     change       -0.6666879E-04 Eh
 * total energy  :  -141.6960664 Eh     change       -0.1108018E-06 Eh
 * total energy  :  -141.6960668 Eh     change       -0.4527614E-06 Eh
 * total energy  :  -141.6960670 Eh     change       -0.1530370E-06 Eh
 * total energy  :  -141.6960671 Eh     change       -0.1510471E-06 Eh
 * total energy  :  -141.6960673 Eh     change       -0.1566918E-06 Eh
 * total energy  :  -141.6960674 Eh     change       -0.1487733E-06 Eh
 * total energy  :  -141.6960676 Eh     change       -0.1451191E-06 Eh
 * total energy  :  -141.6960677 Eh     change       -0.1287198E-06 Eh
 * total energy  :  -141.6960678 Eh     change       -0.8927714E-07 Eh
   *** GEOMETRY OPTIMIZATION CONVERGED AFTER 77 ITERATIONS ***

 final structure:
================
93
 xtb: 6.7.1 (edcfbbe)
C           -4.10399418671612       -2.47490153789439        1.18047006909938
C           -4.16288563356631       -2.70814480333253       -0.34616631577727
C           -5.62545187696227       -2.90857298613436       -0.74242081484058
C           -3.30133785580733       -3.91077848636672       -0.66166821485693
C           -3.80335298586396       -5.18276275825892       -0.88298788735835
C           -2.96094648503552       -6.26541841022358       -1.07228078069776
C           -1.58884516093065       -6.08354139999443       -1.04593927867440
C           -1.06557971574417       -4.82323794526404       -0.84807652350681
C           -1.91149124427488       -3.72916440559524       -0.65327528639330
N           -1.37339023363228       -2.45288360210714       -0.51162766843558
C           -0.03351219173349       -2.36298184977063       -0.06984764735996
C            0.28220895550247       -2.90422992911836        1.18104137594112
C            1.57164967691256       -2.88207120383581        1.65072046379414
C            2.59992188528360       -2.28230441815599        0.90303614678191
C            3.95523728575107       -2.33030879953375        1.45760031450375
O            4.22086413600038       -3.10693049987081        2.40599280293646
C            4.97945180439841       -1.48552692218429        0.88024704310777
C            6.34032580474706       -1.68298575223145        1.22731504544631
C            7.29425997830460       -0.89079881911790        0.64372276597890
C            6.92015323102597        0.11840472053775       -0.25448924725764
C            5.56153712494823        0.29789266689109       -0.49005652949825
C            5.02022035121124        1.37385169159125       -1.36055541158027
O            5.62557643126011        1.86307528188750       -2.29149843075518
C            3.63768551009074        1.76334165407966       -0.96707196551394
C            3.35919189163737        2.06803335442511        0.36363997391170
C            2.08026477318771        2.41288419768209        0.74739533230557
C            1.04620310716005        2.41404767933342       -0.18502956412663
N           -0.27221921059615        2.74027164047200        0.22612626806085
C           -0.92558135450473        1.91146341531490        1.12780847360108
C           -0.31118272374270        0.73285472512452        1.56825541880623
C           -0.93388873778735       -0.09765123974140        2.47367074746566
C           -2.19911923907013        0.21167215293891        2.94009951215074
C           -2.82164722377220        1.35847509930392        2.48659377250530
C           -2.21150638083948        2.22256973175782        1.58804372425189
C           -2.94751732276010        3.47258562258257        1.15458983969279
C           -3.12428271181582        4.38477823482438        2.38525775001908
C           -4.32347417525709        3.07266398543654        0.59417879764165
C           -2.16941206523722        4.25001673769447        0.11386807840214
C           -2.72353163750464        5.40200525704756       -0.42823172701924
C           -2.03403378710026        6.20110359650286       -1.32031319669262
C           -0.73509048908811        5.86597290597188       -1.66076554061470
C           -0.15878403161869        4.73023008975929       -1.13515657587891
C           -0.87000482119536        3.89092621842090       -0.26852893913735
C            1.32129197082009        2.10367484802184       -1.51391327732883
C            2.61250923386695        1.80415101640261       -1.90508733794119
N            4.65456482098078       -0.49023969798561        0.06254435422716
C            2.28370436735562       -1.78787253811533       -0.36554294247952
C            0.99543681050378       -1.84053761158212       -0.85265834461928
C           -2.12947196322932       -1.36277655261621       -0.92062708881189
C           -1.54317768382016       -0.14717077632798       -1.27597218054354
C           -2.30480528387817        0.86778540882084       -1.81751098956453
C           -3.66201987518213        0.68884981061361       -2.01416681175231
C           -4.26547097422605       -0.47863422349054       -1.57675968280674
C           -3.52849548942038       -1.49879528215008       -1.00149921442839
H           -4.69043870845597       -1.59730894471741        1.44423907804941
H           -3.08110388843053       -2.30912523261533        1.50929787468392
H           -4.50418405359064       -3.34009110373870        1.70499273869381
H           -6.04561262619408       -3.75710575971015       -0.20913063265253
H           -5.71995779672385       -3.07982644516315       -1.81239313109148
H           -6.21375238040593       -2.03737718160128       -0.46684489324678
H           -4.86792960144706       -5.34901322522302       -0.90226060647167
H           -3.37737629021724       -7.24744420720624       -1.23641596530925
H           -0.92406792188786       -6.92102671329845       -1.19258676536148
H            0.00321919327140       -4.67544024328289       -0.85733962458463
H           -0.50549127882395       -3.35384662625250        1.76938320730679
H            1.82556026420774       -3.31105152825000        2.60841713921915
H            6.56882000669874       -2.46810242169391        1.93136343597238
H            8.33941488740232       -1.03952871166817        0.87352746767784
H            7.63798072640057        0.76137961930706       -0.73612931342903
H            4.15356187472032        2.05839510738915        1.09439500356571
H            1.86825838119891        2.67329257788573        1.77386073667557
H            0.66568953600776        0.45949970843641        1.20174434659797
H           -0.42380484767015       -0.98582444713464        2.81170234188034
H           -2.69648525853550       -0.43132912596046        3.65003030114048
H           -3.80930105609638        1.58864334300101        2.85502294454812
H           -3.68745346806550        5.27706393021633        2.12568118313074
H           -2.15117233814293        4.69097603500407        2.76471225286972
H           -3.65203666574212        3.86233262586930        3.17864290725541
H           -4.84161227835786        3.93139851423457        0.17808200815092
H           -4.95116041559507        2.65093955842422        1.37381476450493
H           -4.19970067650726        2.32746397562486       -0.18812460314001
H           -3.72113595002482        5.69634646892025       -0.14019486792339
H           -2.49804179227140        7.08618665950063       -1.72723110025052
H           -0.16464081409327        6.49207742759506       -2.32977312911102
H            0.86300941920757        4.49751014198302       -1.38862167077483
H            0.52344248489898        2.10827718147215       -2.24168878574268
H            2.83030381884948        1.57504975300164       -2.93737398620885
H            3.06354318042163       -1.38090829791270       -0.99057429860550
H            0.79593457885707       -1.51977810742234       -1.86434799304257
H           -0.48707484812249        0.00166738481540       -1.13342212259306
H           -1.84018787811257        1.80061061462222       -2.10057727516311
H           -4.25352213521169        1.45976944290276       -2.48503372771131
H           -5.33289930908991       -0.57680813051026       -1.68588429707048

 projected vibrational frequencies (cm⁻¹)
eigval :       -0.00    -0.00    -0.00     0.00     0.00     0.00
eigval :       12.10    20.41    24.60    30.10    35.73    41.33
eigval :       44.77    51.05    53.34    56.33    62.80    74.21
eigval :       86.94    91.84   106.13   107.44   116.27   117.64
eigval :      122.25   131.46   139.38   141.75   158.12   164.11
eigval :      165.80   172.95   179.93   193.36   203.19   208.42
eigval :      218.74   227.51   240.96   245.19   268.00   268.84
eigval :      275.75   291.96   302.11   305.03   314.46   319.94
eigval :      332.54   336.64   344.56   347.24   364.55   371.27
eigval :      372.94   377.33   380.12   384.49   386.45   394.10
eigval :      401.94   410.63   414.29   420.17   440.11   446.02
eigval :      449.24   456.74   471.91   481.45   497.46   505.52
eigval :      505.92   512.72   529.63   541.27   544.72   549.12
eigval :      559.30   562.24   568.55   579.55   584.93   589.22
eigval :      595.88   602.82   606.93   613.16   628.31   643.99
eigval :      651.57   669.84   680.72   684.37   685.38   687.62
eigval :      695.34   697.93   710.60   720.08   727.66   743.73
eigval :      770.26   774.37   777.81   780.37   784.35   801.46
eigval :      806.37   816.15   817.43   828.26   847.67   851.82
eigval :      866.96   869.15   870.25   875.14   876.00   881.84
eigval :      900.45   902.96   906.22   909.69   912.89   913.90
eigval :      914.36   915.32   917.28   920.21   921.36   923.08
eigval :      923.51   925.76   930.78   935.74   937.55   939.99
eigval :      940.78   958.60   967.43   974.49   983.36  1007.99
eigval :     1013.16  1014.96  1025.16  1074.92  1075.20  1076.79
eigval :     1083.64  1085.46  1108.36  1114.11  1117.27  1119.74
eigval :     1126.17  1131.94  1135.13  1141.61  1142.40  1148.12
eigval :     1153.84  1155.23  1158.25  1172.79  1178.26  1182.71
eigval :     1185.42  1187.51  1188.20  1189.09  1190.24  1193.17
eigval :     1207.73  1217.19  1230.53  1241.72  1246.48  1249.62
eigval :     1253.28  1261.07  1262.79  1265.19  1270.13  1274.29
eigval :     1281.53  1295.65  1296.86  1299.09  1308.20  1311.99
eigval :     1315.34  1322.99  1326.45  1329.68  1332.50  1334.52
eigval :     1334.63  1373.46  1394.19  1397.27  1398.43  1402.27
eigval :     1405.68  1413.53  1420.53  1431.23  1432.70  1433.69
eigval :     1437.92  1447.92  1450.26  1454.82  1465.80  1471.71
eigval :     1475.08  1484.37  1488.40  1489.68  1490.05  1492.69
eigval :     1497.67  1501.17  1503.42  1503.98  1516.47  1528.35
eigval :     1555.89  1561.81  1565.19  1566.83  1575.09  1577.76
eigval :     1582.10  1582.81  1586.48  1594.79  1597.53  1680.54
eigval :     3026.89  3027.92  3028.41  3034.12  3035.56  3039.91
eigval :     3043.11  3044.60  3045.29  3048.31  3051.18  3057.44
eigval :     3070.33  3072.88  3078.35  3080.19  3084.35  3085.16
eigval :     3085.22  3085.89  3086.97  3089.31  3089.45  3091.39
eigval :     3094.35  3095.28  3096.17  3096.62  3097.24  3097.94
eigval :     3100.10  3101.45  3103.85  3111.24  3111.36  3112.84
eigval :     3114.78  3116.76  3134.59

   temp. (K)  partition function   enthalpy   heat capacity  entropy
                                   cal/mol     cal/K/mol   cal/K/mol   J/K/mol
 298.15  VIB  0.223E+20            26979.369    172.071    165.452
         ROT  0.789E+08              888.752      2.981     39.116
         INT  0.176E+28            27868.121    175.052    204.568
         TR   0.180E+29             1481.254      4.968     45.506
         TOT                       29349.3750   180.0201   250.0737  1046.3083

       T/K    H(0)-H(T)+PV         H(T)/Eh          T*S/Eh         G(T)/Eh
   ------------------------------------------------------------------------
    298.15    0.467712E-01    0.774343E+00    0.118818E+00    0.655525E+00
   ------------------------------------------------------------------------

         :::::::::::::::::::::::::::::::::::::::::::::::::::::
         ::                  THERMODYNAMIC                  ::
         :::::::::::::::::::::::::::::::::::::::::::::::::::::
         :: total free energy        -141.040542964452 Eh   ::
         ::.................................................::
         :: total energy             -141.696067801626 Eh   ::
         :: zero point energy           0.727571710024 Eh   ::
         :: G(RRHO) w/o ZPVE           -0.072046872850 Eh   ::
         :: G(RRHO) contrib.            0.655524837174 Eh   ::
         :::::::::::::::::::::::::::::::::::::::::::::::::::::

           -------------------------------------------------
          | TOTAL ENERGY             -141.696067801626 Eh   |
          | TOTAL ENTHALPY           -140.921724885404 Eh   |
          | TOTAL FREE ENERGY        -141.040542964452 Eh   |
          | GRADIENT NORM               0.000041006293 Eh/α |
           -------------------------------------------------

 * finished run on 2025/09/07 at 03:04:28.440
