   * xtb version 6.7.1 (edcfbbe) compiled by 'albert@albert-system' on 2024-07-22

   ID    Z sym.   atoms
    1    6 C      1-9, 11-15, 17-22, 24-27, 29-45, 47-54
    2    7 N      10, 28, 46
    3    8 O      16, 23
    4    1 H      55-93

          program call               : xtb data2507/gas/26DAcBPy/26DAcBPy_gas_T1_crest.xyz --gfn 2 --spinpol --tblite --uhf 2 --ohess vtight --parallel 40 --molden --ceasefiles --namespace data2507/gas/26DAcBPy/26DAcBPy_gas_T1_finalOpt
 * total energy  :  -141.6957821 Eh     change       -0.5968968E-07 Eh
 * total energy  :  -141.6958691 Eh     change       -0.8705073E-04 Eh
 * total energy  :  -141.6959483 Eh     change       -0.7915810E-04 Eh
 * total energy  :  -141.6959625 Eh     change       -0.1423525E-04 Eh
 * total energy  :  -141.6959820 Eh     change       -0.1949116E-04 Eh
 * total energy  :  -141.6959927 Eh     change       -0.1067800E-04 Eh
 * total energy  :  -141.6960087 Eh     change       -0.1602048E-04 Eh
 * total energy  :  -141.6960213 Eh     change       -0.1256688E-04 Eh
 * total energy  :  -141.6960297 Eh     change       -0.8413538E-05 Eh
 * total energy  :  -141.6960328 Eh     change       -0.3082604E-05 Eh
 * total energy  :  -141.6960635 Eh     change       -0.5651955E-06 Eh
 * total energy  :  -141.6960638 Eh     change       -0.3641946E-06 Eh
 * total energy  :  -141.6960642 Eh     change       -0.3421802E-06 Eh
 * total energy  :  -141.6960646 Eh     change       -0.3777455E-06 Eh
 * total energy  :  -141.6960648 Eh     change       -0.2797636E-06 Eh
 * total energy  :  -141.6960651 Eh     change       -0.2501979E-06 Eh
 * total energy  :  -141.6960654 Eh     change       -0.2565334E-06 Eh
 * total energy  :  -141.6960655 Eh     change       -0.1688744E-06 Eh
 * total energy  :  -141.6960656 Eh     change       -0.8593690E-07 Eh
   *** GEOMETRY OPTIMIZATION CONVERGED AFTER 44 ITERATIONS ***

 final structure:
================
93
 xtb: 6.7.1 (edcfbbe)
C           -4.15425715810431       -2.38832396759006        1.22918841181154
C           -4.24856102815417       -2.58968035169028       -0.30020356324437
C           -5.72337427739101       -2.74202131166619       -0.67177365731354
C           -3.42726480122435       -3.80945757758570       -0.65509191781159
C           -3.96863421449344       -5.06280780833137       -0.88961749506929
C           -3.16046215077674       -6.16454727401501       -1.11477650114024
C           -1.78354910638857       -6.02119188078368       -1.11164741835421
C           -1.22168067056367       -4.77970096189561       -0.90122402818850
C           -2.03298777284145       -3.66657333092569       -0.67050777145025
N           -1.45684635150725       -2.40857601455240       -0.51639519893207
C           -0.10757466587687       -2.36422639534389       -0.09688578733305
C            0.21352115135576       -2.93478156252491        1.13954010129877
C            1.51098536893284       -2.95845884650241        1.58642285017240
C            2.54364588403304       -2.37773960452214        0.82977014683213
C            3.90639314350843       -2.47603306414721        1.35888050071680
O            4.16434314354833       -3.27403371766546        2.29141461818537
C            4.94645173490254       -1.65582506531226        0.77428146170392
C            6.30639674780076       -1.90087064674690        1.09341556932391
C            7.27425939262278       -1.13129943242150        0.50247825822869
C            6.91625526852170       -0.09866092782108       -0.37542106243112
C            5.55996666729313        0.12694139367159       -0.58324347358355
C            5.03690452265344        1.23093921848563       -1.42939975448691
O            5.64050076392115        1.71431029188851       -2.36453530492374
C            3.67437659589759        1.65753170554579       -1.00545679618205
C            3.43017183308604        1.95307058889203        0.33403614171258
C            2.17027515360538        2.33358561626092        0.74597498917538
C            1.12011655803780        2.38072201569194       -0.16700069810527
N           -0.17885127646217        2.74582034539603        0.27264673999178
C           -0.84442967652987        1.92650374126129        1.17400025621547
C           -0.26435362740698        0.71994503789106        1.58420454235575
C           -0.90063782084910       -0.10383277408298        2.48633388663836
C           -2.14593483701782        0.24169452498917        2.98019369634329
C           -2.73468108120015        1.41788462278807        2.55786755898570
C           -2.10980337673365        2.27533717566541        1.66309501495175
C           -2.80758742684387        3.55848591835378        1.26456270793306
C           -2.92570954073006        4.45619462808469        2.51278417958818
C           -4.20844388446745        3.21841890239404        0.72665132371634
C           -2.02219522066187        4.32390582770855        0.22035683982020
C           -2.54438608847314        5.50383424651639       -0.29259021600479
C           -1.84425663214182        6.29120034797946       -1.18682383975108
C           -0.56596517009627        5.91399181293612       -1.55981815343434
C           -0.02105888797890        4.75009618268586       -1.06306185952067
C           -0.74452195667136        3.92423993694832       -0.19367770587302
C            1.36034607844177        2.07840810603162       -1.50443518715833
C            2.63388812941914        1.74277347136504       -1.92343337389665
N            4.63876804024056       -0.63967266870249       -0.02400743940370
C            2.22015649769298       -1.85301927040827       -0.42471806606138
C            0.92257804437703       -1.85918065376731       -0.88939290194514
C           -2.18963198452331       -1.29052879007668       -0.89086919087384
C           -1.57586249625742       -0.08612280976997       -1.23776674772529
C           -2.31904033305521        0.96033535901444       -1.74380819571961
C           -3.68491248269364        0.82432049827932       -1.91289626555307
C           -4.31244617339327       -0.33366480264244       -1.48426728490653
C           -3.59328644994150       -1.38557716686803       -0.94470750195083
H           -4.71213083086595       -1.50115283925503        1.52134481239863
H           -3.12118660049010       -2.25585954567084        1.54084333403628
H           -4.56702932622731       -3.25302475242507        1.74470463689432
H           -6.15671255881156       -3.58941516251616       -0.14730301771546
H           -5.84271713262504       -2.88889687162244       -1.74288870852857
H           -6.28211092859686       -1.86091575030455       -0.36768436497247
H           -5.03759026196050       -5.19941945564356       -0.89119858110151
H           -3.60717026227227       -7.13150230915488       -1.28850271162575
H           -1.14531465568543       -6.87385558509565       -1.28612389702369
H           -0.14954097875642       -4.66115640596096       -0.92834621478098
H           -0.57689887206611       -3.37054630684069        1.73463588128738
H            1.76861164524622       -3.41028167142548        2.53255393875028
H            6.52256257565406       -2.70233403645860        1.78278086298375
H            8.31815105028639       -1.31610949957987        0.71082572241869
H            7.64535362345096        0.52769217013027       -0.86198990029362
H            4.23704884711733        1.90832372946168        1.04962119286587
H            1.98547144559747        2.58691270900196        1.77944528557767
H            0.69602261324124        0.41919767826955        1.19614766061035
H           -0.41675823827207       -1.01526665410731        2.80017243404841
H           -2.65376766788618       -0.39588235361833        3.68759814267005
H           -3.70678475059493        1.67661140603644        2.94802222892857
H           -3.46299316249863        5.37143490702161        2.27957502977054
H           -1.93452934143756        4.72249664628911        2.87518756543040
H           -3.45394003248985        3.93936129307994        3.30954199806156
H           -4.69975747238995        4.10064211367617        0.32752917327370
H           -4.83791090438601        2.81474150823698        1.51437012155539
H           -4.12871550741641        2.47610973565408       -0.06406270358461
H           -3.52432084185484        5.82994318405435        0.02079875307462
H           -2.28349216822309        7.19902463769560       -1.57046476909076
H            0.01313457133184        6.52893449178828       -2.23173718757850
H            0.98598218909323        4.48416856767369       -1.34161163728129
H            0.54962813862781        2.11793171128694       -2.21682678825938
H            2.82516216678548        1.52015101194590       -2.96237448469759
H            3.00079093223979       -1.45897896625031       -1.05701043561557
H            0.71507672324828       -1.51558128662065       -1.89193663004873
H           -0.51294790682161        0.02931279767279       -1.11660068208584
H           -1.83335133258815        1.88429058906977       -2.02062170673870
H           -4.26398084489440        1.62068840173496       -2.35606925839155
H           -5.38436309046268       -0.39911027959215       -1.57180989169465

 projected vibrational frequencies (cm⁻¹)
eigval :       -0.00    -0.00     0.00     0.00     0.00     0.00
eigval :       11.79    19.50    24.66    29.96    35.31    41.26
eigval :       44.64    51.21    53.56    56.57    62.56    73.74
eigval :       86.79    91.92   106.14   107.06   116.23   117.45
eigval :      122.13   131.39   139.18   141.99   157.94   163.78
eigval :      165.29   173.20   180.31   193.32   203.13   208.31
eigval :      218.76   227.43   240.89   245.19   267.96   268.75
eigval :      275.54   291.84   302.32   304.82   314.47   319.92
eigval :      332.45   336.69   344.60   347.25   364.52   371.46
eigval :      372.92   377.33   380.10   384.31   386.16   394.12
eigval :      401.91   410.61   414.23   420.48   440.03   446.05
eigval :      449.05   456.70   471.81   481.50   497.31   505.48
eigval :      505.95   512.70   529.42   541.38   544.78   549.06
eigval :      559.41   562.12   568.58   579.55   584.91   589.25
eigval :      595.91   603.21   606.87   613.21   628.32   643.99
eigval :      651.56   669.80   680.72   684.40   685.38   687.63
eigval :      695.44   697.96   710.65   720.08   727.56   743.55
eigval :      770.28   774.51   777.81   780.36   784.39   801.32
eigval :      806.47   816.17   817.48   828.34   847.68   851.80
eigval :      867.04   869.61   870.52   874.58   876.10   881.83
eigval :      900.47   903.10   906.32   909.67   912.85   913.97
eigval :      914.48   915.37   917.24   920.27   921.46   923.40
eigval :      923.55   925.40   930.79   935.58   937.56   939.98
eigval :      940.65   958.75   967.22   972.39   983.49  1008.04
eigval :     1013.46  1015.05  1025.25  1073.91  1075.19  1076.78
eigval :     1083.66  1085.46  1108.28  1114.24  1117.19  1119.70
eigval :     1126.27  1131.98  1135.10  1141.64  1142.43  1148.16
eigval :     1153.64  1155.17  1158.50  1172.83  1178.24  1182.87
eigval :     1185.58  1187.61  1188.28  1189.14  1190.33  1193.82
eigval :     1207.75  1217.09  1230.55  1241.77  1246.23  1249.66
eigval :     1253.67  1261.21  1262.79  1265.06  1270.11  1274.26
eigval :     1281.68  1296.22  1298.75  1299.17  1308.46  1311.92
eigval :     1315.41  1322.95  1326.59  1329.74  1332.46  1334.54
eigval :     1334.69  1373.65  1393.88  1397.32  1398.46  1402.33
eigval :     1405.83  1413.74  1420.81  1431.30  1432.79  1433.88
eigval :     1438.09  1448.38  1450.55  1454.99  1465.85  1471.72
eigval :     1475.15  1484.99  1488.56  1489.75  1490.18  1492.73
eigval :     1497.46  1501.37  1503.54  1504.06  1516.56  1528.50
eigval :     1556.02  1561.85  1565.29  1566.93  1574.97  1577.69
eigval :     1582.23  1582.69  1586.61  1594.54  1597.03  1680.98
eigval :     3026.86  3027.91  3028.48  3034.19  3035.60  3039.84
eigval :     3043.20  3044.66  3045.36  3048.37  3051.35  3057.63
eigval :     3070.27  3072.96  3078.20  3080.04  3084.40  3085.18
eigval :     3085.33  3085.92  3086.74  3089.22  3089.44  3090.87
eigval :     3094.40  3095.34  3096.30  3096.67  3097.32  3097.82
eigval :     3100.20  3101.39  3103.87  3111.14  3111.56  3112.79
eigval :     3114.83  3116.80  3134.87

   temp. (K)  partition function   enthalpy   heat capacity  entropy
                                   cal/mol     cal/K/mol   cal/K/mol   J/K/mol
 298.15  VIB  0.245E+20            26984.350    172.057    165.548
         ROT  0.790E+08              888.752      2.981     39.120
         INT  0.193E+28            27873.102    175.038    204.668
         TR   0.180E+29             1481.254      4.968     45.506
         TOT                       29354.3558   180.0065   250.1740  1046.7282

       T/K    H(0)-H(T)+PV         H(T)/Eh          T*S/Eh         G(T)/Eh
   ------------------------------------------------------------------------
    298.15    0.467791E-01    0.774357E+00    0.118866E+00    0.655492E+00
   ------------------------------------------------------------------------

         :::::::::::::::::::::::::::::::::::::::::::::::::::::
         ::                  THERMODYNAMIC                  ::
         :::::::::::::::::::::::::::::::::::::::::::::::::::::
         :: total free energy        -141.040573850090 Eh   ::
         ::.................................................::
         :: total energy             -141.696065586793 Eh   ::
         :: zero point energy           0.727578350850 Eh   ::
         :: G(RRHO) w/o ZPVE           -0.072086614148 Eh   ::
         :: G(RRHO) contrib.            0.655491736703 Eh   ::
         :::::::::::::::::::::::::::::::::::::::::::::::::::::

           -------------------------------------------------
          | TOTAL ENERGY             -141.696065586793 Eh   |
          | TOTAL ENTHALPY           -140.921708092345 Eh   |
          | TOTAL FREE ENERGY        -141.040573850090 Eh   |
          | GRADIENT NORM               0.000072692516 Eh/α |
           -------------------------------------------------

 * finished run on 2025/09/07 at 03:16:13.859
