   * xtb version 6.7.1 (edcfbbe) compiled by 'albert@albert-system' on 2024-07-22

   ID    Z sym.   atoms
    1    6 C      1-9, 11-15, 17-22, 24-27, 29-45, 47-54
    2    7 N      10, 28, 46
    3    8 O      16, 23
    4    1 H      55-93

          program call               : xtb data2507/gas/26DAcBPy/26DAcBPy.xyz --gfn 2 --ohess vtight --parallel 40 --molden --ceasefiles --namespace data2507/gas/26DAcBPy/26DAcBPy_gas_S0_preOpt
          :  Hamiltonian                  GFN2-xTB          :
 * total energy  :  -141.7223770 Eh     change       -0.9464486E-08 Eh
 * total energy  :  -141.7430046 Eh     change       -0.2062757E-01 Eh
 * total energy  :  -141.7503410 Eh     change       -0.7336471E-02 Eh
 * total energy  :  -141.7518973 Eh     change       -0.1556282E-02 Eh
 * total energy  :  -141.7528896 Eh     change       -0.9922405E-03 Eh
 * total energy  :  -141.7534352 Eh     change       -0.5456309E-03 Eh
 * total energy  :  -141.7538822 Eh     change       -0.4469605E-03 Eh
 * total energy  :  -141.7543964 Eh     change       -0.5142710E-03 Eh
 * total energy  :  -141.7549816 Eh     change       -0.5851969E-03 Eh
 * total energy  :  -141.7554524 Eh     change       -0.4707384E-03 Eh
 * total energy  :  -141.7592478 Eh     change       -0.2142693E-06 Eh
 * total energy  :  -141.7592480 Eh     change       -0.2028349E-06 Eh
 * total energy  :  -141.7592482 Eh     change       -0.2011212E-06 Eh
 * total energy  :  -141.7592484 Eh     change       -0.1928527E-06 Eh
 * total energy  :  -141.7592486 Eh     change       -0.1750106E-06 Eh
 * total energy  :  -141.7592487 Eh     change       -0.1751143E-06 Eh
 * total energy  :  -141.7592489 Eh     change       -0.1949684E-06 Eh
 * total energy  :  -141.7592491 Eh     change       -0.2116994E-06 Eh
 * total energy  :  -141.7592491 Eh     change       -0.1054815E-08 Eh
   *** GEOMETRY OPTIMIZATION CONVERGED AFTER 94 ITERATIONS ***

 final structure:
================
93
 xtb: 6.7.1 (edcfbbe)
C           -3.14985786770669       -4.15351066743063       -0.50178529010596
C           -3.53395743392057       -3.12001554136475        0.57148439694902
C           -4.17408347889547       -3.82079602735154        1.78451540627198
C           -4.54621615553995       -2.16146668204102       -0.02049187804313
C           -5.78662862507504       -2.63935441905210       -0.42346766963636
C           -6.76404656768506       -1.80626813883134       -0.93292924963133
C           -6.51386315141474       -0.44848506779357       -1.02051564957495
C           -5.28688481264949        0.04905805117547       -0.63711878837701
C           -4.27740680790030       -0.79854885669388       -0.16880321301413
N           -3.04318581841285       -0.26134479127782        0.18719838084552
C           -2.74547580803624        1.04994307498559       -0.24098127365982
C           -2.73426772199556        1.33914019332267       -1.60636138940287
C           -2.47018351016393        2.61759755665871       -2.04396889527743
C           -2.18492943438551        3.63518384094150       -1.13179271507183
C           -1.91510799215223        4.99088000043385       -1.65049363954305
O           -2.39475078613053        5.41067703668476       -2.68476120280798
C           -0.97461704845781        5.82594590575922       -0.84372528581022
C           -1.01758544887165        7.21871590367224       -0.91432608743408
C           -0.11163023044003        7.94561295677950       -0.15923401026348
C            0.80894720957968        7.26373922201905        0.61964053417105
C            0.79430690944007        5.86857185707192        0.59794003136264
C            1.75529814966520        5.08440047617324        1.43123488294438
O            2.22725648674991        5.55442834977427        2.44762338294017
C            2.06078253839741        3.71791715666977        0.96376765094149
C            2.06610379026567        3.37010048988210       -0.38638668210112
C            2.39335615301835        2.08685952547557       -0.77599946682973
C            2.70233619125100        1.11716396862382        0.17571026431420
N            3.04441830819720       -0.19973238504760       -0.19767668755569
C            2.10292681094565       -1.03891675264432       -0.79035371041757
C            0.88345891520177       -0.52858543767099       -1.24258154204565
C           -0.06226753692108       -1.34780047473613       -1.82113098609728
C            0.17904582308449       -2.70226896250259       -1.94331864758763
C            1.37308231890682       -3.21509925830134       -1.47689674568174
C            2.35106098094944       -2.41121400857537       -0.90751665266921
C            3.63112862055066       -3.05748769191922       -0.41365103194824
C            4.28005440410658       -3.82690059129117       -1.57937359091689
C            3.28716806509095       -4.01985508852307        0.73671964338930
C            4.61984893118210       -2.02919542915164        0.09516467770676
C            5.88387342774600       -2.43640396171012        0.50246276066035
C            6.83952147898961       -1.53831866485212        0.93736009106309
C            6.54199533650734       -0.18723855076702        0.94354954261315
C            5.29049599774645        0.24104048414409        0.55596409646882
C            4.30417754374715       -0.67013654276386        0.16391260907764
C            2.70955344377807        1.46784397092977        1.52693389015535
C            2.40399389149749        2.75322295747042        1.91329138503878
N           -0.08377542948297        5.17405588764043       -0.11064764129923
C           -2.20696167950228        3.34799131198700        0.23230306172741
C           -2.49558537726017        2.07200492743258        0.67250763316245
C           -2.07955694161109       -1.03067915829154        0.83607791196353
C           -0.88349803616259       -0.45139389451936        1.26755478088475
C            0.08536304285380       -1.20130542219447        1.89928540918978
C           -0.10839434886648       -2.55446950251316        2.09747184193948
C           -1.27963529370910       -3.13573054353800        1.65395246097784
C           -2.27984807119914       -2.40184690171124        1.03112959271112
H           -2.40125276179177       -4.84497130328156       -0.12495036820011
H           -2.73948306848266       -3.64360809560415       -1.37065671257677
H           -4.01955276481203       -4.72448492776157       -0.81629067718685
H           -4.43400958675123       -3.08316423919621        2.54144887279866
H           -3.48983579280852       -4.53905561211437        2.22650682496850
H           -5.07808354936558       -4.35026041194952        1.49799291673059
H           -6.00031783707329       -3.69420907895462       -0.34158180957821
H           -7.71515987635000       -2.21115811353743       -1.24296785891673
H           -7.27340704267266        0.22709496604114       -1.38416807674874
H           -5.10882430898816        1.11185115977823       -0.69379940179798
H           -2.95505499068589        0.55412228544787       -2.31489934373375
H           -2.46541990277937        2.85015307410478       -3.09833114477413
H           -1.75361952919203        7.69464934517058       -1.54317038679234
H           -0.12266830054223        9.02561923955788       -0.17774988699134
H            1.53546175764549        7.77597349092641        1.23079580386169
H            1.85055978091583        4.11235984889719       -1.13837438023328
H            2.43755415861300        1.83381892210963       -1.82494379623207
H            0.65975122025142        0.52001292444585       -1.13075915906996
H           -0.98995038296960       -0.92137863243647       -2.17041497074206
H           -0.55147640513315       -3.35658507077747       -2.39339594878283
H            1.54208052618746       -4.27784570423136       -1.55867981189112
H            3.61310905286844       -4.59425420063022       -1.96098278691250
H            5.20077050718084       -4.30958741557207       -1.26509708213340
H            4.51263802176480       -3.13942469137739       -2.39045239680880
H            4.17802304572669       -4.53320538389550        1.08925258153465
H            2.56337057337900       -4.76424538128693        0.41624270817941
H            2.85990729128968       -3.46097161120158        1.56656357288766
H            6.13401038764891       -3.48624986001457        0.48477825163379
H            7.81026292786973       -1.88879987785752        1.25279678962495
H            7.28334431420123        0.53652789321655        1.24703002827464
H            5.07398783778999        1.29821929358356        0.54933806346691
H            2.97800320123590        0.72502395732390        2.26401452283259
H            2.41232172269918        3.03309901580726        2.95608102584362
H           -2.03531863804958        4.13089489886088        0.95388395711617
H           -2.55238128865850        1.86304654759457        1.73052603029929
H           -0.69639601571273        0.59671955406765        1.09786933812798
H            0.99339028520890       -0.72155927568884        2.23050755012154
H            0.64122791652427       -3.15493757049513        2.58937314938293
H           -1.41291384104917       -4.19695564978580        1.79819231580444

          :  Hamiltonian                  GFN2-xTB          :
         :: gradient norm              0.000024556340 Eh/a0 ::
         :: HOMO-LUMO gap              1.239641349566 eV    ::
         :: SCC energy              -144.226204877207 Eh    ::
         :: -> dispersion             -0.144761568729 Eh    ::
         :: repulsion energy           2.466955740408 Eh    ::

    * Orbital Energies and Occupations

         #    Occupation            Energy/Eh            Energy/eV
      -------------------------------------------------------------
         1        2.0000           -0.7135182             -19.4158
       ...           ...                  ...                  ...
       119        2.0000           -0.4094957             -11.1429
       120        2.0000           -0.4089176             -11.1272
       121        2.0000           -0.4083748             -11.1124
       122        2.0000           -0.4057804             -11.0418
       123        2.0000           -0.4050306             -11.0214
       124        2.0000           -0.4002198             -10.8905
       125        2.0000           -0.3982286             -10.8364
       126        2.0000           -0.3965104             -10.7896
       127        2.0000           -0.3951921             -10.7537
       128        2.0000           -0.3907021             -10.6315
       129        2.0000           -0.3811191             -10.3708
       130        2.0000           -0.3497619              -9.5175
       131        2.0000           -0.3495603              -9.5120 (HOMO)
       132                         -0.3040044              -8.2724 (LUMO)
       133                         -0.3011251              -8.1940
       134                         -0.2610849              -7.1045
       135                         -0.2510250              -6.8307
       136                         -0.2405401              -6.5454
       137                         -0.2403876              -6.5413
       138                         -0.2267456              -6.1701
       139                         -0.2262473              -6.1565
       140                         -0.2211481              -6.0177
       141                         -0.2206082              -6.0031
       142                         -0.2199814              -5.9860
       ...                                ...                  ...
       255                          0.6927826              18.8516
      -------------------------------------------------------------
                  HL-Gap            0.0455560 Eh            1.2396 eV

     #   Z          covCN         q      C6AA      α(0)
     1   6 C        3.761    -0.102    22.486     6.760
     2   6 C        3.910     0.022    20.151     6.381
     3   6 C        3.761    -0.104    22.540     6.768
     4   6 C        2.980    -0.012    28.304     8.727
     5   6 C        2.928    -0.036    28.897     8.816
     6   6 C        2.917    -0.043    29.062     8.840
     7   6 C        2.920    -0.033    28.811     8.802
     8   6 C        2.925    -0.057    29.408     8.893
     9   6 C        2.930     0.057    26.722     8.478
    10   7 N        2.752    -0.065    22.507     7.046
    11   6 C        2.926     0.077    26.292     8.409
    12   6 C        2.921    -0.037    28.914     8.818
    13   6 C        2.924    -0.017    28.444     8.746
    14   6 C        2.972    -0.008    28.217     8.713
    15   6 C        2.830     0.224    23.291     7.908
    16   8 O        0.858    -0.363    20.951     6.137
    17   6 C        2.957     0.075    26.313     8.414
    18   6 C        2.917    -0.024    28.613     8.772
    19   6 C        2.925    -0.009    28.234     8.714
    20   6 C        2.917    -0.024    28.612     8.772
    21   6 C        2.957     0.076    26.309     8.413
    22   6 C        2.830     0.224    23.298     7.909
    23   8 O        0.858    -0.364    20.966     6.139
    24   6 C        2.972    -0.008    28.225     8.714
    25   6 C        2.920    -0.020    28.500     8.754
    26   6 C        2.920    -0.039    28.978     8.828
    27   6 C        2.927     0.077    26.289     8.408
    28   7 N        2.752    -0.065    22.508     7.046
    29   6 C        2.923     0.059    26.683     8.471
    30   6 C        2.924    -0.057    29.417     8.894
    31   6 C        2.921    -0.031    28.784     8.798
    32   6 C        2.917    -0.042    29.044     8.838
    33   6 C        2.929    -0.036    28.892     8.815
    34   6 C        2.980    -0.012    28.304     8.727
    35   6 C        3.910     0.022    20.151     6.381
    36   6 C        3.761    -0.104    22.543     6.768
    37   6 C        3.761    -0.101    22.482     6.759
    38   6 C        2.980    -0.012    28.302     8.727
    39   6 C        2.928    -0.036    28.897     8.816
    40   6 C        2.917    -0.043    29.059     8.840
    41   6 C        2.920    -0.033    28.811     8.802
    42   6 C        2.925    -0.056    29.402     8.892
    43   6 C        2.931     0.057    26.722     8.478
    44   6 C        2.921    -0.037    28.915     8.818
    45   6 C        2.924    -0.017    28.443     8.746
    46   7 N        1.848    -0.226    26.784     7.670
    47   6 C        2.920    -0.020    28.495     8.754
    48   6 C        2.920    -0.039    28.972     8.827
    49   6 C        2.923     0.059    26.681     8.471
    50   6 C        2.924    -0.057    29.418     8.895
    51   6 C        2.921    -0.032    28.790     8.799
    52   6 C        2.917    -0.042    29.045     8.838
    53   6 C        2.929    -0.036    28.891     8.815
    54   6 C        2.980    -0.012    28.303     8.727
    55   1 H        0.925     0.039     2.461     2.453
    56   1 H        0.925     0.033     2.546     2.495
    57   1 H        0.925     0.039     2.458     2.452
    58   1 H        0.925     0.032     2.559     2.502
    59   1 H        0.925     0.040     2.448     2.447
    60   1 H        0.925     0.040     2.448     2.447
    61   1 H        0.926     0.032     2.565     2.504
    62   1 H        0.926     0.028     2.610     2.527
    63   1 H        0.926     0.030     2.586     2.515
    64   1 H        0.926     0.027     2.637     2.539
    65   1 H        0.926     0.046     2.365     2.405
    66   1 H        0.926     0.061     2.192     2.315
    67   1 H        0.926     0.064     2.148     2.292
    68   1 H        0.926     0.050     2.320     2.382
    69   1 H        0.926     0.065     2.147     2.291
    70   1 H        0.926     0.046     2.364     2.404
    71   1 H        0.926     0.049     2.333     2.389
    72   1 H        0.926     0.028     2.615     2.529
    73   1 H        0.926     0.024     2.671     2.556
    74   1 H        0.926     0.026     2.641     2.541
    75   1 H        0.926     0.032     2.559     2.502
    76   1 H        0.925     0.040     2.448     2.447
    77   1 H        0.925     0.040     2.447     2.446
    78   1 H        0.925     0.032     2.557     2.501
    79   1 H        0.925     0.039     2.458     2.452
    80   1 H        0.925     0.039     2.460     2.453
    81   1 H        0.925     0.033     2.548     2.496
    82   1 H        0.926     0.032     2.564     2.504
    83   1 H        0.926     0.028     2.609     2.526
    84   1 H        0.926     0.030     2.585     2.514
    85   1 H        0.926     0.026     2.637     2.539
    86   1 H        0.926     0.046     2.367     2.406
    87   1 H        0.926     0.061     2.186     2.312
    88   1 H        0.926     0.046     2.371     2.408
    89   1 H        0.926     0.049     2.333     2.388
    90   1 H        0.926     0.028     2.620     2.531
    91   1 H        0.926     0.024     2.669     2.555
    92   1 H        0.926     0.026     2.644     2.543
    93   1 H        0.926     0.032     2.560     2.502

molecular dipole:
                 x           y           z       tot (Debye)
 q only:        0.027      -1.216       0.028
   full:        0.021      -0.732       0.021       1.863

 projected vibrational frequencies (cm⁻¹)
eigval :       -0.00    -0.00    -0.00     0.00     0.00     0.00
eigval :       11.20    14.24    18.77    25.31    33.17    33.88
eigval :       36.24    40.73    53.94    54.58    64.08    67.62
eigval :       77.42    85.61   105.09   107.22   109.28   119.25
eigval :      122.05   124.53   128.57   138.56   140.60   158.45
eigval :      164.42   173.98   175.56   189.17   190.15   209.62
eigval :      218.77   223.31   232.85   237.24   239.63   242.29
eigval :      279.89   287.40   303.83   304.95   311.70   317.75
eigval :      337.51   339.18   340.66   345.41   346.33   356.74
eigval :      361.32   377.82   379.23   379.69   387.23   387.89
eigval :      397.78   405.71   409.34   409.82   449.31   457.57
eigval :      458.42   462.42   482.10   485.66   498.35   500.08
eigval :      515.50   515.89   542.51   546.98   548.22   550.26
eigval :      563.23   566.05   578.76   582.79   591.23   595.67
eigval :      604.26   608.74   617.52   628.43   647.44   649.35
eigval :      675.38   681.64   684.05   684.17   695.91   696.19
eigval :      698.22   701.71   726.74   733.71   743.84   746.93
eigval :      776.73   780.29   780.52   783.74   794.23   816.48
eigval :      822.13   822.67   828.72   830.43   865.92   869.45
eigval :      872.96   873.18   875.62   883.07   891.70   904.41
eigval :      911.52   912.62   913.97   914.38   915.03   915.28
eigval :      916.86   918.88   919.72   922.98   923.10   927.73
eigval :      930.20   936.50   937.76   937.88   940.10   941.13
eigval :      943.77   957.52   957.59   984.14  1011.17  1014.49
eigval :     1014.69  1028.39  1028.56  1076.73  1077.28  1085.18
eigval :     1085.88  1103.57  1115.91  1116.38  1121.77  1121.96
eigval :     1134.36  1135.01  1141.47  1142.13  1154.54  1161.08
eigval :     1161.17  1173.66  1174.26  1176.88  1183.21  1185.88
eigval :     1187.57  1187.80  1188.20  1189.05  1192.73  1205.37
eigval :     1214.30  1240.20  1246.53  1249.44  1250.10  1252.15
eigval :     1263.34  1263.77  1268.67  1269.94  1281.37  1295.71
eigval :     1296.12  1302.76  1311.85  1312.44  1317.91  1321.00
eigval :     1328.71  1329.18  1333.83  1334.15  1335.63  1335.99
eigval :     1401.92  1401.96  1402.48  1402.62  1404.38  1416.23
eigval :     1420.84  1420.92  1435.69  1435.91  1440.23  1441.54
eigval :     1473.29  1473.66  1477.01  1477.33  1488.27  1488.43
eigval :     1489.64  1490.01  1495.13  1495.25  1500.76  1501.42
eigval :     1504.16  1504.48  1550.77  1551.91  1554.00  1556.08
eigval :     1577.05  1577.09  1578.45  1581.04  1591.87  1591.92
eigval :     1593.77  1593.94  1603.46  1604.09  1693.90  1696.26
eigval :     3028.77  3029.04  3033.86  3034.88  3037.71  3038.28
eigval :     3044.43  3044.96  3046.80  3047.66  3055.91  3056.88
eigval :     3078.87  3080.56  3080.63  3081.86  3082.08  3082.38
eigval :     3082.51  3085.31  3085.39  3088.20  3088.34  3089.71
eigval :     3090.27  3095.35  3095.48  3096.75  3096.87  3097.97
eigval :     3098.71  3101.64  3101.89  3103.99  3104.17  3104.97
eigval :     3105.15  3108.51  3111.79

   temp. (K)  partition function   enthalpy   heat capacity  entropy
                                   cal/mol     cal/K/mol   cal/K/mol   J/K/mol
 298.15  VIB  0.192E+21            27096.288    170.120    167.543
         ROT  0.868E+08              888.752      2.981     39.305
         INT  0.167E+29            27985.040    173.101    206.848
         TR   0.180E+29             1481.254      4.968     45.506
         TOT                       29466.2941   178.0692   252.3539  1055.8487

       T/K    H(0)-H(T)+PV         H(T)/Eh          T*S/Eh         G(T)/Eh
   ------------------------------------------------------------------------
    298.15    0.469575E-01    0.777862E+00    0.119901E+00    0.657960E+00
   ------------------------------------------------------------------------

         :::::::::::::::::::::::::::::::::::::::::::::::::::::
         ::                  THERMODYNAMIC                  ::
         :::::::::::::::::::::::::::::::::::::::::::::::::::::
         :: total free energy        -141.101288880717 Eh   ::
         ::.................................................::
         :: total energy             -141.759249136799 Eh   ::
         :: zero point energy           0.730904201551 Eh   ::
         :: G(RRHO) w/o ZPVE           -0.072943945469 Eh   ::
         :: G(RRHO) contrib.            0.657960256081 Eh   ::
         :::::::::::::::::::::::::::::::::::::::::::::::::::::

           -------------------------------------------------
          | TOTAL ENERGY             -141.759249136799 Eh   |
          | TOTAL ENTHALPY           -140.981387406563 Eh   |
          | TOTAL FREE ENERGY        -141.101288880717 Eh   |
          | GRADIENT NORM               0.000024559902 Eh/α |
          | HOMO-LUMO GAP               1.239640941822 eV   |
           -------------------------------------------------

 * finished run on 2025/09/07 at 02:57:26.111
