   * xtb version 6.7.1 (edcfbbe) compiled by 'albert@albert-system' on 2024-07-22

   ID    Z sym.   atoms
    1    6 C      1-9, 11-15, 17-22, 24-27, 29-45, 47-54
    2    7 N      10, 28, 46
    3    8 O      16, 23
    4    1 H      55-93

          program call               : xtb data2507/gas/26DAcBPy/26DAcBPy_gas_S0_crest.xyz --gfn 2 --ohess vtight --parallel 40 --molden --ceasefiles --namespace data2507/gas/26DAcBPy/26DAcBPy_gas_S0_finalOpt
          :  Hamiltonian                  GFN2-xTB          :
 * total energy  :  -141.7593377 Eh     change       -0.3581590E-08 Eh
 * total energy  :  -141.7593399 Eh     change       -0.2256220E-05 Eh
 * total energy  :  -141.7593433 Eh     change       -0.3341727E-05 Eh
 * total energy  :  -141.7593475 Eh     change       -0.4270008E-05 Eh
 * total energy  :  -141.7593516 Eh     change       -0.4110541E-05 Eh
 * total energy  :  -141.7593552 Eh     change       -0.3536864E-05 Eh
 * total energy  :  -141.7593584 Eh     change       -0.3264851E-05 Eh
 * total energy  :  -141.7593620 Eh     change       -0.3596546E-05 Eh
 * total energy  :  -141.7593662 Eh     change       -0.4162647E-05 Eh
 * total energy  :  -141.7593706 Eh     change       -0.4421822E-05 Eh
 * total energy  :  -141.7596493 Eh     change       -0.9819248E-06 Eh
 * total energy  :  -141.7596503 Eh     change       -0.9551516E-06 Eh
 * total energy  :  -141.7596512 Eh     change       -0.9309385E-06 Eh
 * total energy  :  -141.7596521 Eh     change       -0.9288896E-06 Eh
 * total energy  :  -141.7596531 Eh     change       -0.9074657E-06 Eh
 * total energy  :  -141.7596540 Eh     change       -0.9103269E-06 Eh
 * total energy  :  -141.7596549 Eh     change       -0.9349646E-06 Eh
 * total energy  :  -141.7596559 Eh     change       -0.9741906E-06 Eh
 * total energy  :  -141.7596559 Eh     change       -0.7613380E-08 Eh
   *** GEOMETRY OPTIMIZATION CONVERGED AFTER 122 ITERATIONS ***

 final structure:
================
93
 xtb: 6.7.1 (edcfbbe)
C           -4.05725139229572       -2.35669695644566        1.20216327472502
C           -4.11922284767357       -2.64675989000380       -0.31304783956384
C           -5.58610203732678       -2.82216650804662       -0.70544088315417
C           -3.29239253178911       -3.88529321497039       -0.57935123168836
C           -3.83148173766190       -5.14805473834280       -0.76844310440339
C           -3.02241330168304       -6.26136614049638       -0.91623628285408
C           -1.64702261412589       -6.11878954480412       -0.88718810612569
C           -1.08826757490350       -4.86681345683968       -0.72963318480708
C           -1.90059945860907       -3.74471509512745       -0.56850110184554
N           -1.32379072326654       -2.47447554956472       -0.47751517134091
C            0.01689115811101       -2.40859517138452       -0.06094377497776
C            0.33053028258229       -2.90348925644146        1.20880675509314
C            1.62692387315369       -2.88229818903133        1.66565837224670
C            2.65994801492592       -2.37241159218262        0.87118283729064
C            4.02581611504150       -2.40636089910579        1.42841187211440
O            4.32084968919502       -3.11239058310898        2.37538312377999
C            5.06481410728780       -1.53729969333465        0.79456994114171
C            6.41689009297676       -1.86381052537207        0.92731317030629
C            7.35927367643834       -1.04965492985125        0.32172936140819
C            6.92886479151374        0.05436561135761       -0.39762229945889
C            5.56034381608742        0.31255422533526       -0.45071872728202
C            4.99602752411892        1.43908098654246       -1.25426002181226
O            5.59785659891472        1.93241573362764       -2.18316045642631
C            3.62188517399071        1.81839126785226       -0.85447344607417
C            3.29826099620858        2.02247844025354        0.48516463265388
C            2.01109828488658        2.35998929876233        0.84585025928982
C            1.00786310443449        2.44903641520193       -0.11821004110574
N           -0.31467618664923        2.76490311175630        0.26250092689997
C           -0.99206229612202        1.92506298972105        1.14238605709759
C           -0.39805733095301        0.73524441264776        1.57529428575680
C           -1.03466806183363       -0.09430704141093        2.47311616026254
C           -2.29679147931542        0.22591050565521        2.93683383041136
C           -2.90816587663161        1.37389020673001        2.47274648650572
C           -2.28351556093207        2.23519372694029        1.58108912415860
C           -3.02467218401651        3.47332149046183        1.12036906846506
C           -3.27726126603925        4.37889379352711        2.34181545847513
C           -4.36223850307423        3.04281760574822        0.49429818178802
C           -2.21749667168764        4.26894106515132        0.11504313567399
C           -2.76533544478814        5.42453838336644       -0.42681188262523
C           -2.05343505091959        6.24999485274928       -1.27558821180329
C           -0.73758885122998        5.93893210952334       -1.56483033966824
C           -0.17025833086536        4.79666173438205       -1.04104462922132
C           -0.90548024548398        3.92656917746954       -0.22921802725097
C            1.33153992361846        2.23432493678231       -1.45699744919946
C            2.63095688744709        1.94835813555849       -1.82302276451385
N            4.65925325730187       -0.46271145033292        0.13782619422127
C            2.35237627118735       -1.92745367427554       -0.41468032995839
C            1.05073187169720       -1.94725992106147       -0.87475444747213
C           -2.04957056884915       -1.37918790453071       -0.94766215225704
C           -1.43517831488717       -0.19371927126597       -1.34544554217874
C           -2.17501949021497        0.82476095734986       -1.91337953146392
C           -3.53529757890037        0.67417251106593       -2.10063536643503
C           -4.16372690685613       -0.46399493268736       -1.62510767507115
C           -3.44959055589677       -1.48184913233294       -1.01613935141367
H           -4.61580919927848       -1.45142769258177        1.43027558850735
H           -3.03052441914451       -2.20911595012914        1.52661452964410
H           -4.48472521771168       -3.18819661556997        1.75914621693123
H           -6.02912705385832       -3.63992302061455       -0.14300884843332
H           -5.68442897075309       -3.02862816338311       -1.76889148478214
H           -6.15144041792975       -1.92660029345058       -0.46176669156688
H           -4.90052856876617       -5.28210065087942       -0.79269463106400
H           -3.46714616906664       -7.23555317425817       -1.05112775068881
H           -1.00527286943390       -6.97913942575878       -1.00333081931959
H           -0.01459982830780       -4.75409354562847       -0.74161671547179
H           -0.46029411212178       -3.31377945281233        1.82014497637552
H            1.87287928497780       -3.25334609501892        2.64964750627852
H            6.69409991514747       -2.74173492914737        1.48969027482245
H            8.41252293298759       -1.27601956693213        0.40160632597317
H            7.61527169114419        0.71331593636806       -0.90584684886647
H            4.06533063931940        1.95092232351017        1.24098437728466
H            1.76691983244641        2.55083257832222        1.88039853370163
H            0.57638576329400        0.44953405298052        1.21036913924795
H           -0.53523535946215       -0.98999110127252        2.80921113872546
H           -2.80279580171948       -0.41167448181530        3.64568398408018
H           -3.90065990198521        1.60755143784490        2.82638613348159
H           -3.84535795141858        5.26080489931044        2.05850402570664
H           -2.32864674866449        4.70357241717584        2.76567032034755
H           -3.83098191272942        3.84636957561149        3.11042508538742
H           -4.88678093892984        3.89321541150618        0.06840842309020
H           -5.01023848423764        2.58838957779327        1.23847480432107
H           -4.18076122793603        2.31488936178851       -0.29316173621660
H           -3.77753808624933        5.69993311564651       -0.17217326304823
H           -2.51285281535853        7.13674930293486       -1.68455913430195
H           -0.14504369812639        6.58746934693153       -2.19253458463209
H            0.86608096863532        4.58766538522612       -1.25405311572602
H            0.56130610165727        2.30280156418777       -2.21033296524010
H            2.88543432793604        1.79377447017699       -2.86090631800015
H            3.13543499330836       -1.59062078694613       -1.07391560969627
H            0.84299927754630       -1.65404423799756       -1.89247236965315
H           -0.37646760381882       -0.05550585903212       -1.20529255745175
H           -1.68845534026950        1.73782740245638       -2.22184545458271
H           -4.11018284001924        1.44624452998366       -2.59002505650806
H           -5.23383390307466       -0.53921008981524       -1.72628303827056

          :  Hamiltonian                  GFN2-xTB          :
         :: gradient norm              0.000068916813 Eh/a0 ::
         :: HOMO-LUMO gap              1.208028327213 eV    ::
         :: SCC energy              -144.225233966129 Eh    ::
         :: -> dispersion             -0.148220115311 Eh    ::
         :: repulsion energy           2.465578085824 Eh    ::

    * Orbital Energies and Occupations

         #    Occupation            Energy/Eh            Energy/eV
      -------------------------------------------------------------
         1        2.0000           -0.7167037             -19.5025
       ...           ...                  ...                  ...
       119        2.0000           -0.4124010             -11.2220
       120        2.0000           -0.4085614             -11.1175
       121        2.0000           -0.4076937             -11.0939
       122        2.0000           -0.4050570             -11.0222
       123        2.0000           -0.4039471             -10.9920
       124        2.0000           -0.3986816             -10.8487
       125        2.0000           -0.3977755             -10.8240
       126        2.0000           -0.3965983             -10.7920
       127        2.0000           -0.3953154             -10.7571
       128        2.0000           -0.3926544             -10.6847
       129        2.0000           -0.3806251             -10.3573
       130        2.0000           -0.3536092              -9.6222
       131        2.0000           -0.3486258              -9.4866 (HOMO)
       132                         -0.3042316              -8.2786 (LUMO)
       133                         -0.3008712              -8.1871
       134                         -0.2597596              -7.0684
       135                         -0.2495815              -6.7915
       136                         -0.2399040              -6.5281
       137                         -0.2389255              -6.5015
       138                         -0.2267589              -6.1704
       139                         -0.2251984              -6.1280
       140                         -0.2237794              -6.0893
       141                         -0.2209238              -6.0116
       142                         -0.2191576              -5.9636
       ...                                ...                  ...
       255                          0.6955542              18.9270
      -------------------------------------------------------------
                  HL-Gap            0.0443942 Eh            1.2080 eV

     #   Z          covCN         q      C6AA      α(0)
     1   6 C        3.766    -0.099    22.439     6.752
     2   6 C        3.911     0.022    20.148     6.380
     3   6 C        3.758    -0.106    22.581     6.775
     4   6 C        2.985    -0.010    28.259     8.720
     5   6 C        2.924    -0.039    28.969     8.826
     6   6 C        2.918    -0.041    29.020     8.834
     7   6 C        2.919    -0.033    28.815     8.803
     8   6 C        2.923    -0.053    29.321     8.880
     9   6 C        2.942     0.056    26.741     8.481
    10   7 N        2.753    -0.067    22.536     7.051
    11   6 C        2.923     0.077    26.279     8.407
    12   6 C        2.922    -0.038    28.935     8.821
    13   6 C        2.925    -0.017    28.438     8.745
    14   6 C        2.970    -0.011    28.291     8.725
    15   6 C        2.829     0.221    23.351     7.918
    16   8 O        0.858    -0.370    21.082     6.156
    17   6 C        2.954     0.077    26.277     8.408
    18   6 C        2.918    -0.024    28.592     8.768
    19   6 C        2.925    -0.009    28.233     8.714
    20   6 C        2.916    -0.024    28.608     8.771
    21   6 C        2.958     0.073    26.356     8.421
    22   6 C        2.830     0.228    23.224     7.897
    23   8 O        0.857    -0.355    20.803     6.115
    24   6 C        2.975    -0.005    28.153     8.703
    25   6 C        2.921    -0.019    28.481     8.752
    26   6 C        2.921    -0.038    28.936     8.821
    27   6 C        2.925     0.074    26.351     8.418
    28   7 N        2.752    -0.063    22.462     7.039
    29   6 C        2.925     0.059    26.682     8.471
    30   6 C        2.924    -0.057    29.416     8.894
    31   6 C        2.921    -0.035    28.866     8.811
    32   6 C        2.917    -0.043    29.073     8.842
    33   6 C        2.929    -0.036    28.899     8.816
    34   6 C        2.981    -0.012    28.308     8.728
    35   6 C        3.910     0.022    20.155     6.381
    36   6 C        3.762    -0.103    22.505     6.762
    37   6 C        3.760    -0.106    22.572     6.773
    38   6 C        2.980    -0.012    28.305     8.727
    39   6 C        2.929    -0.036    28.897     8.816
    40   6 C        2.917    -0.043    29.076     8.842
    41   6 C        2.920    -0.033    28.821     8.804
    42   6 C        2.924    -0.059    29.467     8.902
    43   6 C        2.925     0.058    26.708     8.475
    44   6 C        2.921    -0.039    28.961     8.825
    45   6 C        2.922    -0.019    28.490     8.753
    46   7 N        1.849    -0.227    26.798     7.672
    47   6 C        2.919    -0.022    28.564     8.764
    48   6 C        2.919    -0.042    29.045     8.838
    49   6 C        2.927     0.058    26.706     8.475
    50   6 C        2.921    -0.057    29.409     8.893
    51   6 C        2.921    -0.032    28.790     8.799
    52   6 C        2.918    -0.043    29.073     8.842
    53   6 C        2.924    -0.040    28.996     8.831
    54   6 C        2.987    -0.012    28.295     8.726
    55   1 H        0.925     0.038     2.473     2.459
    56   1 H        0.925     0.036     2.503     2.474
    57   1 H        0.925     0.037     2.485     2.465
    58   1 H        0.925     0.040     2.446     2.446
    59   1 H        0.925     0.037     2.483     2.464
    60   1 H        0.925     0.040     2.444     2.445
    61   1 H        0.926     0.038     2.482     2.464
    62   1 H        0.926     0.030     2.586     2.515
    63   1 H        0.926     0.031     2.570     2.507
    64   1 H        0.926     0.026     2.645     2.543
    65   1 H        0.926     0.045     2.378     2.411
    66   1 H        0.926     0.064     2.154     2.295
    67   1 H        0.926     0.067     2.123     2.278
    68   1 H        0.926     0.050     2.318     2.381
    69   1 H        0.926     0.064     2.152     2.294
    70   1 H        0.926     0.041     2.433     2.439
    71   1 H        0.926     0.047     2.352     2.398
    72   1 H        0.926     0.024     2.678     2.559
    73   1 H        0.926     0.026     2.641     2.541
    74   1 H        0.926     0.027     2.623     2.533
    75   1 H        0.926     0.031     2.573     2.508
    76   1 H        0.925     0.040     2.447     2.446
    77   1 H        0.925     0.031     2.577     2.511
    78   1 H        0.925     0.039     2.461     2.453
    79   1 H        0.925     0.039     2.463     2.454
    80   1 H        0.925     0.037     2.494     2.470
    81   1 H        0.925     0.038     2.481     2.463
    82   1 H        0.926     0.031     2.573     2.509
    83   1 H        0.926     0.027     2.623     2.533
    84   1 H        0.926     0.029     2.596     2.520
    85   1 H        0.926     0.029     2.604     2.523
    86   1 H        0.926     0.050     2.318     2.381
    87   1 H        0.926     0.053     2.286     2.364
    88   1 H        0.926     0.051     2.305     2.374
    89   1 H        0.926     0.047     2.357     2.401
    90   1 H        0.926     0.032     2.559     2.501
    91   1 H        0.926     0.025     2.652     2.547
    92   1 H        0.926     0.028     2.620     2.531
    93   1 H        0.926     0.037     2.488     2.467

molecular dipole:
                 x           y           z       tot (Debye)
 q only:       -1.301      -0.041       0.088
   full:       -0.775      -0.094       0.134       2.013

 projected vibrational frequencies (cm⁻¹)
eigval :       -0.00    -0.00    -0.00    -0.00     0.00     0.00
eigval :       10.55    21.09    26.60    30.74    35.35    40.88
eigval :       42.41    46.62    54.74    57.74    63.23    75.45
eigval :       87.50    90.98   107.58   110.26   117.76   119.05
eigval :      124.67   127.86   136.07   140.32   157.71   165.13
eigval :      169.67   175.35   181.40   190.32   204.48   210.22
eigval :      219.38   229.70   240.33   243.76   268.89   271.99
eigval :      276.96   292.94   303.88   307.36   314.80   318.25
eigval :      330.71   336.78   343.46   349.52   364.37   372.84
eigval :      374.55   376.93   380.17   386.40   388.84   393.31
eigval :      401.49   411.40   415.14   418.47   446.85   448.00
eigval :      452.21   459.62   479.56   486.52   497.76   501.28
eigval :      510.31   516.84   535.75   545.98   550.77   552.85
eigval :      563.92   566.28   574.53   582.97   591.24   596.20
eigval :      604.72   608.82   618.15   627.38   646.92   649.66
eigval :      674.51   683.93   684.11   685.14   694.96   696.12
eigval :      702.22   709.35   725.56   731.70   743.85   745.50
eigval :      775.73   779.44   780.93   786.19   795.64   814.61
eigval :      816.33   820.99   827.96   829.41   864.24   868.21
eigval :      870.53   872.35   876.88   883.06   891.77   904.04
eigval :      904.74   905.71   911.65   913.74   913.87   915.38
eigval :      917.44   920.46   921.08   922.53   923.07   928.43
eigval :      933.66   936.78   937.89   940.11   941.14   943.16
eigval :      944.64   958.58   967.94   982.87  1008.87  1011.26
eigval :     1015.87  1027.79  1028.84  1075.18  1077.27  1084.66
eigval :     1085.48  1102.06  1112.10  1118.20  1120.48  1122.55
eigval :     1133.84  1138.77  1142.66  1144.84  1151.68  1153.67
eigval :     1159.58  1174.21  1175.87  1182.58  1184.42  1185.99
eigval :     1188.41  1189.31  1190.27  1191.95  1194.11  1206.70
eigval :     1214.50  1239.40  1244.61  1249.76  1252.10  1262.48
eigval :     1264.04  1265.09  1270.56  1276.31  1278.02  1283.44
eigval :     1297.06  1305.30  1308.82  1312.36  1316.83  1318.98
eigval :     1327.41  1328.56  1334.16  1334.26  1335.66  1337.29
eigval :     1397.90  1400.19  1402.25  1403.31  1404.04  1414.57
eigval :     1417.83  1421.62  1436.04  1440.32  1441.29  1445.33
eigval :     1463.31  1471.06  1475.87  1477.66  1484.39  1490.04
eigval :     1490.75  1491.70  1494.70  1495.98  1501.81  1505.36
eigval :     1505.59  1530.13  1547.44  1551.35  1555.12  1557.37
eigval :     1575.46  1576.19  1577.83  1583.02  1586.30  1590.30
eigval :     1591.22  1593.84  1602.01  1603.54  1678.92  1717.66
eigval :     3023.57  3026.24  3029.10  3032.58  3034.39  3038.21
eigval :     3041.07  3043.25  3047.55  3048.13  3049.98  3053.78
eigval :     3078.15  3078.59  3080.07  3080.25  3081.02  3081.39
eigval :     3084.87  3085.45  3088.29  3088.62  3089.32  3089.73
eigval :     3093.75  3094.76  3095.21  3096.54  3096.87  3097.41
eigval :     3098.70  3103.96  3104.07  3104.87  3107.06  3113.75
eigval :     3114.69  3115.84  3123.32

   temp. (K)  partition function   enthalpy   heat capacity  entropy
                                   cal/mol     cal/K/mol   cal/K/mol   J/K/mol
 298.15  VIB  0.206E+20            26804.776    170.545    164.547
         ROT  0.794E+08              888.752      2.981     39.130
         INT  0.164E+28            27693.529    173.526    203.677
         TR   0.180E+29             1481.254      4.968     45.506
         TOT                       29174.7827   178.4941   249.1825  1042.5796

       T/K    H(0)-H(T)+PV         H(T)/Eh          T*S/Eh         G(T)/Eh
   ------------------------------------------------------------------------
    298.15    0.464930E-01    0.778129E+00    0.118395E+00    0.659734E+00
   ------------------------------------------------------------------------

         :::::::::::::::::::::::::::::::::::::::::::::::::::::
         ::                  THERMODYNAMIC                  ::
         :::::::::::::::::::::::::::::::::::::::::::::::::::::
         :: total free energy        -141.099921627469 Eh   ::
         ::.................................................::
         :: total energy             -141.759655880304 Eh   ::
         :: zero point energy           0.731635922476 Eh   ::
         :: G(RRHO) w/o ZPVE           -0.071901669641 Eh   ::
         :: G(RRHO) contrib.            0.659734252835 Eh   ::
         :::::::::::::::::::::::::::::::::::::::::::::::::::::

           -------------------------------------------------
          | TOTAL ENERGY             -141.759655880304 Eh   |
          | TOTAL ENTHALPY           -140.981526982115 Eh   |
          | TOTAL FREE ENERGY        -141.099921627469 Eh   |
          | GRADIENT NORM               0.000068918828 Eh/α |
          | HOMO-LUMO GAP               1.208027894218 eV   |
           -------------------------------------------------

 * finished run on 2025/09/07 at 03:04:03.861
