   * xtb version 6.7.1 (edcfbbe) compiled by 'albert@albert-system' on 2024-07-22

   ID    Z sym.   atoms
    1    8 O      1, 3
    2   16 S      2, 27
    3    6 C      4-9, 11-19, 21-26, 28-36
    4    7 N      10, 20
    5    1 H      37-56

          program call               : xtb data2507/toluene/PTZ-2PTO/PTZ-2PTO.xyz --gfn 2 --gbsa toluene --ohess vtight --parallel 40 --molden --ceasefiles --namespace data2507/toluene/PTZ-2PTO/PTZ-2PTO_toluene_S0_preOpt
      * Solvation model:               GBSA
        Solvent                        toluene
        Solvent mass                       9.2140E+01 g/mol
          :  Hamiltonian                  GFN2-xTB          :
 * total energy  :   -94.9322825 Eh     change       -0.6719745E-09 Eh
 * total energy  :   -94.9478575 Eh     change       -0.1557495E-01 Eh
 * total energy  :   -94.9550970 Eh     change       -0.7239520E-02 Eh
 * total energy  :   -94.9567920 Eh     change       -0.1695044E-02 Eh
 * total energy  :   -94.9575740 Eh     change       -0.7819424E-03 Eh
 * total energy  :   -94.9578094 Eh     change       -0.2353755E-03 Eh
 * total energy  :   -94.9578605 Eh     change       -0.5116130E-04 Eh
 * total energy  :   -94.9578799 Eh     change       -0.1934319E-04 Eh
 * total energy  :   -94.9578907 Eh     change       -0.1079404E-04 Eh
 * total energy  :   -94.9578981 Eh     change       -0.7485134E-05 Eh
 * total energy  :   -94.9579662 Eh     change       -0.2868391E-06 Eh
 * total energy  :   -94.9579665 Eh     change       -0.2760218E-06 Eh
 * total energy  :   -94.9579667 Eh     change       -0.2197290E-06 Eh
 * total energy  :   -94.9579669 Eh     change       -0.1701298E-06 Eh
 * total energy  :   -94.9579670 Eh     change       -0.1546316E-06 Eh
 * total energy  :   -94.9579672 Eh     change       -0.1677130E-06 Eh
 * total energy  :   -94.9579674 Eh     change       -0.1937182E-06 Eh
 * total energy  :   -94.9579676 Eh     change       -0.2268328E-06 Eh
 * total energy  :   -94.9579676 Eh     change       -0.4125226E-08 Eh
   *** GEOMETRY OPTIMIZATION CONVERGED AFTER 44 ITERATIONS ***

 final structure:
================
56
 xtb: 6.7.1 (edcfbbe)
O            3.11203581181397        3.64436096060565        1.22201648554292
S            2.95123235906709        2.88662430600519       -0.00183240785617
O            3.11189185015740        3.64165318962360       -1.22738276229555
C            4.07565945075293        1.51445696493659       -0.00041979995671
C            5.42514795929557        1.82263329805293       -0.00010256732787
C            6.37297341473966        0.81914620572366        0.00079387994509
C            5.94143543536416       -0.50092859763987        0.00128799327745
C            4.59795467314291       -0.80963714637389        0.00098224199472
C            3.61789409163232        0.19809821503134        0.00014920497256
N            2.27612892733101       -0.14959181534252       -0.00002262504238
C            1.96405106124893       -1.55344684179233        0.00033569541351
C            1.81279615379146       -2.22569461287892       -1.20508532757097
C            1.51301126052247       -3.57763575066832       -1.19998691760806
C            1.36407370571530       -4.25257702555522        0.00096114771683
C            1.51279301762846       -3.57703162202824        1.20159814772309
C            1.81258453015313       -2.22509121361104        1.20607108510325
C            1.21330753729431        0.72713434178816       -0.00038607279217
C           -0.10144139276640        0.22615275055781       -0.00012506478168
C           -1.19192314393634        1.07410161337916       -0.00043378543067
N           -2.49916597370912        0.50435129377371       -0.00018450258446
C           -3.12573373830546        0.34358394314611       -1.23499061148934
C           -2.47287301295669        0.74608075197903       -2.40207046608429
C           -3.06055425056847        0.60421795039466       -3.64695589181760
C           -4.32700036210473        0.06309113298269       -3.76443586344645
C           -4.98899824418410       -0.34631577537453       -2.62012129634088
C           -4.39653259150232       -0.22068794043081       -1.37400974295013
S           -5.32013230051787       -0.85444244669382        0.00035413830617
C           -4.39626209902686       -0.22015841835559        1.37429016481963
C           -4.98847924151499       -0.34531972865776        2.62056707745627
C           -4.32623709539372        0.06448532798304        3.76459910161722
C           -3.05980285699799        0.60554615776035        3.64666620719382
C           -2.47238272649338        0.74696776267046        2.40160445093501
C           -3.12548471390870        0.34404610006808        1.23480640518450
C           -1.02703706005497        2.45923999364190       -0.00099273683531
C            0.25668667659434        2.96317093645107       -0.00127495842191
C            1.35068044895403        2.11607416254715       -0.00099590076690
H            5.69578658636838        2.86749407229405       -0.00055725874487
H            7.42416409312954        1.05762697003236        0.00106223260914
H            6.66376412086092       -1.30278928113718        0.00194483640363
H            4.29625306425230       -1.84407390022265        0.00137428241660
H            1.93191145253112       -1.68863884076253       -2.13399613559764
H            1.39578830399236       -4.10218190634308       -2.13586384385470
H            1.13081070434663       -5.30642103665318        0.00120431029540
H            1.39544010791410       -4.10111524717394        2.13771733094624
H            1.93154841999996       -1.68757824884180        2.13473578262602
H           -0.27839839618841       -0.83734900549985        0.00031322703601
H           -1.48673578157965        1.17743487471268       -2.33425197359342
H           -2.51886379758112        0.92444472860677       -4.52402612041138
H           -4.79660782176992       -0.04605945786868       -4.72928929722784
H           -5.97520187298327       -0.78208580018642       -2.67909195003753
H           -5.97468645344637       -0.78102994146619        2.67989399866071
H           -4.79568445587347       -0.04423090431735        4.72957821242996
H           -2.51796912262170        0.92616993119443        4.52350166005645
H           -1.48627348758504        1.17832420663683        2.33341954321389
H           -1.88610631418330        3.11060864813720       -0.00120616635962
H            0.44876308915926        4.02479271515937       -0.00173579666943

          :  Hamiltonian                  GFN2-xTB          :
         :: gradient norm              0.000028071123 Eh/a0 ::
         :: HOMO-LUMO gap              2.098693614224 eV    ::
         :: SCC energy               -96.521771888373 Eh    ::
         :: -> dispersion             -0.084484288737 Eh    ::
         :: -> Gsolv                  -0.048556515888 Eh    ::
         :: repulsion energy           1.563804286029 Eh    ::

    * Orbital Energies and Occupations

         #    Occupation            Energy/Eh            Energy/eV
      -------------------------------------------------------------
         1        2.0000           -0.7795889             -21.2137
       ...           ...                  ...                  ...
        75        2.0000           -0.4366068             -11.8807
        76        2.0000           -0.4353313             -11.8460
        77        2.0000           -0.4307912             -11.7224
        78        2.0000           -0.4266514             -11.6098
        79        2.0000           -0.4255622             -11.5801
        80        2.0000           -0.4250860             -11.5672
        81        2.0000           -0.4236987             -11.5294
        82        2.0000           -0.4178298             -11.3697
        83        2.0000           -0.4145348             -11.2801
        84        2.0000           -0.4128460             -11.2341
        85        2.0000           -0.3854099             -10.4875
        86        2.0000           -0.3842244             -10.4553
        87        2.0000           -0.3433439              -9.3429 (HOMO)
        88                         -0.2662183              -7.2442 (LUMO)
        89                         -0.2631904              -7.1618
        90                         -0.2529736              -6.8838
        91                         -0.2466115              -6.7106
        92                         -0.2448564              -6.6629
        93                         -0.2432058              -6.6180
        94                         -0.2337420              -6.3604
        95                         -0.2282249              -6.2103
        96                         -0.2244685              -6.1081
        97                         -0.2034113              -5.5351
        98                         -0.2006642              -5.4604
       ...                                ...                  ...
       174                          1.1663703              31.7386
      -------------------------------------------------------------
                  HL-Gap            0.0771256 Eh            2.0987 eV

     #   Z          covCN         q      C6AA      α(0)
     1   8 O        0.860    -0.587    25.811     6.812
     2  16 S        3.857     0.952   108.031    17.493
     3   8 O        0.860    -0.587    25.811     6.812
     4   6 C        2.973    -0.096    30.405     9.045
     5   6 C        2.985    -0.019    28.477     8.754
     6   6 C        2.918    -0.031    28.783     8.798
     7   6 C        2.919    -0.021    28.535     8.760
     8   6 C        2.927    -0.048    29.194     8.861
     9   6 C        2.946     0.061    26.638     8.465
    10   7 N        2.749    -0.051    22.221     7.001
    11   6 C        2.935     0.058    26.705     8.475
    12   6 C        2.920    -0.036    28.906     8.817
    13   6 C        2.920    -0.023    28.589     8.768
    14   6 C        2.919    -0.025    28.633     8.775
    15   6 C        2.920    -0.023    28.589     8.768
    16   6 C        2.920    -0.036    28.906     8.817
    17   6 C        2.946     0.064    26.560     8.453
    18   6 C        2.931    -0.063    29.559     8.916
    19   6 C        2.932     0.077    26.283     8.408
    20   7 N        2.750    -0.073    22.658     7.070
    21   6 C        2.941     0.059    26.688     8.473
    22   6 C        2.928    -0.060    29.489     8.906
    23   6 C        2.919    -0.034    28.843     8.807
    24   6 C        2.918    -0.040    28.988     8.829
    25   6 C        2.987    -0.041    29.005     8.834
    26   6 C        2.971     0.034    27.242     8.561
    27  16 S        2.133    -0.167   148.101    20.482
    28   6 C        2.971     0.034    27.242     8.561
    29   6 C        2.987    -0.041    29.005     8.834
    30   6 C        2.918    -0.040    28.988     8.829
    31   6 C        2.919    -0.034    28.844     8.807
    32   6 C        2.928    -0.060    29.489     8.906
    33   6 C        2.941     0.059    26.688     8.473
    34   6 C        2.919    -0.044    29.105     8.847
    35   6 C        2.983    -0.018    28.458     8.751
    36   6 C        2.972    -0.100    30.510     9.060
    37   1 H        0.926     0.046     2.372     2.409
    38   1 H        0.926     0.062     2.178     2.308
    39   1 H        0.926     0.068     2.112     2.273
    40   1 H        0.926     0.066     2.129     2.282
    41   1 H        0.926     0.050     2.323     2.383
    42   1 H        0.926     0.054     2.269     2.356
    43   1 H        0.926     0.053     2.278     2.360
    44   1 H        0.926     0.054     2.269     2.356
    45   1 H        0.926     0.050     2.323     2.383
    46   1 H        0.926     0.069     2.101     2.267
    47   1 H        0.926     0.033     2.541     2.493
    48   1 H        0.926     0.040     2.451     2.448
    49   1 H        0.926     0.041     2.437     2.441
    50   1 H        0.926     0.043     2.404     2.425
    51   1 H        0.926     0.043     2.404     2.425
    52   1 H        0.926     0.041     2.437     2.441
    53   1 H        0.926     0.040     2.451     2.448
    54   1 H        0.926     0.033     2.541     2.493
    55   1 H        0.926     0.064     2.156     2.296
    56   1 H        0.926     0.054     2.271     2.357

molecular dipole:
                 x           y           z       tot (Debye)
 q only:        0.353      -3.829       0.003
   full:        0.594      -3.286       0.003       8.487

 projected vibrational frequencies (cm⁻¹)
eigval :       -0.00    -0.00    -0.00     0.00     0.00     0.00
eigval :      -10.78     8.54    18.04    23.99    25.63    26.70
eigval :       53.72    63.92    88.58    92.68   107.02   122.09
eigval :      130.44   158.53   177.67   194.00   206.55   227.90
eigval :      229.45   237.00   244.90   254.98   274.01   294.51
eigval :      323.54   346.32   361.24   372.79   389.04   389.69
eigval :      396.08   398.09   410.77   420.38   427.47   442.54
eigval :      448.56   477.02   478.15   489.17   492.04   505.09
eigval :      507.18   523.10   545.62   566.11   591.28   591.59
eigval :      618.77   620.10   636.52   647.32   647.69   658.35
eigval :      666.35   667.26   668.02   691.32   702.24   719.06
eigval :      754.84   772.39   774.03   776.74   778.29   815.27
eigval :      856.86   861.35   861.37   873.16   875.21   885.44
eigval :      902.34   902.64   902.88   907.69   908.87   909.15
eigval :      914.47   918.95   919.30   925.45   927.77   934.13
eigval :      988.16  1004.25  1034.63  1041.09  1054.76  1074.22
eigval :     1076.55  1089.77  1093.39  1104.03  1104.99  1113.14
eigval :     1147.33  1151.61  1154.68  1157.48  1169.95  1176.64
eigval :     1177.34  1179.07  1181.85  1183.31  1185.95  1210.04
eigval :     1225.61  1236.87  1247.09  1256.35  1270.35  1274.04
eigval :     1296.46  1306.64  1311.08  1311.11  1317.10  1325.58
eigval :     1329.35  1331.88  1406.42  1409.46  1418.01  1424.28
eigval :     1429.12  1456.48  1459.30  1461.70  1468.84  1478.20
eigval :     1546.66  1555.27  1558.56  1568.56  1573.46  1579.01
eigval :     1582.73  1587.06  1592.43  1596.45  3084.50  3084.65
eigval :     3086.39  3087.00  3087.43  3088.48  3093.38  3093.98
eigval :     3094.99  3098.74  3099.51  3100.68  3100.69  3104.88
eigval :     3107.79  3108.27  3110.93  3112.33  3117.21  3120.74

   temp. (K)  partition function   enthalpy   heat capacity  entropy
                                   cal/mol     cal/K/mol   cal/K/mol   J/K/mol
 298.15  VIB  0.374E+14            16735.215    105.151    103.768
         ROT  0.330E+08              888.752      2.981     37.385
         INT  0.124E+22            17623.967    108.132    141.153
         TR   0.110E+29             1481.254      4.968     44.523
         TOT                       19105.2212   113.1004   185.6758   776.8674

       T/K    H(0)-H(T)+PV         H(T)/Eh          T*S/Eh         G(T)/Eh
   ------------------------------------------------------------------------
    298.15    0.304461E-01    0.440504E+00    0.882206E-01    0.352283E+00
   ------------------------------------------------------------------------

         :::::::::::::::::::::::::::::::::::::::::::::::::::::
         ::                  THERMODYNAMIC                  ::
         :::::::::::::::::::::::::::::::::::::::::::::::::::::
         :: total free energy         -94.605684638579 Eh   ::
         ::.................................................::
         :: total energy              -94.957967600971 Eh   ::
         :: zero point energy           0.410057404740 Eh   ::
         :: G(RRHO) w/o ZPVE           -0.057774442348 Eh   ::
         :: G(RRHO) contrib.            0.352282962392 Eh   ::
         :::::::::::::::::::::::::::::::::::::::::::::::::::::

           -------------------------------------------------
          | TOTAL ENERGY              -94.957967600971 Eh   |
          | TOTAL ENTHALPY            -94.517464088206 Eh   |
          | TOTAL FREE ENERGY         -94.605684638579 Eh   |
          | GRADIENT NORM               0.000028094917 Eh/α |
          | HOMO-LUMO GAP               2.098694675441 eV   |
           -------------------------------------------------

 * finished run on 2025/08/21 at 21:22:19.037
