   * xtb version 6.7.1 (edcfbbe) compiled by 'albert@albert-system' on 2024-07-22

   ID    Z sym.   atoms
    1    8 O      1, 3
    2   16 S      2, 27
    3    6 C      4-9, 11-19, 21-26, 28-36
    4    7 N      10, 20
    5    1 H      37-56

          program call               : xtb data2507/toluene/PTZ-2PTO/PTZ-2PTO_toluene_S0_finalOpt.xtbopt.xyz --gfn 2 --uhf 2 --gbsa toluene --ohess vtight --parallel 40 --molden --ceasefiles --namespace data2507/toluene/PTZ-2PTO/PTZ-2PTO_toluene_T1_preOpt
      * Solvation model:               GBSA
        Solvent                        toluene
        Solvent mass                       9.2140E+01 g/mol
          :  Hamiltonian                  GFN2-xTB          :
 * total energy  :   -94.8473592 Eh     change       -0.3874376E-08 Eh
 * total energy  :   -94.8503429 Eh     change       -0.2983705E-02 Eh
 * total energy  :   -94.8514285 Eh     change       -0.1085616E-02 Eh
 * total energy  :   -94.8515992 Eh     change       -0.1707099E-03 Eh
 * total energy  :   -94.8518651 Eh     change       -0.2658932E-03 Eh
 * total energy  :   -94.8519688 Eh     change       -0.1036930E-03 Eh
 * total energy  :   -94.8520979 Eh     change       -0.1290657E-03 Eh
 * total energy  :   -94.8522180 Eh     change       -0.1201226E-03 Eh
 * total energy  :   -94.8522962 Eh     change       -0.7823204E-04 Eh
 * total energy  :   -94.8523730 Eh     change       -0.7677515E-04 Eh
 * total energy  :   -94.8528339 Eh     change       -0.9713116E-06 Eh
 * total energy  :   -94.8528349 Eh     change       -0.9525440E-06 Eh
 * total energy  :   -94.8528355 Eh     change       -0.6722854E-06 Eh
 * total energy  :   -94.8528360 Eh     change       -0.4279910E-06 Eh
 * total energy  :   -94.8528363 Eh     change       -0.3717218E-06 Eh
 * total energy  :   -94.8528368 Eh     change       -0.4217586E-06 Eh
 * total energy  :   -94.8528373 Eh     change       -0.5600954E-06 Eh
 * total energy  :   -94.8528380 Eh     change       -0.6425989E-06 Eh
 * total energy  :   -94.8528380 Eh     change       -0.1873381E-07 Eh
   *** GEOMETRY OPTIMIZATION CONVERGED AFTER 44 ITERATIONS ***

 final structure:
================
56
 xtb: 6.7.1 (edcfbbe)
O            3.41307583738247        3.56262075305350        0.28247664741449
S            3.13359770695658        2.34772520184910       -0.46009126858442
O            3.29945255909684        2.45634687022463       -1.90495922798837
C            4.17115154207367        1.02146642208268        0.09868581388210
C            5.49703895951461        1.29320273228075        0.36755469947765
C            6.36361866353103        0.27104844760090        0.72074490726411
C            5.87009697334142       -1.02444130535052        0.78157022763326
C            4.54356311889872       -1.29693886153372        0.52120860529311
C            3.64316173579740       -0.26856464872092        0.17674531693346
N            2.31252009522891       -0.56406594826249       -0.04831577136363
C            1.96471317051862       -1.95186121361914       -0.14343824499640
C            2.12077801271658       -2.60529955339367       -1.35776935281329
C            1.79787996678827       -3.94839376225871       -1.46047138189734
C            1.31741856999265       -4.63460678266054       -0.35759395961956
C            1.15804215774377       -3.97869336679915        0.85282937934843
C            1.48275598120173       -2.63786110688278        0.96495452123052
C            1.27585057493266        0.35718982386068       -0.09651495298138
C           -0.03872248100398       -0.06173831129596       -0.09154584310392
C           -1.11590237299441        0.85824858257000       -0.05565318150561
N           -2.41981087141192        0.42280644860698       -0.11079174815394
C           -2.78538714939597       -0.91563862257825       -0.26160061809468
C           -2.22675113105774       -1.73156598254402       -1.26248429805881
C           -2.61615500572914       -3.04070142274010       -1.39650194614518
C           -3.57441778463488       -3.59349506769826       -0.53879125901586
C           -4.18388333671203       -2.79138972354556        0.41048257564423
C           -3.81414123547645       -1.46473074168444        0.54090615011325
S           -4.62671057552502       -0.42432289897926        1.70971396664483
C           -4.63877351838041        1.01956748655267        0.70083585491382
C           -5.72365632951767        1.87664372870673        0.71456064094699
C           -5.73297883344155        3.00166521302063       -0.09347570664944
C           -4.65339166019475        3.24550944444418       -0.95115368637428
C           -3.56441319029847        2.41124138507354       -0.96167894896697
C           -3.50970487794279        1.29073104510624       -0.11000172079447
C           -0.82044825012330        2.24600012003650        0.13710396491265
C            0.47374573972939        2.66791041166000        0.08633808149205
C            1.52810310421056        1.75916352916072       -0.09850431331222
H            5.82250161466562        2.31944717539566        0.28944795724071
H            7.39924618197014        0.48056989091809        0.93430471410410
H            6.52980637768494       -1.83798659088663        1.04363400473647
H            4.19048387332151       -2.31310845629609        0.58729135595021
H            2.49887487767347       -2.05830406467753       -2.20873533514738
H            1.92344136089098       -4.45670959754450       -2.40448002230884
H            1.06664911286323       -5.68118087595550       -0.44037731127156
H            0.78387757162418       -4.51161251717318        1.71366217847123
H            1.36961208238876       -2.11690296369759        1.90396585985828
H           -0.25903351327902       -1.11461562526604       -0.06702894051967
H           -1.51348559021288       -1.29545679146416       -1.94466923670632
H           -2.18469385479142       -3.64658482229856       -2.17796042810113
H           -3.86016866222670       -4.62795763367285       -0.63644947076900
H           -4.95769854113964       -3.18415040030174        1.05161486702532
H           -6.56071946194847        1.65365182027748        1.35766608158194
H           -6.57819802568342        3.67012548964675       -0.07969849629268
H           -4.68059541571164        4.09402032082570       -1.61743295922943
H           -2.74427419134726        2.58005800152347       -1.64295640464275
H           -1.61122984415655        2.94521388113108        0.34880458208555
H            0.73846506208509        3.70805819917483        0.19726630299731

          :  Hamiltonian                  GFN2-xTB          :
         :: gradient norm              0.000077974197 Eh/a0 ::
         :: HOMO-LUMO gap              0.217977577531 eV    ::
         :: SCC energy               -96.395817079967 Eh    ::
         :: -> dispersion             -0.086933941690 Eh    ::
         :: -> Gsolv                  -0.052088988033 Eh    ::
         :: repulsion energy           1.542979105425 Eh    ::

    * Orbital Energies and Occupations

         #    Occupation            Energy/Eh            Energy/eV
      -------------------------------------------------------------
         1        2.0000           -0.7645942             -20.8057
       ...           ...                  ...                  ...
        76        2.0000           -0.4282228             -11.6525
        77        2.0000           -0.4247969             -11.5593
        78        2.0000           -0.4217858             -11.4774
        79        2.0000           -0.4210497             -11.4573
        80        2.0000           -0.4207101             -11.4481
        81        2.0000           -0.4193387             -11.4108
        82        2.0000           -0.4178610             -11.3706
        83        2.0000           -0.4133366             -11.2475
        84        2.0000           -0.3998234             -10.8797
        85        2.0000           -0.3920249             -10.6675
        86        1.9693           -0.3720847             -10.1249
        87        1.0307           -0.3655251              -9.9464
        88        0.9853           -0.2585338              -7.0351 (HOMO)
        89        0.0144           -0.2505234              -6.8171 (LUMO)
        90        0.0003           -0.2468424              -6.7169
        91        0.0000           -0.2427805              -6.6064
        92        0.0000           -0.2416930              -6.5768
        93        0.0000           -0.2413026              -6.5662
        94                         -0.2391334              -6.5071
        95                         -0.2386942              -6.4952
        96                         -0.2277367              -6.1970
        97                         -0.2113926              -5.7523
        98                         -0.2090988              -5.6899
        99                         -0.1468123              -3.9950
       ...                                ...                  ...
       174                          1.1572492              31.4904
      -------------------------------------------------------------
                  HL-Gap            0.0080104 Eh            0.2180 eV

     #   Z          covCN         q      C6AA      α(0)
     1   8 O        0.860    -0.592    25.925     6.827
     2  16 S        3.846     0.923   108.886    17.563
     3   8 O        0.860    -0.605    26.246     6.869
     4   6 C        2.973    -0.094    30.344     9.036
     5   6 C        2.971    -0.026    28.646     8.779
     6   6 C        2.918    -0.039    28.979     8.828
     7   6 C        2.918    -0.025    28.636     8.775
     8   6 C        2.925    -0.056    29.380     8.889
     9   6 C        2.958     0.060    26.660     8.469
    10   7 N        2.750    -0.062    22.435     7.035
    11   6 C        2.934     0.063    26.593     8.457
    12   6 C        2.921    -0.036    28.906     8.817
    13   6 C        2.920    -0.025    28.618     8.773
    14   6 C        2.919    -0.027    28.680     8.782
    15   6 C        2.920    -0.026    28.646     8.777
    16   6 C        2.920    -0.038    28.934     8.821
    17   6 C        2.948     0.053    26.809     8.492
    18   6 C        2.921    -0.080    30.004     8.983
    19   6 C        2.912     0.031    27.315     8.570
    20   7 N        2.749     0.014    21.018     6.809
    21   6 C        2.985     0.037    27.173     8.551
    22   6 C        2.917    -0.044    29.085     8.844
    23   6 C        2.915    -0.030    28.760     8.794
    24   6 C        2.918    -0.040    28.990     8.829
    25   6 C        2.957    -0.035    28.881     8.815
    26   6 C        2.967     0.026    27.421     8.589
    27  16 S        2.121    -0.045   142.897    20.119
    28   6 C        2.967     0.026    27.423     8.590
    29   6 C        2.956    -0.036    28.901     8.818
    30   6 C        2.918    -0.041    29.009     8.832
    31   6 C        2.915    -0.030    28.755     8.793
    32   6 C        2.917    -0.044    29.081     8.843
    33   6 C        2.988     0.037    27.158     8.548
    34   6 C        2.913    -0.049    29.208     8.862
    35   6 C        2.954    -0.032    28.786     8.800
    36   6 C        2.967    -0.117    30.970     9.128
    37   1 H        0.926     0.039     2.469     2.457
    38   1 H        0.926     0.051     2.307     2.375
    39   1 H        0.926     0.057     2.230     2.335
    40   1 H        0.926     0.055     2.259     2.351
    41   1 H        0.926     0.044     2.402     2.424
    42   1 H        0.926     0.051     2.304     2.374
    43   1 H        0.926     0.052     2.295     2.369
    44   1 H        0.926     0.052     2.293     2.368
    45   1 H        0.926     0.049     2.336     2.390
    46   1 H        0.926     0.055     2.252     2.347
    47   1 H        0.926     0.050     2.325     2.384
    48   1 H        0.926     0.050     2.314     2.379
    49   1 H        0.926     0.050     2.322     2.383
    50   1 H        0.926     0.055     2.262     2.352
    51   1 H        0.926     0.053     2.278     2.360
    52   1 H        0.926     0.047     2.354     2.399
    53   1 H        0.926     0.048     2.345     2.395
    54   1 H        0.926     0.049     2.329     2.387
    55   1 H        0.926     0.057     2.236     2.339
    56   1 H        0.926     0.040     2.453     2.449

molecular dipole:
                 x           y           z       tot (Debye)
 q only:       -3.242      -4.242       0.845
   full:       -2.951      -3.789       0.568      12.290

 projected vibrational frequencies (cm⁻¹)
eigval :       -0.00    -0.00     0.00     0.00     0.00     0.00
eigval :       12.56    16.50    26.08    42.69    45.91    57.73
eigval :       60.62    72.63    79.28    93.07   118.72   123.72
eigval :      145.19   154.81   164.07   187.60   202.75   213.71
eigval :      231.10   242.51   253.63   272.04   289.64   310.17
eigval :      313.34   335.56   359.37   361.27   370.47   375.63
eigval :      387.19   395.46   399.38   402.37   420.92   424.26
eigval :      451.52   457.46   460.23   475.34   483.58   496.54
eigval :      511.98   516.98   532.02   545.88   576.77   583.15
eigval :      589.45   594.06   604.68   622.98   625.37   642.12
eigval :      654.47   662.38   668.47   686.90   688.17   713.51
eigval :      740.89   747.49   750.58   764.01   769.35   775.86
eigval :      798.27   852.67   853.28   862.17   865.90   875.78
eigval :      877.35   881.69   882.71   885.92   897.76   901.71
eigval :      906.99   912.92   915.41   921.59   927.65   930.94
eigval :      968.29   985.65   988.43  1009.11  1026.30  1060.73
eigval :     1063.10  1068.36  1071.38  1074.06  1086.55  1108.32
eigval :     1117.17  1134.50  1141.21  1147.90  1151.83  1154.57
eigval :     1159.17  1164.82  1169.26  1176.83  1178.90  1181.24
eigval :     1202.12  1211.86  1214.44  1229.13  1253.47  1256.78
eigval :     1267.80  1281.54  1300.97  1305.42  1308.44  1318.10
eigval :     1324.20  1326.34  1330.55  1344.17  1368.60  1370.89
eigval :     1384.85  1421.11  1426.62  1428.36  1433.84  1442.72
eigval :     1449.25  1456.45  1464.76  1485.81  1508.04  1509.61
eigval :     1546.62  1564.72  1579.40  1585.42  3083.50  3085.08
eigval :     3085.09  3086.47  3089.74  3090.20  3090.43  3093.39
eigval :     3094.71  3095.52  3095.55  3096.92  3100.50  3102.38
eigval :     3107.11  3110.88  3112.19  3114.88  3118.21  3133.22

   temp. (K)  partition function   enthalpy   heat capacity  entropy
                                   cal/mol     cal/K/mol   cal/K/mol   J/K/mol
 298.15  VIB  0.205E+13            16872.221    108.837    103.333
         ROT  0.325E+08              888.752      2.981     37.356
         INT  0.667E+20            17760.973    111.818    140.689
         TR   0.110E+29             1481.254      4.968     44.523
         TOT                       19242.2274   116.7858   185.2118   774.9261

       T/K    H(0)-H(T)+PV         H(T)/Eh          T*S/Eh         G(T)/Eh
   ------------------------------------------------------------------------
    298.15    0.306644E-01    0.435224E+00    0.880001E-01    0.347223E+00
   ------------------------------------------------------------------------

         :::::::::::::::::::::::::::::::::::::::::::::::::::::
         ::                  THERMODYNAMIC                  ::
         :::::::::::::::::::::::::::::::::::::::::::::::::::::
         :: total free energy         -94.505614510598 Eh   ::
         ::.................................................::
         :: total energy              -94.852837976656 Eh   ::
         :: zero point energy           0.404559124695 Eh   ::
         :: G(RRHO) w/o ZPVE           -0.057335658636 Eh   ::
         :: G(RRHO) contrib.            0.347223466058 Eh   ::
         :::::::::::::::::::::::::::::::::::::::::::::::::::::

           -------------------------------------------------
          | TOTAL ENERGY              -94.852837976656 Eh   |
          | TOTAL ENTHALPY            -94.417614410778 Eh   |
          | TOTAL FREE ENERGY         -94.505614510598 Eh   |
          | GRADIENT NORM               0.000078752690 Eh/α |
          | HOMO-LUMO GAP               0.217973556358 eV   |
           -------------------------------------------------

 * finished run on 2025/08/21 at 21:25:15.604
