   * xtb version 6.7.1 (edcfbbe) compiled by 'albert@albert-system' on 2024-07-22

   ID    Z sym.   atoms
    1    8 O      1, 3
    2   16 S      2, 27
    3    6 C      4-9, 11-19, 21-26, 28-36
    4    7 N      10, 20
    5    1 H      37-56

          program call               : xtb data2507/toluene/PTZ-2PTO/PTZ-2PTO_toluene_T1_crest.xyz --gfn 2 --uhf 2 --gbsa toluene --ohess vtight --parallel 40 --molden --ceasefiles --namespace data2507/toluene/PTZ-2PTO/PTZ-2PTO_toluene_T1_finalOpt
      * Solvation model:               GBSA
        Solvent                        toluene
        Solvent mass                       9.2140E+01 g/mol
          :  Hamiltonian                  GFN2-xTB          :
 * total energy  :   -94.8666488 Eh     change       -0.1513507E-07 Eh
 * total energy  :   -94.8668152 Eh     change       -0.1663856E-03 Eh
 * total energy  :   -94.8669284 Eh     change       -0.1131547E-03 Eh
 * total energy  :   -94.8669411 Eh     change       -0.1271017E-04 Eh
 * total energy  :   -94.8669523 Eh     change       -0.1124849E-04 Eh
 * total energy  :   -94.8669561 Eh     change       -0.3769180E-05 Eh
 * total energy  :   -94.8669592 Eh     change       -0.3072096E-05 Eh
 * total energy  :   -94.8669618 Eh     change       -0.2617555E-05 Eh
 * total energy  :   -94.8669662 Eh     change       -0.4435021E-05 Eh
 * total energy  :   -94.8669703 Eh     change       -0.4035569E-05 Eh
 * total energy  :   -94.8670222 Eh     change       -0.1071396E-05 Eh
 * total energy  :   -94.8670230 Eh     change       -0.8225351E-06 Eh
 * total energy  :   -94.8670235 Eh     change       -0.5018436E-06 Eh
 * total energy  :   -94.8670239 Eh     change       -0.3057789E-06 Eh
 * total energy  :   -94.8670239 Eh     change       -0.2884343E-07 Eh
 * total energy  :   -94.8670241 Eh     change       -0.2000047E-06 Eh
 * total energy  :   -94.8670243 Eh     change       -0.2526235E-06 Eh
 * total energy  :   -94.8670246 Eh     change       -0.2254078E-06 Eh
 * total energy  :   -94.8670246 Eh     change       -0.1582275E-07 Eh
   *** GEOMETRY OPTIMIZATION CONVERGED AFTER 34 ITERATIONS ***

 final structure:
================
56
 xtb: 6.7.1 (edcfbbe)
O            3.45705443458431        3.26522797722118        1.04985206084968
S            3.20232332600911        2.27198143361650        0.02410325155072
O            3.43171995958523        2.72440994761618       -1.33954652121266
C            4.19999041476773        0.83210694946827        0.29990619230750
C            5.53894026343803        1.02294938773491        0.58786000644623
C            6.38840979478350       -0.06039613902002        0.71540690864277
C            5.87070430487437       -1.33504948414530        0.53218477806701
C            4.53342116703023       -1.52811061567287        0.25412025640331
C            3.65019684207626       -0.43946949669745        0.14166245310444
N            2.30569128797251       -0.66165302569723       -0.09849089447781
C            1.90230814815541       -2.00864545286306       -0.38856620082045
C            1.85518096328620       -2.43150438292033       -1.70917591832364
C            1.46242322722811       -3.72781325530763       -1.99938191889292
C            1.11790182635621       -4.59562331022392       -0.97610719578623
C            1.16466644571239       -4.16974169513960        0.34187931531185
C            1.55611430700076       -2.87591396864286        0.64044504377112
C            1.30262211734341        0.28579287764998        0.00373256880974
C           -0.03466471961515       -0.11435660715335       -0.02120962302944
C           -1.06466921232464        0.81839623688908        0.12772544774176
N           -2.42108620353271        0.37344250471515        0.10147881046668
C           -2.98756701509985        0.02457421925604        1.30036141415247
C           -2.19523159310274       -0.12320003645450        2.45276778971247
C           -2.74084308686368       -0.45031844605040        3.66646058992079
C           -4.13937053954975       -0.61486318663941        3.80343923445826
C           -4.94559397205041       -0.44882416505456        2.71126907238119
C           -4.40596623176841       -0.15577224136737        1.45173497462919
S           -5.51834594160155        0.16657440310286        0.16616709892750
C           -4.49118604748874        0.27421857508882       -1.22162266668973
C           -5.10951293403142        0.38590045000739       -2.47372366466645
C           -4.37215968134263        0.57020735268362       -3.61087615409137
C           -2.96475577345101        0.68293812145550       -3.51637512390464
C           -2.34261555063462        0.61912385514692       -2.29741961556290
C           -3.06365931341781        0.40502771839138       -1.10886780160184
C           -0.78859062000633        2.17519181493902        0.31153640610530
C            0.52422646104199        2.58136122093965        0.31786936429805
C            1.55907550751226        1.65617775001448        0.15983615746843
H            5.88356124633138        2.03945428691977        0.70195701282845
H            7.43236488441019        0.08594584342846        0.94098295332357
H            6.51882854673058       -2.19466281108421        0.61162096476639
H            4.16166602631787       -2.53113725767276        0.12245382275507
H            2.12754345994959       -1.74459323758965       -2.49657131924608
H            1.42660616584558       -4.05780927416125       -3.02644311413239
H            0.81327003867846       -5.60549703813298       -1.20550392698390
H            0.89637891035761       -4.84449667968226        1.14052336730554
H            1.59784825736598       -2.53207062364949        1.66314223992173
H           -0.29709274184139       -1.15139431141636       -0.15219695313852
H           -1.12921029447045        0.01538017357929        2.36847395110466
H           -2.10224443616274       -0.57534754082549        4.52623753235411
H           -4.56069320303728       -0.86181015167946        4.76453093083552
H           -6.01755922997788       -0.55122092704773        2.79045586894026
H           -6.18584903130553        0.30975144453329       -2.51465001309433
H           -4.85359595678249        0.63384722075433       -4.57336729478096
H           -2.37989165868262        0.82885782119271       -4.41042417559312
H           -1.27052480694149        0.72268868948734       -2.24081346482017
H           -1.59375079671270        2.88194394246692        0.43434089236901
H            0.80073855884887        3.61621858399189        0.44123133821565

          :  Hamiltonian                  GFN2-xTB          :
         :: gradient norm              0.000186778425 Eh/a0 ::
         :: HOMO-LUMO gap              0.136277574616 eV    ::
         :: SCC energy               -96.413614586997 Eh    ::
         :: -> dispersion             -0.085031346662 Eh    ::
         :: -> Gsolv                  -0.051017795129 Eh    ::
         :: repulsion energy           1.546590013024 Eh    ::

    * Orbital Energies and Occupations

         #    Occupation            Energy/Eh            Energy/eV
      -------------------------------------------------------------
         1        2.0000           -0.7681978             -20.9037
       ...           ...                  ...                  ...
        76        2.0000           -0.4293949             -11.6844
        77        2.0000           -0.4282782             -11.6540
        78        2.0000           -0.4233951             -11.5212
        79        2.0000           -0.4219935             -11.4830
        80        2.0000           -0.4210698             -11.4579
        81        2.0000           -0.4198864             -11.4257
        82        2.0000           -0.4188065             -11.3963
        83        2.0000           -0.4162315             -11.3262
        84        2.0000           -0.4034025             -10.9771
        85        2.0000           -0.3968838             -10.7998
        86        2.0000           -0.3760766             -10.2336
        87        1.0000           -0.3506950              -9.5429
        88        0.9326           -0.2612230              -7.1082 (HOMO)
        89        0.0663           -0.2562141              -6.9719 (LUMO)
        90        0.0010           -0.2521713              -6.8619
        91        0.0000           -0.2446786              -6.6580
        92                         -0.2430392              -6.6134
        93                         -0.2401521              -6.5349
        94                         -0.2345275              -6.3818
        95                         -0.2321085              -6.3160
        96                         -0.2162547              -5.8846
        97                         -0.2102861              -5.7222
        98                         -0.2036486              -5.5416
        99                         -0.1449323              -3.9438
       ...                                ...                  ...
       174                          1.1616864              31.6111
      -------------------------------------------------------------
                  HL-Gap            0.0050089 Eh            0.1363 eV

     #   Z          covCN         q      C6AA      α(0)
     1   8 O        0.860    -0.592    25.920     6.826
     2  16 S        3.855     0.932   108.638    17.543
     3   8 O        0.860    -0.603    26.179     6.860
     4   6 C        2.973    -0.095    30.383     9.042
     5   6 C        2.976    -0.024    28.591     8.771
     6   6 C        2.918    -0.036    28.902     8.816
     7   6 C        2.919    -0.024    28.614     8.772
     8   6 C        2.926    -0.053    29.324     8.880
     9   6 C        2.953     0.061    26.625     8.463
    10   7 N        2.750    -0.063    22.456     7.038
    11   6 C        2.934     0.062    26.619     8.461
    12   6 C        2.921    -0.036    28.897     8.815
    13   6 C        2.920    -0.024    28.607     8.771
    14   6 C        2.919    -0.027    28.667     8.780
    15   6 C        2.920    -0.025    28.630     8.774
    16   6 C        2.920    -0.037    28.931     8.820
    17   6 C        2.952     0.061    26.632     8.464
    18   6 C        2.925    -0.073    29.810     8.954
    19   6 C        2.940     0.044    27.019     8.525
    20   7 N        2.749     0.006    21.162     6.832
    21   6 C        2.947     0.040    27.100     8.538
    22   6 C        2.916    -0.047    29.178     8.858
    23   6 C        2.914    -0.040    28.993     8.830
    24   6 C        2.914    -0.038    28.936     8.821
    25   6 C        2.983    -0.038    28.936     8.824
    26   6 C        2.962     0.010    27.787     8.646
    27  16 S        2.155     0.004   140.899    19.978
    28   6 C        2.962     0.010    27.790     8.647
    29   6 C        2.983    -0.038    28.938     8.824
    30   6 C        2.914    -0.038    28.941     8.822
    31   6 C        2.914    -0.040    28.989     8.829
    32   6 C        2.916    -0.047    29.168     8.856
    33   6 C        2.948     0.040    27.104     8.539
    34   6 C        2.915    -0.046    29.138     8.852
    35   6 C        2.972    -0.030    28.756     8.796
    36   6 C        2.970    -0.115    30.912     9.120
    37   1 H        0.926     0.041     2.439     2.442
    38   1 H        0.926     0.054     2.265     2.353
    39   1 H        0.926     0.061     2.192     2.315
    40   1 H        0.926     0.059     2.214     2.327
    41   1 H        0.926     0.045     2.385     2.415
    42   1 H        0.926     0.051     2.302     2.373
    43   1 H        0.926     0.052     2.300     2.372
    44   1 H        0.926     0.053     2.285     2.364
    45   1 H        0.926     0.050     2.324     2.384
    46   1 H        0.926     0.057     2.234     2.337
    47   1 H        0.926     0.042     2.425     2.435
    48   1 H        0.926     0.041     2.439     2.442
    49   1 H        0.926     0.044     2.402     2.424
    50   1 H        0.926     0.048     2.344     2.394
    51   1 H        0.926     0.048     2.343     2.394
    52   1 H        0.926     0.043     2.406     2.426
    53   1 H        0.926     0.040     2.455     2.450
    54   1 H        0.926     0.040     2.446     2.446
    55   1 H        0.926     0.051     2.303     2.373
    56   1 H        0.926     0.041     2.430     2.438

molecular dipole:
                 x           y           z       tot (Debye)
 q only:       -2.580      -4.269       0.311
   full:       -2.221      -3.824       0.278      11.263

 projected vibrational frequencies (cm⁻¹)
eigval :       -0.00    -0.00    -0.00     0.00     0.00     0.00
eigval :        7.67    15.54    21.45    24.22    37.69    44.32
eigval :       52.56    66.81    75.05    89.80    94.29   108.28
eigval :      128.60   151.92   155.20   185.78   207.73   208.63
eigval :      231.81   238.64   247.50   255.99   271.72   294.63
eigval :      340.05   347.11   356.84   368.21   375.01   375.57
eigval :      378.01   384.80   398.43   404.26   415.72   424.67
eigval :      434.43   439.64   464.60   473.38   483.28   502.93
eigval :      512.78   522.86   543.61   553.52   586.49   589.90
eigval :      594.89   600.03   607.35   618.04   630.76   637.71
eigval :      653.61   666.33   670.10   688.27   709.52   718.45
eigval :      738.23   740.27   753.64   770.89   775.37   790.50
eigval :      823.23   837.90   839.96   860.84   874.74   876.80
eigval :      882.74   886.35   888.53   892.41   896.16   896.40
eigval :      904.48   906.30   910.46   919.18   929.84   939.56
eigval :      985.07   994.03  1025.27  1029.67  1033.60  1055.09
eigval :     1057.49  1070.49  1075.62  1076.85  1090.97  1111.25
eigval :     1140.76  1141.35  1151.48  1155.81  1166.33  1167.78
eigval :     1168.56  1174.07  1176.60  1177.72  1183.08  1199.77
eigval :     1205.84  1219.93  1224.30  1227.44  1257.38  1269.62
eigval :     1286.92  1303.41  1307.34  1311.96  1315.90  1324.25
eigval :     1328.30  1335.96  1349.87  1369.60  1396.13  1404.42
eigval :     1418.37  1428.75  1430.12  1433.76  1442.39  1444.23
eigval :     1452.88  1467.69  1468.99  1479.52  1504.70  1529.07
eigval :     1533.89  1560.82  1581.60  1587.72  3084.14  3085.48
eigval :     3085.68  3086.71  3089.46  3091.06  3091.59  3094.92
eigval :     3095.69  3096.00  3097.40  3102.71  3104.23  3106.17
eigval :     3107.58  3108.44  3111.17  3112.77  3115.96  3116.75

   temp. (K)  partition function   enthalpy   heat capacity  entropy
                                   cal/mol     cal/K/mol   cal/K/mol   J/K/mol
 298.15  VIB  0.224E+14            17035.225    107.428    105.654
         ROT  0.330E+08              888.752      2.981     37.385
         INT  0.740E+21            17923.977    110.409    143.039
         TR   0.110E+29             1481.254      4.968     44.523
         TOT                       19405.2310   115.3768   187.5617   784.7581

       T/K    H(0)-H(T)+PV         H(T)/Eh          T*S/Eh         G(T)/Eh
   ------------------------------------------------------------------------
    298.15    0.309242E-01    0.436478E+00    0.891166E-01    0.347361E+00
   ------------------------------------------------------------------------

         :::::::::::::::::::::::::::::::::::::::::::::::::::::
         ::                  THERMODYNAMIC                  ::
         :::::::::::::::::::::::::::::::::::::::::::::::::::::
         :: total free energy         -94.519663373976 Eh   ::
         ::.................................................::
         :: total energy              -94.867024573882 Eh   ::
         :: zero point energy           0.405553604692 Eh   ::
         :: G(RRHO) w/o ZPVE           -0.058192404786 Eh   ::
         :: G(RRHO) contrib.            0.347361199905 Eh   ::
         :::::::::::::::::::::::::::::::::::::::::::::::::::::

           -------------------------------------------------
          | TOTAL ENERGY              -94.867024573882 Eh   |
          | TOTAL ENTHALPY            -94.430546765136 Eh   |
          | TOTAL FREE ENERGY         -94.519663373976 Eh   |
          | GRADIENT NORM               0.000189214577 Eh/α |
          | HOMO-LUMO GAP               0.136298557196 eV   |
           -------------------------------------------------

 * finished run on 2025/08/21 at 21:28:16.609
