   * xtb version 6.7.1 (edcfbbe) compiled by 'albert@albert-system' on 2024-07-22

   ID    Z sym.   atoms
    1    8 O      1, 3
    2   16 S      2, 27
    3    6 C      4-9, 11-19, 21-26, 28-36
    4    7 N      10, 20
    5    1 H      37-56

          program call               : xtb data2507/toluene/PTZ-2PTO/PTZ-2PTO_toluene_S0_crest.xyz --gfn 2 --gbsa toluene --ohess vtight --parallel 40 --molden --ceasefiles --namespace data2507/toluene/PTZ-2PTO/PTZ-2PTO_toluene_S0_finalOpt
      * Solvation model:               GBSA
        Solvent                        toluene
        Solvent mass                       9.2140E+01 g/mol
          :  Hamiltonian                  GFN2-xTB          :
 * total energy  :   -94.9606090 Eh     change       -0.3150120E-09 Eh
 * total energy  :   -94.9607446 Eh     change       -0.1356257E-03 Eh
 * total energy  :   -94.9608381 Eh     change       -0.9343621E-04 Eh
 * total energy  :   -94.9608637 Eh     change       -0.2564947E-04 Eh
 * total energy  :   -94.9608879 Eh     change       -0.2416746E-04 Eh
 * total energy  :   -94.9609142 Eh     change       -0.2632607E-04 Eh
 * total energy  :   -94.9609345 Eh     change       -0.2031559E-04 Eh
 * total energy  :   -94.9609551 Eh     change       -0.2062005E-04 Eh
 * total energy  :   -94.9609831 Eh     change       -0.2792331E-04 Eh
 * total energy  :   -94.9610137 Eh     change       -0.3065946E-04 Eh
 * total energy  :   -94.9611921 Eh     change       -0.1138500E-05 Eh
 * total energy  :   -94.9611928 Eh     change       -0.7505954E-06 Eh
 * total energy  :   -94.9611935 Eh     change       -0.7187324E-06 Eh
 * total energy  :   -94.9611943 Eh     change       -0.7485284E-06 Eh
 * total energy  :   -94.9611949 Eh     change       -0.5623690E-06 Eh
 * total energy  :   -94.9611953 Eh     change       -0.4766994E-06 Eh
 * total energy  :   -94.9611958 Eh     change       -0.4659859E-06 Eh
 * total energy  :   -94.9611962 Eh     change       -0.3806187E-06 Eh
 * total energy  :   -94.9611962 Eh     change       -0.7039930E-08 Eh
   *** GEOMETRY OPTIMIZATION CONVERGED AFTER 44 ITERATIONS ***

 final structure:
================
56
 xtb: 6.7.1 (edcfbbe)
O            3.37219321413519        3.49406193759087        0.67493966143179
S            3.19127829871417        2.39324212655238       -0.25053635707755
O            3.50927744196726        2.69320453062031       -1.63677548253750
C            4.16637027469204        1.00060645927252        0.25430903809528
C            5.48482962724817        1.23380970969162        0.60122385424587
C            6.31996880224718        0.18263840172123        0.92343512821866
C            5.80820072849858       -1.10784979658184        0.88169224508881
C            4.49198351905465       -1.34136943158178        0.54553934331896
C            3.62231976759343       -0.28331579075046        0.22642572910530
N            2.29776714816316       -0.54535643375935       -0.07575143818257
C            1.92303200631718       -1.92548244322526       -0.20213034768874
C            2.06889863472138       -2.55642624884780       -1.42926231978117
C            1.72485842469873       -3.89190384075993       -1.55840330939191
C            1.23451974212988       -4.59210740786966       -0.46857460265999
C            1.08472843320743       -3.95805199639598        0.75452491861456
C            1.43023069291599       -2.62497240887102        0.89294203383014
C            1.29176265153729        0.40413893319606       -0.16726349000511
C           -0.04114030674079       -0.00856287383365       -0.24426515582168
C           -1.09964688492002        0.90003008299112       -0.29282236713789
N           -2.40011312760868        0.44980375694122       -0.35445372767947
C           -2.74005074084025       -0.92259250749149       -0.34962988511390
C           -2.29971012770138       -1.78402415173400       -1.34904376072184
C           -2.65002924447356       -3.12173880410322       -1.31878751772803
C           -3.45502294364304       -3.61102344381156       -0.30184992297495
C           -3.94081456013298       -2.75437564477868        0.66898786395746
C           -3.59165396193267       -1.41292151776477        0.63795296516123
S           -4.25370327895340       -0.28800703387368        1.84282761217847
C           -4.46181779328126        1.09141195541882        0.74407834927661
C           -5.56535409126856        1.92085944765710        0.87027934662506
C           -5.73730727559696        2.97105692043842       -0.01300154201253
C           -4.82785959880304        3.16853082667180       -1.04047367084389
C           -3.72975569810214        2.33696824923368       -1.17051268122114
C           -3.51579705560604        1.31187395132795       -0.25508324160428
C           -0.81360571244240        2.27284686559251       -0.20404867019213
C            0.49590326127339        2.68658066982927       -0.15758482290399
C            1.53971554810719        1.77716554890455       -0.16299044906935
H            5.82347357616509        2.25879320342139        0.60525094858196
H            7.34825305401341        0.36140876274637        1.19328572753681
H            6.44528254352791       -1.94591770831082        1.12038335444112
H            4.12469490930362       -2.35454817088325        0.53105524455173
H            2.45492453685154       -1.99842159829522       -2.26930640797617
H            1.84170192835969       -4.38365863995298       -2.51217774418813
H            0.96693330506399       -5.63265614052536       -0.57173189692323
H            0.70047604749817       -4.50144973659468        1.60423298212853
H            1.32270845940266       -2.12041181195446        1.84153438482468
H           -0.26005363207477       -1.06247647110472       -0.24155368871685
H           -1.68008534948977       -1.39471897894000       -2.14249231023687
H           -2.29534189721009       -3.78203679064064       -2.09476822588400
H           -3.72169050696252       -4.65609534722306       -0.27477952031335
H           -4.58946997594146       -3.11193420862160        1.45368087421419
H           -6.27545375867566        1.73774982070989        1.66199004743315
H           -6.59039081001788        3.62352764848506        0.09085599262545
H           -4.97456294917380        3.97084305959441       -1.74729318020413
H           -3.02572644499173        2.47904145477168       -1.97649412576528
H           -1.60543066008376        3.00097125932218       -0.16205197487240
H            0.74960719745453        3.73458857398042       -0.11233741356272

          :  Hamiltonian                  GFN2-xTB          :
         :: gradient norm              0.000052827396 Eh/a0 ::
         :: HOMO-LUMO gap              2.923598361171 eV    ::
         :: SCC energy               -96.525402630320 Eh    ::
         :: -> dispersion             -0.087070427350 Eh    ::
         :: -> Gsolv                  -0.050519601605 Eh    ::
         :: repulsion energy           1.564206443563 Eh    ::

    * Orbital Energies and Occupations

         #    Occupation            Energy/Eh            Energy/eV
      -------------------------------------------------------------
         1        2.0000           -0.7699681             -20.9519
       ...           ...                  ...                  ...
        75        2.0000           -0.4322975             -11.7634
        76        2.0000           -0.4288237             -11.6689
        77        2.0000           -0.4275439             -11.6341
        78        2.0000           -0.4248074             -11.5596
        79        2.0000           -0.4240066             -11.5378
        80        2.0000           -0.4216626             -11.4740
        81        2.0000           -0.4213809             -11.4664
        82        2.0000           -0.4196184             -11.4184
        83        2.0000           -0.4158705             -11.3164
        84        2.0000           -0.4040007             -10.9934
        85        2.0000           -0.3843266             -10.4581
        86        2.0000           -0.3750248             -10.2049
        87        2.0000           -0.3603873              -9.8066 (HOMO)
        88                         -0.2529470              -6.8830 (LUMO)
        89                         -0.2521923              -6.8625
        90                         -0.2465147              -6.7080
        91                         -0.2449689              -6.6659
        92                         -0.2432367              -6.6188
        93                         -0.2426789              -6.6036
        94                         -0.2402438              -6.5374
        95                         -0.2385570              -6.4915
        96                         -0.2289535              -6.2301
        97                         -0.2116990              -5.7606
        98                         -0.2060351              -5.6065
       ...                                ...                  ...
       174                          1.1643043              31.6823
      -------------------------------------------------------------
                  HL-Gap            0.1074403 Eh            2.9236 eV

     #   Z          covCN         q      C6AA      α(0)
     1   8 O        0.860    -0.590    25.878     6.820
     2  16 S        3.853     0.937   108.481    17.530
     3   8 O        0.860    -0.599    26.088     6.848
     4   6 C        2.974    -0.096    30.412     9.046
     5   6 C        2.976    -0.022    28.540     8.763
     6   6 C        2.918    -0.035    28.873     8.811
     7   6 C        2.919    -0.024    28.595     8.769
     8   6 C        2.927    -0.051    29.273     8.873
     9   6 C        2.954     0.063    26.594     8.458
    10   7 N        2.750    -0.065    22.490     7.043
    11   6 C        2.933     0.062    26.616     8.461
    12   6 C        2.921    -0.036    28.908     8.817
    13   6 C        2.920    -0.024    28.610     8.771
    14   6 C        2.919    -0.027    28.670     8.780
    15   6 C        2.920    -0.025    28.634     8.775
    16   6 C        2.920    -0.037    28.930     8.820
    17   6 C        2.951     0.063    26.591     8.458
    18   6 C        2.932    -0.086    30.144     9.004
    19   6 C        2.912     0.076    26.310     8.411
    20   7 N        2.753    -0.065    22.498     7.045
    21   6 C        2.975     0.054    26.792     8.491
    22   6 C        2.922    -0.045    29.110     8.848
    23   6 C        2.919    -0.032    28.789     8.799
    24   6 C        2.920    -0.031    28.769     8.796
    25   6 C        2.956    -0.036    28.901     8.818
    26   6 C        2.972     0.037    27.170     8.550
    27  16 S        2.111    -0.150   147.375    20.432
    28   6 C        2.972     0.036    27.184     8.552
    29   6 C        2.957    -0.037    28.908     8.819
    30   6 C        2.920    -0.031    28.779     8.797
    31   6 C        2.919    -0.031    28.786     8.798
    32   6 C        2.922    -0.044    29.100     8.846
    33   6 C        2.975     0.055    26.767     8.486
    34   6 C        2.921    -0.064    29.585     8.920
    35   6 C        2.972    -0.023    28.577     8.769
    36   6 C        2.972    -0.112    30.821     9.106
    37   1 H        0.926     0.043     2.412     2.429
    38   1 H        0.926     0.057     2.237     2.339
    39   1 H        0.926     0.063     2.168     2.303
    40   1 H        0.926     0.060     2.195     2.317
    41   1 H        0.926     0.046     2.373     2.409
    42   1 H        0.926     0.053     2.286     2.364
    43   1 H        0.926     0.053     2.284     2.363
    44   1 H        0.926     0.052     2.292     2.368
    45   1 H        0.926     0.048     2.346     2.395
    46   1 H        0.926     0.055     2.261     2.351
    47   1 H        0.926     0.050     2.319     2.381
    48   1 H        0.926     0.052     2.292     2.367
    49   1 H        0.926     0.053     2.278     2.360
    50   1 H        0.926     0.054     2.270     2.356
    51   1 H        0.926     0.052     2.290     2.367
    52   1 H        0.926     0.051     2.313     2.378
    53   1 H        0.926     0.050     2.325     2.384
    54   1 H        0.926     0.051     2.313     2.378
    55   1 H        0.926     0.053     2.286     2.364
    56   1 H        0.926     0.042     2.426     2.436

molecular dipole:
                 x           y           z       tot (Debye)
 q only:       -2.228      -4.271       0.075
   full:       -2.017      -3.815      -0.135      10.975

 projected vibrational frequencies (cm⁻¹)
eigval :       -0.00    -0.00    -0.00     0.00     0.00     0.00
eigval :        6.36    12.92    26.21    40.65    42.54    55.49
eigval :       58.57    64.17    72.51    95.37   120.41   135.19
eigval :      149.28   154.25   163.42   187.89   201.80   212.55
eigval :      232.20   246.23   251.85   271.30   293.64   313.01
eigval :      325.32   341.34   360.80   368.92   375.28   384.68
eigval :      392.90   403.30   418.70   422.58   432.96   440.10
eigval :      457.89   466.97   479.64   495.03   501.92   505.83
eigval :      519.60   524.97   549.85   577.94   589.61   590.40
eigval :      593.97   616.19   635.71   652.68   657.81   660.34
eigval :      669.43   670.94   685.30   690.42   694.91   719.45
eigval :      754.22   771.95   773.34   776.42   782.35   804.48
eigval :      841.25   866.74   877.74   879.85   882.17   886.98
eigval :      899.41   903.37   905.66   909.89   910.10   915.01
eigval :      915.67   921.65   928.05   929.45   931.02   934.73
eigval :      989.23  1003.83  1032.82  1040.69  1051.71  1074.65
eigval :     1079.79  1083.71  1084.88  1087.18  1092.76  1109.15
eigval :     1146.90  1152.50  1157.63  1169.21  1171.94  1173.22
eigval :     1174.40  1176.52  1176.99  1177.62  1186.94  1211.37
eigval :     1225.55  1233.85  1238.92  1249.38  1267.94  1277.67
eigval :     1280.98  1304.10  1307.96  1312.37  1316.29  1329.05
eigval :     1338.72  1357.08  1408.78  1417.04  1418.30  1428.32
eigval :     1430.63  1441.65  1456.32  1457.78  1464.67  1478.86
eigval :     1548.19  1558.43  1561.65  1567.11  1570.35  1572.19
eigval :     1582.82  1583.94  1588.51  1597.22  3084.60  3085.95
eigval :     3086.80  3089.48  3089.94  3091.00  3091.04  3091.44
eigval :     3092.62  3095.12  3096.65  3096.91  3098.95  3103.29
eigval :     3104.60  3106.74  3108.03  3117.08  3124.44  3134.43

   temp. (K)  partition function   enthalpy   heat capacity  entropy
                                   cal/mol     cal/K/mol   cal/K/mol   J/K/mol
 298.15  VIB  0.483E+13            16569.213    106.085    102.584
         ROT  0.321E+08              888.752      2.981     37.330
         INT  0.155E+21            17457.966    109.066    139.914
         TR   0.110E+29             1481.254      4.968     44.523
         TOT                       18939.2198   114.0342   184.4369   771.6838

       T/K    H(0)-H(T)+PV         H(T)/Eh          T*S/Eh         G(T)/Eh
   ------------------------------------------------------------------------
    298.15    0.301816E-01    0.440594E+00    0.876319E-01    0.352962E+00
   ------------------------------------------------------------------------

         :::::::::::::::::::::::::::::::::::::::::::::::::::::
         ::                  THERMODYNAMIC                  ::
         :::::::::::::::::::::::::::::::::::::::::::::::::::::
         :: total free energy         -94.608233794166 Eh   ::
         ::.................................................::
         :: total energy              -94.961196186361 Eh   ::
         :: zero point energy           0.410412723317 Eh   ::
         :: G(RRHO) w/o ZPVE           -0.057450331122 Eh   ::
         :: G(RRHO) contrib.            0.352962392196 Eh   ::
         :::::::::::::::::::::::::::::::::::::::::::::::::::::

           -------------------------------------------------
          | TOTAL ENERGY              -94.961196186361 Eh   |
          | TOTAL ENTHALPY            -94.520601895210 Eh   |
          | TOTAL FREE ENERGY         -94.608233794166 Eh   |
          | GRADIENT NORM               0.000052837966 Eh/α |
          | HOMO-LUMO GAP               2.923599105333 eV   |
           -------------------------------------------------

 * finished run on 2025/08/21 at 21:25:10.799
