   * xtb version 6.7.1 (edcfbbe) compiled by 'albert@albert-system' on 2024-07-22

   ID    Z sym.   atoms
    1    6 C      1-6, 8-10, 12-20
    2    7 N      7, 11
    3    1 H      21-32

          program call               : xtb data2507/gas/BBCz/BBCz_gas_T1_crest.xyz --gfn 2 --spinpol --tblite --uhf 2 --ohess vtight --parallel 40 --molden --ceasefiles --namespace data2507/gas/BBCz/BBCz_gas_T1_finalOpt
 * total energy  :   -50.4596774 Eh     change        0.7286772E-08 Eh
 * total energy  :   -50.4597597 Eh     change       -0.8227773E-04 Eh
 * total energy  :   -50.4597853 Eh     change       -0.2565017E-04 Eh
 * total energy  :   -50.4597897 Eh     change       -0.4340494E-05 Eh
 * total energy  :   -50.4597995 Eh     change       -0.9831899E-05 Eh
 * total energy  :   -50.4598033 Eh     change       -0.3798269E-05 Eh
 * total energy  :   -50.4598058 Eh     change       -0.2495896E-05 Eh
 * total energy  :   -50.4598061 Eh     change       -0.3511050E-06 Eh
 * total energy  :   -50.4598061 Eh     change        0.7808047E-07 Eh
 * total energy  :   -50.4598061 Eh     change       -0.8056188E-07 Eh
   *** GEOMETRY OPTIMIZATION CONVERGED AFTER 10 ITERATIONS ***

 final structure:
================
32
 xtb: 6.7.1 (edcfbbe)
C           -5.36396126663564        0.58444135910333        0.00102814387116
C           -4.62195947742019        1.78412150984731        0.00045265026783
C           -3.25203749957797        1.78865866382096       -0.00012707989027
C           -2.57206579762018        0.55850917082583       -0.00013075617248
C           -3.34683749396807       -0.65545076719676        0.00036809120317
C           -4.73092598415227       -0.64367761212808        0.00095898343711
N           -2.47273512269109       -1.69955529969800        0.00026512410397
C           -1.18443383681606       -1.22654350950604       -0.00015337256606
C            0.00137731646462       -1.98277246050354       -0.00013825408393
C            1.18611733087200       -1.22447933987955       -0.00020039892482
N            2.47511757352026       -1.69542306836426        0.00013192755454
C            3.34756485206395       -0.64988455959852        0.00024173404713
C            4.73165686744348       -0.63592910039464        0.00072981512385
C            5.36272947555531        0.59317607173997        0.00085364915148
C            4.61882872983623        1.79161973606531        0.00046279614323
C            3.24885212233377        1.79392744198908       -0.00004966506515
C            2.57091996920241        0.56276118086401       -0.00014735460335
C            1.21160534997563        0.18169975686027       -0.00043481942649
C           -0.00087758562379        0.93566962946848       -0.00072022292916
C           -1.21227906461143        0.17967602626133       -0.00042953811007
H           -6.44186536024179        0.63287300117062        0.00153916548430
H           -5.16142355309777        2.72032328913103        0.00050240957123
H           -2.69560759506617        2.71327025718471       -0.00054861096401
H           -5.29583992497470       -1.56487492608711        0.00138820362892
H           -2.72961929033095       -2.67323424248963        0.00058483714695
H            0.00229359709331       -3.06086784141218        0.00007477545899
H            2.73353522919889       -2.66869379541634        0.00045789107932
H            5.29803075989433       -1.55623141384877        0.00106638330974
H            6.44055345077368        0.64331767154982        0.00128701234323
H            5.15675268200486        2.72871066109032        0.00056430106588
H            2.69095483202009        2.71765743630522       -0.00036487462171
H           -0.00178237472475        2.00995240474582       -0.00097785693453

 projected vibrational frequencies (cm⁻¹)
eigval :       -0.00     0.00     0.00     0.00     0.00     0.00
eigval :       46.45    75.37   117.80   122.07   167.15   195.53
eigval :      196.51   265.51   294.49   323.16   324.45   359.75
eigval :      406.35   418.45   436.66   449.82   492.07   497.75
eigval :      517.68   518.56   527.32   546.75   553.37   563.54
eigval :      569.95   584.43   616.03   637.24   672.11   677.80
eigval :      682.87   708.09   708.19   744.10   744.73   788.07
eigval :      829.77   842.04   842.30   846.33   874.26   874.37
eigval :      903.34   903.52   934.00   961.52   974.43  1041.37
eigval :     1048.09  1124.99  1126.29  1135.47  1153.05  1153.36
eigval :     1159.75  1185.75  1190.29  1205.58  1231.10  1235.58
eigval :     1263.04  1306.85  1312.67  1350.10  1365.08  1366.08
eigval :     1381.34  1392.64  1397.00  1437.88  1446.49  1469.29
eigval :     1498.56  1506.65  1522.11  1525.83  1563.10  1598.52
eigval :     3068.34  3068.69  3074.19  3074.39  3090.02  3091.02
eigval :     3091.30  3097.07  3098.46  3135.93  3461.86  3463.39

   temp. (K)  partition function   enthalpy   heat capacity  entropy
                                   cal/mol     cal/K/mol   cal/K/mol   J/K/mol
 298.15  VIB  0.989E+04             7587.564     57.142     42.793
         ROT  0.245E+07              888.752      2.981     32.214
         INT  0.242E+11             8476.316     60.123     75.007
         TR   0.397E+28             1481.254      4.968     42.504
         TOT                        9957.5703    65.0909   117.5110   491.6659

       T/K    H(0)-H(T)+PV         H(T)/Eh          T*S/Eh         G(T)/Eh
   ------------------------------------------------------------------------
    298.15    0.158684E-01    0.254722E+00    0.558333E-01    0.198889E+00
   ------------------------------------------------------------------------

         :::::::::::::::::::::::::::::::::::::::::::::::::::::
         ::                  THERMODYNAMIC                  ::
         :::::::::::::::::::::::::::::::::::::::::::::::::::::
         :: total free energy         -50.260917434773 Eh   ::
         ::.................................................::
         :: total energy              -50.459806127767 Eh   ::
         :: zero point energy           0.238853547906 Eh   ::
         :: G(RRHO) w/o ZPVE           -0.039964854912 Eh   ::
         :: G(RRHO) contrib.            0.198888692994 Eh   ::
         :::::::::::::::::::::::::::::::::::::::::::::::::::::

           -------------------------------------------------
          | TOTAL ENERGY              -50.459806127767 Eh   |
          | TOTAL ENTHALPY            -50.205084181541 Eh   |
          | TOTAL FREE ENERGY         -50.260917434773 Eh   |
          | GRADIENT NORM               0.000068999472 Eh/α |
           -------------------------------------------------

 * finished run on 2025/08/30 at 17:38:26.705
