   * xtb version 6.7.1 (edcfbbe) compiled by 'albert@albert-system' on 2024-07-22

   ID    Z sym.   atoms
    1    6 C      1-6, 8-10, 12-20
    2    7 N      7, 11
    3    1 H      21-32

          program call               : xtb data2507/gas/BBCz/BBCz_gas_S0_finalOpt.xtbopt.xyz --gfn 2 --spinpol --tblite --uhf 2 --ohess vtight --parallel 40 --molden --ceasefiles --namespace data2507/gas/BBCz/BBCz_gas_T1_preOpt
 * total energy  :   -50.4529596 Eh     change        0.9025797E-08 Eh
 * total energy  :   -50.4586233 Eh     change       -0.5663700E-02 Eh
 * total energy  :   -50.4597115 Eh     change       -0.1088226E-02 Eh
 * total energy  :   -50.4597644 Eh     change       -0.5293492E-04 Eh
 * total energy  :   -50.4597926 Eh     change       -0.2816349E-04 Eh
 * total energy  :   -50.4598009 Eh     change       -0.8286355E-05 Eh
 * total energy  :   -50.4598047 Eh     change       -0.3799256E-05 Eh
 * total energy  :   -50.4598057 Eh     change       -0.1024925E-05 Eh
 * total energy  :   -50.4598060 Eh     change       -0.2571001E-06 Eh
 * total energy  :   -50.4598061 Eh     change       -0.1188029E-06 Eh
 * total energy  :   -50.4598061 Eh     change       -0.1127039E-07 Eh
   *** GEOMETRY OPTIMIZATION CONVERGED AFTER 11 ITERATIONS ***

 final structure:
================
32
 xtb: 6.7.1 (edcfbbe)
C           -5.36346545143917        0.59172438777244       -0.00318974581103
C           -4.62056904615898        1.79080509187754       -0.00177427609885
C           -3.25060762971451        1.79431344645720       -0.00061017602307
C           -2.57149972125248        0.56369722266632       -0.00087079087184
C           -3.34720863053147       -0.64962733402653       -0.00221436737746
C           -4.73126683308291       -0.63685709019606       -0.00337531846438
N           -2.47389159280008       -1.69444467712532       -0.00231882163226
C           -1.18528904315364       -1.22247398992713       -0.00130422764554
C           -0.00004057248901       -1.97968519284794       -0.00157621936485
C            1.18525192671185       -1.22253611296130       -0.00115476265194
N            2.47386621529441       -1.69456988078634       -0.00200165101232
C            3.34719645413547       -0.64980180556620       -0.00182005475486
C            4.73127810843546       -0.63708272101379       -0.00280893848853
C            5.36349478814108        0.59145363965531       -0.00260260631987
C            4.62065835614687        1.79057242875852       -0.00134455705706
C            3.25069707267265        1.79413574794736       -0.00033641222849
C            2.57155569217901        0.56356525169998       -0.00060722402747
C            1.21198559282786        0.18368290286423       -0.00020298165372
C            0.00004347785864        0.93871981593490        0.00058828997920
C           -1.21194988797464        0.18375106728172       -0.00032847230977
H           -6.44132631666644        0.64091755948453       -0.00416713462020
H           -5.15929826887622        2.72743270328829       -0.00166061294158
H           -2.69356670100807        2.71855463027301        0.00043499014788
H           -5.29688049167385       -1.55762988900282       -0.00446540388336
H           -2.73154929946150       -2.66792439467401       -0.00316336418423
H           -0.00006903316201       -3.05779417881552       -0.00242050730999
H            2.73146401842897       -2.66806679447663       -0.00279007719512
H            5.29685549944992       -1.55788238167176       -0.00379205714861
H            6.44136483871675        0.64061305860564       -0.00344773992604
H            5.15943355205856        2.72717795801477       -0.00122059431346
H            2.69369446120154        2.71840522187949        0.00059592142667
H            0.00007142635528        2.01299638042346        0.00158396742588

 projected vibrational frequencies (cm⁻¹)
eigval :       -0.00    -0.00    -0.00    -0.00     0.00     0.00
eigval :       46.49    75.40   117.86   122.08   167.16   195.54
eigval :      196.48   265.54   294.30   323.18   324.46   359.77
eigval :      406.36   418.46   436.46   449.81   492.15   497.82
eigval :      517.64   518.68   527.52   546.73   553.39   563.55
eigval :      570.01   584.40   616.07   637.27   672.18   677.80
eigval :      682.94   708.15   708.33   744.11   744.75   787.85
eigval :      830.03   842.07   842.29   846.18   874.32   874.39
eigval :      903.37   903.55   933.72   961.22   974.55  1041.55
eigval :     1047.98  1125.54  1126.22  1135.35  1153.18  1155.74
eigval :     1159.84  1186.04  1190.33  1205.72  1231.09  1235.19
eigval :     1263.13  1307.06  1312.68  1349.99  1365.12  1366.33
eigval :     1381.42  1392.58  1397.29  1437.98  1446.55  1469.02
eigval :     1498.55  1506.70  1522.15  1525.92  1562.66  1598.68
eigval :     3068.56  3068.86  3074.23  3074.44  3089.95  3091.03
eigval :     3091.38  3097.25  3098.21  3135.98  3462.44  3463.67

   temp. (K)  partition function   enthalpy   heat capacity  entropy
                                   cal/mol     cal/K/mol   cal/K/mol   J/K/mol
 298.15  VIB  0.987E+04             7587.143     57.139     42.790
         ROT  0.245E+07              888.752      2.981     32.214
         INT  0.242E+11             8475.895     60.120     75.004
         TR   0.397E+28             1481.254      4.968     42.504
         TOT                        9957.1493    65.0884   117.5083   491.6549

       T/K    H(0)-H(T)+PV         H(T)/Eh          T*S/Eh         G(T)/Eh
   ------------------------------------------------------------------------
    298.15    0.158677E-01    0.254733E+00    0.558320E-01    0.198901E+00
   ------------------------------------------------------------------------

         :::::::::::::::::::::::::::::::::::::::::::::::::::::
         ::                  THERMODYNAMIC                  ::
         :::::::::::::::::::::::::::::::::::::::::::::::::::::
         :: total free energy         -50.260904621014 Eh   ::
         ::.................................................::
         :: total energy              -50.459806114436 Eh   ::
         :: zero point energy           0.238865765459 Eh   ::
         :: G(RRHO) w/o ZPVE           -0.039964272036 Eh   ::
         :: G(RRHO) contrib.            0.198901493422 Eh   ::
         :::::::::::::::::::::::::::::::::::::::::::::::::::::

           -------------------------------------------------
          | TOTAL ENERGY              -50.459806114436 Eh   |
          | TOTAL ENTHALPY            -50.205072621504 Eh   |
          | TOTAL FREE ENERGY         -50.260904621014 Eh   |
          | GRADIENT NORM               0.000105943670 Eh/α |
           -------------------------------------------------

 * finished run on 2025/08/30 at 17:37:40.444
