   * xtb version 6.7.1 (edcfbbe) compiled by 'albert@albert-system' on 2024-07-22

   ID    Z sym.   atoms
    1    6 C      1-6, 8-10, 12-20
    2    7 N      7, 11
    3    1 H      21-32

          program call               : xtb data2507/gas/BBCz/BBCz_gas_S0_crest.xyz --gfn 2 --ohess vtight --parallel 40 --molden --ceasefiles --namespace data2507/gas/BBCz/BBCz_gas_S0_finalOpt
          :  Hamiltonian                  GFN2-xTB          :
 * total energy  :   -50.5635666 Eh     change       -0.3246662E-08 Eh
 * total energy  :   -50.5635671 Eh     change       -0.5500233E-06 Eh
 * total energy  :   -50.5635676 Eh     change       -0.5000350E-06 Eh
 * total energy  :   -50.5635682 Eh     change       -0.5463932E-06 Eh
 * total energy  :   -50.5635686 Eh     change       -0.4245821E-06 Eh
 * total energy  :   -50.5635688 Eh     change       -0.2228709E-06 Eh
 * total energy  :   -50.5635689 Eh     change       -0.1069308E-06 Eh
 * total energy  :   -50.5635690 Eh     change       -0.7324014E-07 Eh
   *** GEOMETRY OPTIMIZATION CONVERGED AFTER 8 ITERATIONS ***

 final structure:
================
32
 xtb: 6.7.1 (edcfbbe)
C           -5.33449326154646        0.62267841307112       -0.00601074518924
C           -4.59811283761436        1.80423903544954       -0.00204823778185
C           -3.21638009215206        1.78503592609529        0.00140870290081
C           -2.56780079937207        0.55789665698687        0.00088526153972
C           -3.32696843494184       -0.63508083244114       -0.00256271897201
C           -4.71176336929037       -0.61222209611403       -0.00620388914560
N           -2.46814075792966       -1.70724493191918       -0.00223935601077
C           -1.17220099469431       -1.25715084128849        0.00034688763772
C           -0.00002685892868       -1.99464956895432        0.00013881353435
C            1.17217853977996       -1.25720160575783        0.00103575793742
N            2.46810200739255       -1.70734367905465       -0.00071850205072
C            3.32697006433890       -0.63521314228293       -0.00124819656179
C            4.71176559505504       -0.61240242861838       -0.00445111885538
C            5.33453758270498        0.62247782627461       -0.00536008287778
C            4.59819904252411        1.80406785733955       -0.00289044260118
C            3.21646497849211        1.78491242358459        0.00043682803971
C            2.56784512657838        0.55779593414547        0.00110998788750
C            1.18378535993436        0.16579387372804        0.00261806746654
C            0.00002979115026        0.88555489743890        0.00383144298385
C           -1.18375678310665        0.16584395604836        0.00244766777630
H           -6.41352023651690        0.67174109154439       -0.00909084668052
H           -5.12020916346887        2.74970734012768       -0.00185949587157
H           -2.65000691312055        2.70415262283231        0.00432896301079
H           -5.28543243438495       -1.52765481273607       -0.00933008894866
H           -2.74600254679739       -2.67322208693861       -0.00458186172454
H           -0.00005467856415       -3.07447110731338       -0.00135158089686
H            2.74592496081080       -2.67333343021568       -0.00192896886509
H            5.28541358632561       -1.52785134744494       -0.00648458483141
H            6.41356724239681        0.67149980753927       -0.00821732217253
H            5.12032975452748        2.74951650202948       -0.00379049941685
H            2.65011770011311        2.70404821000166        0.00222080425482
H            0.00005587460480        1.96422170574252        0.00519879848478

          :  Hamiltonian                  GFN2-xTB          :
         :: gradient norm              0.000028562486 Eh/a0 ::
         :: HOMO-LUMO gap              3.035223762760 eV    ::
         :: SCC energy               -51.509137139890 Eh    ::
         :: -> dispersion             -0.038304803208 Eh    ::
         :: repulsion energy           0.945568153912 Eh    ::

    * Orbital Energies and Occupations

         #    Occupation            Energy/Eh            Energy/eV
      -------------------------------------------------------------
         1        2.0000           -0.6704268             -18.2432
       ...           ...                  ...                  ...
        35        2.0000           -0.4480301             -12.1915
        36        2.0000           -0.4445238             -12.0961
        37        2.0000           -0.4364977             -11.8777
        38        2.0000           -0.4249322             -11.5630
        39        2.0000           -0.4183679             -11.3844
        40        2.0000           -0.4138349             -11.2610
        41        2.0000           -0.4135038             -11.2520
        42        2.0000           -0.4102235             -11.1627
        43        2.0000           -0.4094185             -11.1408
        44        2.0000           -0.3890677             -10.5871
        45        2.0000           -0.3806042             -10.3568
        46        2.0000           -0.3573321              -9.7235
        47        2.0000           -0.3519781              -9.5778 (HOMO)
        48                         -0.2404357              -6.5426 (LUMO)
        49                         -0.2304943              -6.2721
        50                         -0.2070843              -5.6350
        51                         -0.1945179              -5.2931
        52                         -0.1767167              -4.8087
        53                         -0.1615017              -4.3947
        54                         -0.0853927              -2.3237
        55                         -0.0676353              -1.8405
        56                         -0.0432482              -1.1768
        57                          0.0090670               0.2467
        58                          0.0362072               0.9852
       ...                                ...                  ...
        92                          0.7664338              20.8557
      -------------------------------------------------------------
                  HL-Gap            0.1115424 Eh            3.0352 eV

     #   Z          covCN         q      C6AA      α(0)
     1   6 C        2.924    -0.034    28.858     8.810
     2   6 C        2.920    -0.042    29.056     8.839
     3   6 C        2.913    -0.034    28.850     8.808
     4   6 C        3.069    -0.015    28.319     8.726
     5   6 C        3.066     0.054    26.731     8.478
     6   6 C        2.910    -0.056    29.395     8.890
     7   7 N        2.754    -0.125    23.704     7.231
     8   6 C        3.071     0.054    26.718     8.475
     9   6 C        2.903    -0.086    30.141     9.002
    10   6 C        3.071     0.054    26.718     8.475
    11   7 N        2.754    -0.125    23.704     7.231
    12   6 C        3.066     0.054    26.731     8.478
    13   6 C        2.910    -0.056    29.395     8.890
    14   6 C        2.924    -0.034    28.858     8.810
    15   6 C        2.920    -0.042    29.056     8.839
    16   6 C        2.913    -0.034    28.850     8.808
    17   6 C        3.069    -0.015    28.319     8.726
    18   6 C        3.070    -0.025    28.546     8.761
    19   6 C        2.907    -0.036    28.893     8.814
    20   6 C        3.070    -0.025    28.546     8.761
    21   1 H        0.926     0.027     2.629     2.536
    22   1 H        0.926     0.026     2.643     2.542
    23   1 H        0.926     0.030     2.591     2.517
    24   1 H        0.926     0.021     2.710     2.575
    25   1 H        0.860     0.153     1.378     1.839
    26   1 H        0.926     0.019     2.750     2.593
    27   1 H        0.860     0.153     1.378     1.839
    28   1 H        0.926     0.021     2.710     2.575
    29   1 H        0.926     0.027     2.629     2.536
    30   1 H        0.926     0.026     2.643     2.542
    31   1 H        0.926     0.030     2.591     2.517
    32   1 H        0.926     0.035     2.513     2.479

molecular dipole:
                 x           y           z       tot (Debye)
 q only:       -0.000      -0.849      -0.001
   full:       -0.000      -1.335      -0.002       3.393

 projected vibrational frequencies (cm⁻¹)
eigval :       -0.00     0.00     0.00     0.00     0.00     0.00
eigval :       51.19    78.27   120.69   123.61   179.64   223.75
eigval :      230.37   268.07   306.01   336.91   357.19   396.49
eigval :      422.10   427.98   433.26   451.33   453.39   486.67
eigval :      529.24   536.62   544.87   560.68   562.24   609.76
eigval :      645.23   671.64   677.67   705.91   706.76   714.08
eigval :      771.46   772.86   799.46   806.79   811.53   858.39
eigval :      858.89   860.09   864.63   865.00   898.49   898.56
eigval :      919.22   919.31   982.91   996.75  1068.47  1069.22
eigval :     1126.09  1136.13  1137.74  1167.77  1177.60  1182.23
eigval :     1203.64  1206.13  1207.86  1229.05  1257.25  1273.13
eigval :     1305.42  1317.41  1351.29  1351.50  1369.39  1381.59
eigval :     1428.65  1433.11  1445.39  1484.97  1491.89  1530.96
eigval :     1572.99  1586.19  1590.62  1612.04  1614.62  1626.04
eigval :     3071.07  3071.10  3077.01  3077.02  3077.25  3085.19
eigval :     3085.28  3093.59  3093.71  3098.35  3490.58  3490.99

   temp. (K)  partition function   enthalpy   heat capacity  entropy
                                   cal/mol     cal/K/mol   cal/K/mol   J/K/mol
 298.15  VIB  0.506E+04             7125.793     54.300     40.113
         ROT  0.243E+07              888.752      2.981     32.201
         INT  0.123E+11             8014.545     57.281     72.314
         TR   0.397E+28             1481.254      4.968     42.504
         TOT                        9495.7993    62.2491   114.8180   480.3984

       T/K    H(0)-H(T)+PV         H(T)/Eh          T*S/Eh         G(T)/Eh
   ------------------------------------------------------------------------
    298.15    0.151325E-01    0.259907E+00    0.545537E-01    0.205353E+00
   ------------------------------------------------------------------------

         :::::::::::::::::::::::::::::::::::::::::::::::::::::
         ::                  THERMODYNAMIC                  ::
         :::::::::::::::::::::::::::::::::::::::::::::::::::::
         :: total free energy         -50.358215893946 Eh   ::
         ::.................................................::
         :: total energy              -50.563568985978 Eh   ::
         :: zero point energy           0.244774293138 Eh   ::
         :: G(RRHO) w/o ZPVE           -0.039421201107 Eh   ::
         :: G(RRHO) contrib.            0.205353092032 Eh   ::
         :::::::::::::::::::::::::::::::::::::::::::::::::::::

           -------------------------------------------------
          | TOTAL ENERGY              -50.563568985978 Eh   |
          | TOTAL ENTHALPY            -50.303662173434 Eh   |
          | TOTAL FREE ENERGY         -50.358215893946 Eh   |
          | GRADIENT NORM               0.000028559872 Eh/α |
          | HOMO-LUMO GAP               3.035223805045 eV   |
           -------------------------------------------------

 * finished run on 2025/08/30 at 17:37:39.508
