   * xtb version 6.7.1 (edcfbbe) compiled by 'albert@albert-system' on 2024-07-22

   ID    Z sym.   atoms
    1    6 C      1-6, 8-10, 12-20
    2    7 N      7, 11
    3    1 H      21-32

          program call               : xtb data2507/gas/BBCz/BBCz.xyz --gfn 2 --ohess vtight --parallel 40 --molden --ceasefiles --namespace data2507/gas/BBCz/BBCz_gas_S0_preOpt
          :  Hamiltonian                  GFN2-xTB          :
 * total energy  :   -50.5546332 Eh     change       -0.2697362E-09 Eh
 * total energy  :   -50.5623717 Eh     change       -0.7738497E-02 Eh
 * total energy  :   -50.5635082 Eh     change       -0.1136480E-02 Eh
 * total energy  :   -50.5635579 Eh     change       -0.4972757E-04 Eh
 * total energy  :   -50.5635675 Eh     change       -0.9581058E-05 Eh
 * total energy  :   -50.5635689 Eh     change       -0.1401458E-05 Eh
 * total energy  :   -50.5635693 Eh     change       -0.3963824E-06 Eh
 * total energy  :   -50.5635694 Eh     change       -0.9091048E-07 Eh
   *** GEOMETRY OPTIMIZATION CONVERGED AFTER 8 ITERATIONS ***

 final structure:
================
32
 xtb: 6.7.1 (edcfbbe)
C           -5.33467049006379        0.52623339475985        0.00000272246517
C           -4.59840706914251        1.70788619545283        0.00000135863021
C           -3.21667762569956        1.68888372228251       -0.00000068417238
C           -2.56790876924545        0.46182568592582       -0.00000129292347
C           -3.32697460170268       -0.73122354462255       -0.00000020584822
C           -4.71179402056179       -0.70856711180039        0.00000183315621
N           -2.46806574946951       -1.80331754860931       -0.00000085816391
C           -1.17215715346304       -1.35309284832098       -0.00000194735049
C           -0.00000031784090       -2.09060502840517       -0.00000187607077
C            1.17215676543680       -1.35309323276005       -0.00000178567444
N            2.46806520946675       -1.80331836756911       -0.00000087148102
C            3.32697441888429       -0.73122464925580       -0.00000008125926
C            4.71179384683231       -0.70856867838817        0.00000180731961
C            5.33467072431431        0.52623161933571        0.00000261375888
C            4.59840769514747        1.70788466976223        0.00000128593907
C            3.21667824904642        1.68888265717323       -0.00000069203519
C            2.56790898538624        0.46182483288868       -0.00000123089797
C            1.18379333488806        0.06988845924333       -0.00000224165054
C            0.00000016103577        0.78961394614156       -0.00000267170705
C           -1.18379324737496        0.06988885165945       -0.00000232600037
H           -6.41371456321106        0.57516831635769        0.00000430299215
H           -5.12066482158118        2.65327242847694        0.00000196015322
H           -2.65044269803901        2.60808547980886       -0.00000150379340
H           -5.28523098763724       -1.62414314887583        0.00000278610145
H           -2.74580050132488       -2.76933496938625       -0.00000104736435
H           -0.00000047954570       -3.17041105932434       -0.00000157065945
H            2.74579964018888       -2.76933588044807        0.00000028410321
H            5.28523051072972       -1.62414490564974        0.00000279195432
H            6.41371481270960        0.57516619562099        0.00000403261300
H            5.12066577746823        2.65327071981653        0.00000168733998
H            2.65044361865230        2.60808459788397       -0.00000162217694
H            0.00000034571610        1.86828720082559       -0.00000295729726

          :  Hamiltonian                  GFN2-xTB          :
         :: gradient norm              0.000085157744 Eh/a0 ::
         :: HOMO-LUMO gap              3.035129631893 eV    ::
         :: SCC energy               -51.509122061813 Eh    ::
         :: -> dispersion             -0.038304477210 Eh    ::
         :: repulsion energy           0.945552667694 Eh    ::

    * Orbital Energies and Occupations

         #    Occupation            Energy/Eh            Energy/eV
      -------------------------------------------------------------
         1        2.0000           -0.6704254             -18.2432
       ...           ...                  ...                  ...
        35        2.0000           -0.4480304             -12.1915
        36        2.0000           -0.4445213             -12.0960
        37        2.0000           -0.4364993             -11.8778
        38        2.0000           -0.4249326             -11.5630
        39        2.0000           -0.4183694             -11.3844
        40        2.0000           -0.4138346             -11.2610
        41        2.0000           -0.4135060             -11.2521
        42        2.0000           -0.4102237             -11.1628
        43        2.0000           -0.4094222             -11.1409
        44        2.0000           -0.3890702             -10.5871
        45        2.0000           -0.3806013             -10.3567
        46        2.0000           -0.3573366              -9.7236
        47        2.0000           -0.3519767              -9.5778 (HOMO)
        48                         -0.2404377              -6.5426 (LUMO)
        49                         -0.2304919              -6.2720
        50                         -0.2070845              -5.6351
        51                         -0.1945189              -5.2931
        52                         -0.1767194              -4.8088
        53                         -0.1615051              -4.3948
        54                         -0.0853933              -2.3237
        55                         -0.0676397              -1.8406
        56                         -0.0432543              -1.1770
        57                          0.0090773               0.2470
        58                          0.0362062               0.9852
       ...                                ...                  ...
        92                          0.7663921              20.8546
      -------------------------------------------------------------
                  HL-Gap            0.1115390 Eh            3.0351 eV

     #   Z          covCN         q      C6AA      α(0)
     1   6 C        2.924    -0.034    28.858     8.810
     2   6 C        2.920    -0.042    29.056     8.839
     3   6 C        2.913    -0.034    28.850     8.808
     4   6 C        3.069    -0.015    28.319     8.726
     5   6 C        3.066     0.054    26.731     8.478
     6   6 C        2.910    -0.056    29.395     8.890
     7   7 N        2.754    -0.125    23.704     7.231
     8   6 C        3.071     0.054    26.718     8.475
     9   6 C        2.903    -0.086    30.141     9.002
    10   6 C        3.071     0.054    26.718     8.475
    11   7 N        2.754    -0.125    23.704     7.231
    12   6 C        3.066     0.054    26.731     8.478
    13   6 C        2.910    -0.056    29.395     8.890
    14   6 C        2.924    -0.034    28.858     8.810
    15   6 C        2.920    -0.042    29.056     8.839
    16   6 C        2.913    -0.034    28.850     8.808
    17   6 C        3.069    -0.015    28.319     8.726
    18   6 C        3.069    -0.025    28.546     8.761
    19   6 C        2.907    -0.036    28.893     8.814
    20   6 C        3.069    -0.025    28.546     8.761
    21   1 H        0.926     0.027     2.629     2.536
    22   1 H        0.926     0.026     2.643     2.542
    23   1 H        0.926     0.030     2.591     2.517
    24   1 H        0.926     0.022     2.710     2.575
    25   1 H        0.860     0.153     1.378     1.839
    26   1 H        0.926     0.019     2.750     2.593
    27   1 H        0.860     0.153     1.378     1.839
    28   1 H        0.926     0.022     2.710     2.575
    29   1 H        0.926     0.027     2.629     2.536
    30   1 H        0.926     0.026     2.643     2.542
    31   1 H        0.926     0.030     2.591     2.517
    32   1 H        0.926     0.035     2.513     2.479

molecular dipole:
                 x           y           z       tot (Debye)
 q only:       -0.000      -0.849       0.000
   full:       -0.000      -1.335       0.000       3.393

 projected vibrational frequencies (cm⁻¹)
eigval :       -0.00    -0.00    -0.00     0.00     0.00     0.00
eigval :       51.52    78.32   120.70   123.75   180.42   223.74
eigval :      230.34   268.14   306.00   336.85   357.41   397.62
eigval :      422.16   427.87   433.43   451.33   454.39   486.67
eigval :      529.23   536.70   544.87   560.69   562.23   609.75
eigval :      645.53   671.65   677.65   705.80   706.73   714.07
eigval :      771.50   772.84   799.43   806.79   810.02   858.59
eigval :      858.89   860.09   864.56   865.09   898.39   898.49
eigval :      919.21   919.31   982.91   996.74  1068.46  1069.21
eigval :     1126.08  1136.10  1137.74  1167.76  1177.60  1182.23
eigval :     1203.65  1206.11  1207.83  1229.05  1257.24  1273.11
eigval :     1305.44  1317.43  1351.28  1351.51  1369.36  1381.58
eigval :     1428.66  1433.10  1445.37  1484.98  1491.89  1530.91
eigval :     1573.02  1586.16  1590.58  1612.02  1614.59  1626.01
eigval :     3071.09  3071.12  3076.99  3077.00  3077.41  3085.19
eigval :     3085.29  3093.56  3093.68  3098.30  3490.57  3490.97

   temp. (K)  partition function   enthalpy   heat capacity  entropy
                                   cal/mol     cal/K/mol   cal/K/mol   J/K/mol
 298.15  VIB  0.500E+04             7123.103     54.302     40.093
         ROT  0.243E+07              888.752      2.981     32.201
         INT  0.121E+11             8011.856     57.283     72.293
         TR   0.397E+28             1481.254      4.968     42.504
         TOT                        9493.1094    62.2514   114.7976   480.3132

       T/K    H(0)-H(T)+PV         H(T)/Eh          T*S/Eh         G(T)/Eh
   ------------------------------------------------------------------------
    298.15    0.151282E-01    0.259907E+00    0.545440E-01    0.205363E+00
   ------------------------------------------------------------------------

         :::::::::::::::::::::::::::::::::::::::::::::::::::::
         ::                  THERMODYNAMIC                  ::
         :::::::::::::::::::::::::::::::::::::::::::::::::::::
         :: total free energy         -50.358205946094 Eh   ::
         ::.................................................::
         :: total energy              -50.563569394120 Eh   ::
         :: zero point energy           0.244779258375 Eh   ::
         :: G(RRHO) w/o ZPVE           -0.039415810348 Eh   ::
         :: G(RRHO) contrib.            0.205363448027 Eh   ::
         :::::::::::::::::::::::::::::::::::::::::::::::::::::

           -------------------------------------------------
          | TOTAL ENERGY              -50.563569394120 Eh   |
          | TOTAL ENTHALPY            -50.303661902892 Eh   |
          | TOTAL FREE ENERGY         -50.358205946094 Eh   |
          | GRADIENT NORM               0.000085168050 Eh/α |
          | HOMO-LUMO GAP               3.035130687936 eV   |
           -------------------------------------------------

 * finished run on 2025/08/30 at 17:36:59.904
