   * xtb version 6.7.1 (edcfbbe) compiled by 'albert@albert-system' on 2024-07-22

   ID    Z sym.   atoms
    1    7 N      1, 11, 27, 33
    2    6 C      2-10, 12-17, 19-26, 28-32, 34-39, 41-48
    3    8 O      18, 40
    4    1 H      49-74

          program call               : xtb data2507/toluene/PxCYP/PxCYP_toluene_T1_crest.xyz --gfn 2 --uhf 2 --gbsa toluene --ohess vtight --parallel 40 --molden --ceasefiles --namespace data2507/toluene/PxCYP/PxCYP_toluene_T1_finalOpt
      * Solvation model:               GBSA
        Solvent                        toluene
        Solvent mass                       9.2140E+01 g/mol
          :  Hamiltonian                  GFN2-xTB          :
 * total energy  :  -123.0177971 Eh     change       -0.9843859E-10 Eh
 * total energy  :  -123.0178726 Eh     change       -0.7544193E-04 Eh
 * total energy  :  -123.0179053 Eh     change       -0.3271578E-04 Eh
 * total energy  :  -123.0179499 Eh     change       -0.4465027E-04 Eh
 * total energy  :  -123.0179625 Eh     change       -0.1254985E-04 Eh
 * total energy  :  -123.0179848 Eh     change       -0.2230248E-04 Eh
 * total energy  :  -123.0179988 Eh     change       -0.1407514E-04 Eh
 * total energy  :  -123.0180157 Eh     change       -0.1688763E-04 Eh
 * total energy  :  -123.0180231 Eh     change       -0.7411901E-05 Eh
 * total energy  :  -123.0180276 Eh     change       -0.4456175E-05 Eh
 * total energy  :  -123.0180821 Eh     change       -0.8305584E-06 Eh
 * total energy  :  -123.0180829 Eh     change       -0.7381543E-06 Eh
 * total energy  :  -123.0180836 Eh     change       -0.6899783E-06 Eh
 * total energy  :  -123.0180841 Eh     change       -0.5592153E-06 Eh
 * total energy  :  -123.0180842 Eh     change       -0.1145174E-06 Eh
 * total energy  :  -123.0180844 Eh     change       -0.1535754E-06 Eh
 * total energy  :  -123.0180842 Eh     change        0.1883216E-06 Eh
 * total energy  :  -123.0180847 Eh     change       -0.5160756E-06 Eh
 * total energy  :  -123.0180848 Eh     change       -0.3275032E-07 Eh
   *** GEOMETRY OPTIMIZATION CONVERGED AFTER 48 ITERATIONS ***

 final structure:
================
74
 xtb: 6.7.1 (edcfbbe)
N           -3.43214158272393       -5.31042955183303        1.15837368666310
C           -2.46341704754314       -4.67081206856749        1.10170798198564
C           -1.26970423173154       -3.97999299524031        1.03783428388622
C           -0.05016804488101       -4.68701293145704        1.22936850525720
C            1.14795486977061       -4.06957937454182        1.06024144228077
C            1.18097281610534       -2.68972979109291        0.67807448939560
C            2.38367742587010       -1.93999411874801        0.47582562596568
C            2.30397168786002       -0.54765919087350        0.23792646310364
C            3.42391599747872        0.21271851800612        0.03385144167555
C            4.69045857914927       -0.38463888087048        0.04788519589788
N            5.85357457923219        0.39525829921881       -0.16560569112285
C            6.61942007524656        0.21822411416890       -1.30734793666159
C            6.26578095897598       -0.68993063944582       -2.30542261113421
C            7.05534506637839       -0.84204143947653       -3.42977163806978
C            8.20791825167914       -0.08819057869306       -3.58846180736931
C            8.56352254902642        0.83639357321457       -2.62099162514122
C            7.77713455816206        0.99648481887046       -1.49133026795466
O            8.16706851996321        1.94243404330179       -0.58537739842100
C            7.39668909895923        2.11382741996120        0.53047487355119
C            7.80536589878662        3.07275232906791        1.44349531841266
C            7.08051995301965        3.27777128675160        2.60535306929020
C            5.95440566872394        2.50999536959573        2.85882251631692
C            5.53925253701304        1.55130208390123        1.95362143426003
C            6.24115412850801        1.34616125613347        0.76561235518657
C            4.79573168356207       -1.75920572136849        0.27472740674102
C            3.67179859715509       -2.51776403631788        0.48988587749521
N            0.02217077022387       -2.03238350636359        0.51951891902420
C           -1.15082320854846       -2.58852808356104        0.69757906715094
C           -2.30346360085949       -1.71581131430996        0.50331055646463
C           -3.52087033477636       -1.91718578419593        1.16259572827082
C           -4.58565414809529       -1.06659786962469        0.95362458812970
C           -4.46085206227390        0.01012144719391        0.07974361277567
N           -5.56395695728798        0.87275757412606       -0.14945169802782
C           -6.68580167121098        0.41031942775907       -0.82274455827269
C           -6.76567874155719       -0.88415276890896       -1.33350081932924
C           -7.90029476720723       -1.30773735589666       -2.00142253587902
C           -8.97318209708460       -0.44945223156729       -2.18128587945534
C           -8.90458015368333        0.84704611301504       -1.69932779857598
C           -7.77161420579623        1.27990365027625       -1.02991368254041
O           -7.75666297716701        2.57716039484735       -0.59743574325475
C           -6.63944667360127        3.02104456738071        0.05452319698075
C           -6.63679426660161        4.33791852241544        0.48495773791157
C           -5.54324872813143        4.84244676005755        1.16878067524991
C           -4.45826696848814        4.02196497058684        1.43231023135469
C           -4.45227186365557        2.70629934099608        1.00568812658977
C           -5.53396347012921        2.18611993915545        0.29697617974910
C           -3.24771895831905        0.23662453854539       -0.56946579075060
C           -2.18764696556459       -0.61361627046588       -0.35522119897081
H           -0.10382390973169       -5.73077085090744        1.51433661741761
H            2.06524210256428       -4.60806899744936        1.23611506360486
H            1.32275213694844       -0.09958483423011        0.22177199041937
H            3.34236471683103        1.27403301771806       -0.15300983572689
H            5.36362307230469       -1.26938932036403       -2.19275842769918
H            6.76322803961494       -1.55235591405431       -4.18740182593828
H            8.82433435868901       -0.21002235591006       -4.46478612548084
H            9.44506448523509        1.44914350339500       -2.72201651433627
H            8.69485385942251        3.64170233855090        1.22458772295191
H            7.40178758318269        4.02685151751914        3.31137357447073
H            5.39418893749534        2.65319848071661        3.76958167426311
H            4.67002580563010        0.94831469348488        2.16156316643040
H            5.77422975264357       -2.21838321133007        0.29352344220704
H            3.78794533138349       -3.57553664955607        0.66759534949505
H           -3.62822756236092       -2.73612171536730        1.85673112132853
H           -5.51947088788903       -1.22939786205282        1.47181208349970
H           -5.93207069417457       -1.55614169838680       -1.20507641771128
H           -7.94002646644704       -2.31548348571833       -2.38446423335353
H           -9.85811610213175       -0.78203646253761       -2.69988211279066
H           -9.71685117038976        1.54339441758611       -1.83378691187762
H           -7.50239188199115        4.94605971932609        0.27594275864624
H           -5.54599786266687        5.86890522686195        1.49911493431052
H           -3.60875305978362        4.40355406500533        1.97676560816765
H           -3.61017887729682        2.06966193994394        1.22455886721323
H           -3.15346696802731        1.07196535963844       -1.24787096523100
H           -1.24712569197966       -0.45528856820003       -0.85951784746823

          :  Hamiltonian                  GFN2-xTB          :
         :: gradient norm              0.000066870875 Eh/a0 ::
         :: HOMO-LUMO gap              0.418463617606 eV    ::
         :: SCC energy              -125.190311329770 Eh    ::
         :: -> dispersion             -0.102224686046 Eh    ::
         :: -> Gsolv                  -0.063043400825 Eh    ::
         :: repulsion energy           2.172226555981 Eh    ::

    * Orbital Energies and Occupations

         #    Occupation            Energy/Eh            Energy/eV
      -------------------------------------------------------------
         1        2.0000           -0.7519867             -20.4626
       ...           ...                  ...                  ...
       102        2.0000           -0.4211075             -11.4589
       103        2.0000           -0.4153742             -11.3029
       104        2.0000           -0.4140102             -11.2658
       105        2.0000           -0.4071417             -11.0789
       106        2.0000           -0.4063416             -11.0571
       107        2.0000           -0.4051270             -11.0241
       108        2.0000           -0.4002946             -10.8926
       109        2.0000           -0.3976044             -10.8194
       110        2.0000           -0.3723500             -10.1322
       111        1.9750           -0.3596781              -9.7873
       112        1.6426           -0.3567548              -9.7078
       113        1.3824           -0.3557419              -9.6802
       114        0.9997           -0.2736566              -7.4466 (HOMO)
       115        0.0003           -0.2582786              -7.0281 (LUMO)
       116        0.0000           -0.2561406              -6.9699
       117        0.0000           -0.2544368              -6.9236
       118                         -0.2442018              -6.6451
       119                         -0.2428765              -6.6090
       120                         -0.2312416              -6.2924
       121                         -0.2306135              -6.2753
       122                         -0.2286416              -6.2217
       123                         -0.2204550              -5.9989
       124                         -0.2166920              -5.8965
       125                         -0.2113060              -5.7499
       ...                                ...                  ...
       218                          1.1697097              31.8294
      -------------------------------------------------------------
                  HL-Gap            0.0153780 Eh            0.4185 eV

     #   Z          covCN         q      C6AA      α(0)
     1   7 N        0.911    -0.385    29.935     7.913
     2   6 C        1.908     0.095    28.728     8.656
     3   6 C        2.962    -0.051    29.253     8.871
     4   6 C        2.925    -0.023    28.580     8.767
     5   6 C        2.908    -0.061    29.521     8.909
     6   6 C        2.932     0.063    26.594     8.457
     7   6 C        2.975    -0.007    28.184     8.708
     8   6 C        2.925    -0.039    28.975     8.827
     9   6 C        2.914    -0.043    29.060     8.840
    10   6 C        2.923     0.032    27.284     8.566
    11   7 N        2.751    -0.024    21.707     6.920
    12   6 C        2.925     0.046    26.962     8.515
    13   6 C        2.921    -0.050    29.250     8.869
    14   6 C        2.918    -0.031    28.764     8.795
    15   6 C        2.919    -0.031    28.763     8.795
    16   6 C        2.917    -0.053    29.306     8.877
    17   6 C        2.885     0.130    25.162     8.224
    18   8 O        1.709    -0.233    17.856     5.705
    19   6 C        2.885     0.130    25.161     8.224
    20   6 C        2.917    -0.053    29.305     8.877
    21   6 C        2.919    -0.030    28.760     8.794
    22   6 C        2.918    -0.031    28.762     8.795
    23   6 C        2.921    -0.050    29.249     8.869
    24   6 C        2.926     0.046    26.961     8.515
    25   6 C        2.915    -0.042    29.054     8.839
    26   6 C        2.920    -0.045    29.126     8.850
    27   7 N        1.858    -0.252    27.421     7.762
    28   6 C        2.932     0.086    26.076     8.374
    29   6 C        2.981     0.001    27.997     8.679
    30   6 C        2.922    -0.034    28.847     8.808
    31   6 C        2.918    -0.039    28.959     8.825
    32   6 C        2.923     0.049    26.900     8.505
    33   7 N        2.752    -0.032    21.853     6.943
    34   6 C        2.924     0.046    26.969     8.516
    35   6 C        2.921    -0.051    29.263     8.871
    36   6 C        2.918    -0.030    28.761     8.794
    37   6 C        2.919    -0.031    28.774     8.796
    38   6 C        2.917    -0.053    29.306     8.877
    39   6 C        2.884     0.129    25.170     8.225
    40   8 O        1.709    -0.235    17.888     5.710
    41   6 C        2.884     0.129    25.169     8.225
    42   6 C        2.917    -0.052    29.303     8.877
    43   6 C        2.919    -0.031    28.781     8.797
    44   6 C        2.918    -0.031    28.769     8.796
    45   6 C        2.921    -0.052    29.286     8.874
    46   6 C        2.924     0.046    26.972     8.517
    47   6 C        2.917    -0.041    29.007     8.832
    48   6 C        2.926    -0.031    28.770     8.796
    49   1 H        0.925     0.005     2.977     2.698
    50   1 H        0.926     0.017     2.785     2.610
    51   1 H        0.926     0.047     2.361     2.403
    52   1 H        0.926     0.035     2.511     2.478
    53   1 H        0.926     0.055     2.263     2.353
    54   1 H        0.926     0.054     2.269     2.356
    55   1 H        0.926     0.057     2.238     2.340
    56   1 H        0.926     0.063     2.169     2.303
    57   1 H        0.926     0.063     2.170     2.303
    58   1 H        0.926     0.057     2.235     2.338
    59   1 H        0.926     0.055     2.261     2.352
    60   1 H        0.926     0.055     2.254     2.348
    61   1 H        0.926     0.032     2.562     2.503
    62   1 H        0.926     0.026     2.637     2.540
    63   1 H        0.926     0.034     2.530     2.487
    64   1 H        0.926     0.042     2.428     2.437
    65   1 H        0.926     0.049     2.328     2.386
    66   1 H        0.926     0.053     2.282     2.363
    67   1 H        0.926     0.057     2.237     2.339
    68   1 H        0.926     0.063     2.162     2.299
    69   1 H        0.926     0.062     2.170     2.304
    70   1 H        0.926     0.057     2.236     2.338
    71   1 H        0.926     0.055     2.256     2.349
    72   1 H        0.926     0.053     2.283     2.363
    73   1 H        0.926     0.047     2.353     2.399
    74   1 H        0.926     0.053     2.282     2.362

molecular dipole:
                 x           y           z       tot (Debye)
 q only:        1.860       5.188      -1.200
   full:        2.206       4.799      -1.057      13.690

 projected vibrational frequencies (cm⁻¹)
eigval :       -0.00    -0.00     0.00     0.00     0.00     0.00
eigval :       11.18    12.84    15.55    20.39    27.96    36.09
eigval :       43.54    47.62    53.74    58.75    63.25    69.55
eigval :       80.67   107.74   114.16   115.47   120.87   132.85
eigval :      136.28   171.69   185.16   194.29   201.95   217.69
eigval :      243.27   245.64   253.65   258.66   271.06   278.67
eigval :      299.00   329.91   343.92   355.78   372.13   374.13
eigval :      376.10   379.76   382.35   393.84   400.08   410.18
eigval :      420.14   424.41   433.34   433.75   441.27   450.86
eigval :      464.24   465.21   472.31   484.06   498.81   500.54
eigval :      527.10   529.21   534.02   537.79   543.94   563.83
eigval :      569.06   580.11   584.48   590.70   604.21   608.80
eigval :      609.56   626.66   654.01   658.95   667.19   668.19
eigval :      669.10   672.14   673.07   677.13   691.58   709.72
eigval :      724.95   760.82   773.49   777.41   779.35   779.59
eigval :      793.02   793.88   799.62   813.40   835.34   841.45
eigval :      855.08   855.24   860.98   867.42   870.15   870.24
eigval :      870.65   883.53   897.67   900.38   903.74   905.15
eigval :      905.22   905.76   910.65   912.28   913.21   913.65
eigval :      914.28   917.40   917.82   918.96   920.86   924.35
eigval :      982.83   996.25  1030.21  1054.82  1082.52  1083.19
eigval :     1083.81  1085.51  1111.95  1112.17  1116.91  1118.58
eigval :     1120.55  1126.19  1137.17  1145.36  1167.35  1167.74
eigval :     1170.48  1171.30  1178.89  1183.71  1193.26  1205.59
eigval :     1206.16  1209.35  1213.45  1218.69  1235.08  1235.36
eigval :     1236.61  1250.19  1252.48  1253.82  1259.42  1267.84
eigval :     1296.61  1301.25  1304.20  1307.21  1312.58  1315.60
eigval :     1318.96  1328.35  1334.14  1341.29  1344.85  1358.31
eigval :     1398.33  1400.04  1413.38  1416.06  1424.04  1430.04
eigval :     1436.62  1438.14  1438.52  1441.76  1456.05  1465.94
eigval :     1468.79  1478.51  1485.31  1523.49  1536.22  1551.79
eigval :     1555.10  1559.23  1561.54  1562.51  1566.57  1571.59
eigval :     1580.82  1582.52  1592.03  2248.04  3037.71  3067.45
eigval :     3072.65  3080.02  3082.11  3087.41  3094.56  3094.77
eigval :     3095.61  3095.89  3096.31  3098.38  3101.38  3103.17
eigval :     3103.35  3103.59  3103.73  3104.55  3111.29  3111.60
eigval :     3112.07  3112.56  3114.92  3115.03  3115.50  3115.80

   temp. (K)  partition function   enthalpy   heat capacity  entropy
                                   cal/mol     cal/K/mol   cal/K/mol   J/K/mol
 298.15  VIB  0.178E+18            22094.390    139.959    137.039
         ROT  0.121E+09              888.752      2.981     39.964
         INT  0.215E+26            22983.142    142.940    177.003
         TR   0.149E+29             1481.254      4.968     45.130
         TOT                       24464.3958   147.9081   222.1329   929.4039

       T/K    H(0)-H(T)+PV         H(T)/Eh          T*S/Eh         G(T)/Eh
   ------------------------------------------------------------------------
    298.15    0.389865E-01    0.585921E+00    0.105542E+00    0.480378E+00
   ------------------------------------------------------------------------

         :::::::::::::::::::::::::::::::::::::::::::::::::::::
         ::                  THERMODYNAMIC                  ::
         :::::::::::::::::::::::::::::::::::::::::::::::::::::
         :: total free energy        -122.537706327240 Eh   ::
         ::.................................................::
         :: total energy             -123.018084771141 Eh   ::
         :: zero point energy           0.546934442477 Eh   ::
         :: G(RRHO) w/o ZPVE           -0.066555998576 Eh   ::
         :: G(RRHO) contrib.            0.480378443901 Eh   ::
         :::::::::::::::::::::::::::::::::::::::::::::::::::::

           -------------------------------------------------
          | TOTAL ENERGY             -123.018084771141 Eh   |
          | TOTAL ENTHALPY           -122.432163832371 Eh   |
          | TOTAL FREE ENERGY        -122.537706327240 Eh   |
          | GRADIENT NORM               0.000065552803 Eh/α |
          | HOMO-LUMO GAP               0.418456709241 eV   |
           -------------------------------------------------

 * finished run on 2025/07/18 at 07:14:02.385
