   * xtb version 6.7.1 (edcfbbe) compiled by 'albert@albert-system' on 2024-07-22

   ID    Z sym.   atoms
    1    7 N      1, 11, 27, 33
    2    6 C      2-10, 12-17, 19-26, 28-32, 34-39, 41-48
    3    8 O      18, 40
    4    1 H      49-74

          program call               : xtb data2507/toluene/PxCYP/PxCYP_toluene_S0_finalOpt.xtbopt.xyz --gfn 2 --uhf 2 --gbsa toluene --ohess vtight --parallel 40 --molden --ceasefiles --namespace data2507/toluene/PxCYP/PxCYP_toluene_T1_preOpt
      * Solvation model:               GBSA
        Solvent                        toluene
        Solvent mass                       9.2140E+01 g/mol
          :  Hamiltonian                  GFN2-xTB          :
 * total energy  :  -123.0117673 Eh     change       -0.3811351E-10 Eh
 * total energy  :  -123.0154044 Eh     change       -0.3637089E-02 Eh
 * total energy  :  -123.0163554 Eh     change       -0.9510815E-03 Eh
 * total energy  :  -123.0163825 Eh     change       -0.2707420E-04 Eh
 * total energy  :  -123.0165144 Eh     change       -0.1318489E-03 Eh
 * total energy  :  -123.0165809 Eh     change       -0.6656012E-04 Eh
 * total energy  :  -123.0166625 Eh     change       -0.8159680E-04 Eh
 * total energy  :  -123.0167297 Eh     change       -0.6716578E-04 Eh
 * total energy  :  -123.0167783 Eh     change       -0.4859680E-04 Eh
 * total energy  :  -123.0168035 Eh     change       -0.2524315E-04 Eh
 * total energy  :  -123.0179506 Eh     change       -0.2580230E-06 Eh
 * total energy  :  -123.0179509 Eh     change       -0.2634473E-06 Eh
 * total energy  :  -123.0179512 Eh     change       -0.2926729E-06 Eh
 * total energy  :  -123.0179515 Eh     change       -0.2913674E-06 Eh
 * total energy  :  -123.0179517 Eh     change       -0.2474610E-06 Eh
 * total energy  :  -123.0179519 Eh     change       -0.1911962E-06 Eh
 * total energy  :  -123.0179520 Eh     change       -0.1444817E-06 Eh
 * total energy  :  -123.0179521 Eh     change       -0.1013585E-06 Eh
 * total energy  :  -123.0179522 Eh     change       -0.6059172E-07 Eh
   *** GEOMETRY OPTIMIZATION CONVERGED AFTER 117 ITERATIONS ***

 final structure:
================
74
 xtb: 6.7.1 (edcfbbe)
N           -3.38158041243339       -5.47266117829766        0.39425696991291
C           -2.41667149665596       -4.83341887220369        0.28800345885808
C           -1.22751265513865       -4.13820691993625        0.19637996290713
C            0.00020187808018       -4.85415739056118        0.25890319989279
C            1.19035879414561       -4.19885420425917        0.25135125748676
C            1.20646901824629       -2.76829920053398        0.18789791999648
C            2.39821035868813       -1.97475080832667        0.19685008398637
C            3.69028956423473       -2.51306505688480        0.38206383841699
C            4.80356940578048       -1.70969048704975        0.38759060627340
C            4.68211226899342       -0.32852182058488        0.21489689209299
N            5.83229887708461        0.49829821415226        0.22563451147233
C            6.02430343609219        1.41908564584427        1.24405056587772
C            5.13288380350827        1.54457100125716        2.30986358960012
C            5.35534357775372        2.47592611038352        3.30676113666187
C            6.47254606842714        3.29590236490238        3.26852583007239
C            7.38252367487961        3.17022357193583        2.23244229896906
C            7.16839107301443        2.23809572316189        1.22970150334574
O            8.11627940380576        2.14327640909542        0.24978801152592
C            7.91913758571034        1.22450613598017       -0.74237531934787
C            8.88567256032753        1.14093947888303       -1.73183755515268
C            8.73166905269195        0.24762996580865       -2.77848802083394
C            7.60017140134020       -0.55099345434173       -2.84111320872326
C            6.63137231281278       -0.47485064392389       -1.85810136585998
C            6.77995593364447        0.39932395284826       -0.78104888233334
C            3.41083756893211        0.22968886909907        0.03258291402179
C            2.30271461942939       -0.57405587074144        0.02246970576772
N            0.04068663235645       -2.10877531302624        0.10943090490425
C           -1.12427630534984       -2.70838883535434        0.09421863378277
C           -2.28319986328625       -1.83067935283630       -0.02850036031469
C           -3.47947194479242       -2.23476611086818       -0.63024346808224
C           -4.54884536173760       -1.36949517936529       -0.72584984441615
C           -4.44885820416294       -0.07479273374803       -0.22391713230503
N           -5.55591528557322        0.80927712112260       -0.30687109865264
C           -5.51110650386011        1.91210627462412       -1.14733936761676
C           -4.41428478886243        2.17910772525036       -1.96495970852072
C           -4.40595473795724        3.28926459065857       -2.78984176530641
C           -5.49097934747890        4.15045518581808       -2.82203606293946
C           -6.59843155082649        3.89100883974110       -2.03192952330649
C           -6.61584220978353        2.78051586402550       -1.20374732491326
O           -7.74628965768117        2.56718045969734       -0.46432498655599
C           -7.78018792872127        1.46872499325355        0.34961464918671
C           -8.93128061135638        1.26468977332992        1.09293104941725
C           -9.02041923698362        0.18154965551216        1.95123115329229
C           -7.95025584022180       -0.69036107781372        2.07214431487627
C           -6.79737474123996       -0.49443371069434        1.33367302870685
C           -6.69604913691981        0.57824853502935        0.44939598967319
C           -3.25634602374195        0.35018461687595        0.36065851438890
C           -2.19192392538348       -0.51651320302255        0.45113347791882
H           -0.04082141736299       -5.93526647773335        0.31479988233603
H            2.11419857076040       -4.75266585784187        0.29759010832025
H            3.81689175555925       -3.57296109514318        0.53849832317736
H            5.78356256338910       -2.13874347561823        0.54286898683730
H            4.26884273199077        0.90113876987288        2.35086853810476
H            4.65112591138268        2.55672012531243        4.12000873415875
H            6.64318139058104        4.02377035883211        4.04560552089317
H            8.26984311100915        3.78089276571244        2.18235682501865
H            9.74586044281812        1.78756967633010       -1.66301936531396
H            9.48800517422096        0.18474130256267       -3.54447652577367
H            7.46557649417925       -1.23722568886491       -3.66263108052984
H            5.74679203598452       -1.08822608832523       -1.91837816079823
H            3.31820795171793        1.29613204340559       -0.11607781154988
H            1.32104725148575       -0.15609924007014       -0.13573206749425
H           -3.56726243914124       -3.22856740043745       -1.04080806333988
H           -5.46619193624928       -1.69139001361380       -1.19686788149081
H           -3.57161365921474        1.50665991781567       -1.95224168681776
H           -3.54513255637635        3.47708811505349       -3.41232716203553
H           -5.48282500387178        5.01696474474567       -3.46376679550045
H           -7.46397055884948        4.53402097387069       -2.04377438350978
H           -9.74142805229778        1.96813649752026        0.98539211775102
H           -9.91946634774859        0.02621900428809        2.52591312566134
H           -8.00658275326761       -1.52993964962017        2.74725482614610
H           -5.96600014220084       -1.17305917029625        1.43961128783178
H           -3.18144650749203        1.35492693806322        0.75016529847238
H           -1.26705879668236       -0.20406359384780        0.91053120581165

          :  Hamiltonian                  GFN2-xTB          :
         :: gradient norm              0.000034659397 Eh/a0 ::
         :: HOMO-LUMO gap              0.419821508565 eV    ::
         :: SCC energy              -125.190180342994 Eh    ::
         :: -> dispersion             -0.102245122799 Eh    ::
         :: -> Gsolv                  -0.063100079075 Eh    ::
         :: repulsion energy           2.172228143591 Eh    ::

    * Orbital Energies and Occupations

         #    Occupation            Energy/Eh            Energy/eV
      -------------------------------------------------------------
         1        2.0000           -0.7521178             -20.4662
       ...           ...                  ...                  ...
       102        2.0000           -0.4211168             -11.4592
       103        2.0000           -0.4153474             -11.3022
       104        2.0000           -0.4140714             -11.2675
       105        2.0000           -0.4069230             -11.0729
       106        2.0000           -0.4060863             -11.0502
       107        2.0000           -0.4052872             -11.0284
       108        2.0000           -0.4002214             -10.8906
       109        2.0000           -0.3975762             -10.8186
       110        2.0000           -0.3723898             -10.1332
       111        1.9446           -0.3590422              -9.7700
       112        1.6974           -0.3571405              -9.7183
       113        1.3579           -0.3557919              -9.6816
       114        0.9997           -0.2734738              -7.4416 (HOMO)
       115        0.0003           -0.2580456              -7.0218 (LUMO)
       116        0.0000           -0.2562344              -6.9725
       117        0.0000           -0.2545273              -6.9260
       118                         -0.2442585              -6.6466
       119                         -0.2429512              -6.6110
       120                         -0.2312604              -6.2929
       121                         -0.2307112              -6.2780
       122                         -0.2287076              -6.2235
       123                         -0.2202519              -5.9934
       124                         -0.2167205              -5.8973
       125                         -0.2113345              -5.7507
       ...                                ...                  ...
       218                          1.1695051              31.8239
      -------------------------------------------------------------
                  HL-Gap            0.0154283 Eh            0.4198 eV

     #   Z          covCN         q      C6AA      α(0)
     1   7 N        0.911    -0.384    29.932     7.913
     2   6 C        1.908     0.095    28.729     8.656
     3   6 C        2.961    -0.050    29.249     8.871
     4   6 C        2.925    -0.023    28.580     8.767
     5   6 C        2.908    -0.061    29.516     8.908
     6   6 C        2.933     0.063    26.598     8.458
     7   6 C        2.975    -0.007    28.185     8.708
     8   6 C        2.920    -0.046    29.130     8.851
     9   6 C        2.915    -0.043    29.056     8.839
    10   6 C        2.923     0.032    27.291     8.567
    11   7 N        2.751    -0.023    21.701     6.919
    12   6 C        2.926     0.046    26.961     8.515
    13   6 C        2.921    -0.050    29.249     8.869
    14   6 C        2.918    -0.030    28.761     8.794
    15   6 C        2.919    -0.030    28.759     8.794
    16   6 C        2.917    -0.053    29.304     8.877
    17   6 C        2.885     0.130    25.160     8.223
    18   8 O        1.709    -0.232    17.852     5.705
    19   6 C        2.885     0.130    25.161     8.223
    20   6 C        2.917    -0.053    29.306     8.877
    21   6 C        2.919    -0.031    28.763     8.795
    22   6 C        2.918    -0.031    28.764     8.795
    23   6 C        2.921    -0.050    29.250     8.869
    24   6 C        2.925     0.046    26.962     8.515
    25   6 C        2.914    -0.043    29.063     8.840
    26   6 C        2.925    -0.039    28.980     8.828
    27   7 N        1.859    -0.253    27.442     7.765
    28   6 C        2.932     0.086    26.078     8.375
    29   6 C        2.981     0.001    27.993     8.679
    30   6 C        2.922    -0.034    28.850     8.808
    31   6 C        2.918    -0.039    28.957     8.824
    32   6 C        2.923     0.049    26.903     8.506
    33   7 N        2.752    -0.031    21.850     6.942
    34   6 C        2.924     0.046    26.971     8.517
    35   6 C        2.921    -0.052    29.283     8.874
    36   6 C        2.918    -0.031    28.768     8.795
    37   6 C        2.919    -0.031    28.779     8.797
    38   6 C        2.917    -0.052    29.302     8.877
    39   6 C        2.884     0.129    25.167     8.225
    40   8 O        1.709    -0.234    17.884     5.710
    41   6 C        2.884     0.129    25.170     8.225
    42   6 C        2.917    -0.053    29.305     8.877
    43   6 C        2.919    -0.031    28.773     8.796
    44   6 C        2.918    -0.030    28.759     8.794
    45   6 C        2.921    -0.051    29.263     8.871
    46   6 C        2.924     0.046    26.968     8.516
    47   6 C        2.917    -0.041    29.006     8.832
    48   6 C        2.926    -0.031    28.767     8.796
    49   1 H        0.925     0.004     2.984     2.701
    50   1 H        0.926     0.016     2.787     2.611
    51   1 H        0.926     0.026     2.643     2.542
    52   1 H        0.926     0.032     2.562     2.503
    53   1 H        0.926     0.056     2.250     2.345
    54   1 H        0.926     0.055     2.260     2.351
    55   1 H        0.926     0.057     2.234     2.337
    56   1 H        0.926     0.063     2.169     2.303
    57   1 H        0.926     0.063     2.169     2.303
    58   1 H        0.926     0.057     2.238     2.339
    59   1 H        0.926     0.054     2.269     2.356
    60   1 H        0.926     0.055     2.262     2.352
    61   1 H        0.926     0.035     2.514     2.479
    62   1 H        0.926     0.047     2.362     2.403
    63   1 H        0.926     0.034     2.532     2.488
    64   1 H        0.926     0.042     2.429     2.437
    65   1 H        0.926     0.053     2.286     2.364
    66   1 H        0.926     0.055     2.258     2.350
    67   1 H        0.926     0.057     2.235     2.338
    68   1 H        0.926     0.063     2.169     2.303
    69   1 H        0.926     0.063     2.161     2.299
    70   1 H        0.926     0.057     2.236     2.338
    71   1 H        0.926     0.053     2.281     2.362
    72   1 H        0.926     0.049     2.326     2.385
    73   1 H        0.926     0.047     2.352     2.398
    74   1 H        0.926     0.053     2.282     2.362

molecular dipole:
                 x           y           z       tot (Debye)
 q only:        1.795       5.367      -0.342
   full:        2.147       4.956      -0.349      13.756

 projected vibrational frequencies (cm⁻¹)
eigval :       -0.00    -0.00    -0.00     0.00     0.00     0.00
eigval :        2.77     8.50    14.44    22.14    28.59    34.47
eigval :       42.55    47.74    48.83    55.22    58.54    68.13
eigval :       83.24   107.82   113.46   116.01   121.68   133.59
eigval :      136.67   171.35   184.97   193.95   203.87   219.49
eigval :      242.52   243.57   253.33   258.41   270.03   277.97
eigval :      297.89   333.33   341.54   356.47   371.47   374.53
eigval :      376.76   378.86   383.88   392.92   400.49   410.34
eigval :      420.08   423.82   431.53   433.30   441.42   451.02
eigval :      459.89   465.19   474.31   484.25   499.02   500.17
eigval :      527.27   529.46   534.83   537.30   543.59   563.50
eigval :      570.53   579.86   584.16   590.55   604.06   608.82
eigval :      609.74   625.96   653.69   658.81   666.16   667.83
eigval :      668.70   670.84   672.95   677.34   691.99   709.84
eigval :      724.60   762.22   776.19   778.14   778.67   781.08
eigval :      792.05   793.97   799.66   812.63   834.01   841.11
eigval :      854.98   855.20   860.45   868.16   870.31   871.01
eigval :      872.92   887.90   898.01   902.48   903.63   904.29
eigval :      905.46   905.81   910.15   912.37   913.11   914.12
eigval :      916.62   917.26   918.17   922.47   922.74   923.42
eigval :      983.01   997.07  1030.57  1054.91  1082.68  1083.45
eigval :     1084.38  1085.86  1111.57  1112.46  1117.97  1119.27
eigval :     1121.59  1129.50  1139.03  1148.12  1167.68  1168.70
eigval :     1171.67  1171.94  1180.30  1184.18  1194.74  1205.10
eigval :     1207.04  1209.50  1215.60  1219.27  1235.84  1236.01
eigval :     1236.28  1251.44  1252.78  1254.66  1260.83  1269.43
eigval :     1297.04  1301.57  1304.50  1307.24  1312.68  1315.63
eigval :     1319.05  1328.45  1334.42  1341.11  1344.91  1358.70
eigval :     1398.56  1400.91  1413.77  1416.08  1424.44  1430.14
eigval :     1436.80  1438.35  1438.91  1441.60  1456.48  1466.29
eigval :     1469.12  1478.56  1485.54  1523.44  1536.12  1551.43
eigval :     1555.13  1559.21  1561.32  1562.48  1566.32  1571.47
eigval :     1580.85  1582.48  1592.06  2246.61  3037.20  3069.71
eigval :     3073.62  3080.83  3082.69  3087.54  3095.41  3095.46
eigval :     3095.60  3095.84  3096.16  3099.99  3103.24  3103.64
eigval :     3103.66  3103.77  3103.79  3106.11  3110.95  3111.54
eigval :     3112.14  3112.71  3114.81  3115.12  3115.42  3116.27

   temp. (K)  partition function   enthalpy   heat capacity  entropy
                                   cal/mol     cal/K/mol   cal/K/mol   J/K/mol
 298.15  VIB  0.132E+19            22127.865    139.675    138.897
         ROT  0.120E+09              888.752      2.981     39.953
         INT  0.158E+27            23016.618    142.656    178.850
         TR   0.149E+29             1481.254      4.968     45.130
         TOT                       24497.8715   147.6244   223.9794   937.1299

       T/K    H(0)-H(T)+PV         H(T)/Eh          T*S/Eh         G(T)/Eh
   ------------------------------------------------------------------------
    298.15    0.390398E-01    0.586044E+00    0.106420E+00    0.479624E+00
   ------------------------------------------------------------------------

         :::::::::::::::::::::::::::::::::::::::::::::::::::::
         ::                  THERMODYNAMIC                  ::
         :::::::::::::::::::::::::::::::::::::::::::::::::::::
         :: total free energy        -122.538328512808 Eh   ::
         ::.................................................::
         :: total energy             -123.017952198299 Eh   ::
         :: zero point energy           0.547003696231 Eh   ::
         :: G(RRHO) w/o ZPVE           -0.067380010741 Eh   ::
         :: G(RRHO) contrib.            0.479623685491 Eh   ::
         :::::::::::::::::::::::::::::::::::::::::::::::::::::

           -------------------------------------------------
          | TOTAL ENERGY             -123.017952198299 Eh   |
          | TOTAL ENTHALPY           -122.431908658888 Eh   |
          | TOTAL FREE ENERGY        -122.538328512808 Eh   |
          | GRADIENT NORM               0.000033725557 Eh/α |
          | HOMO-LUMO GAP               0.419824461412 eV   |
           -------------------------------------------------

 * finished run on 2025/07/18 at 07:07:40.473
