   * xtb version 6.7.1 (edcfbbe) compiled by 'albert@albert-system' on 2024-07-22

   ID    Z sym.   atoms
    1    7 N      1, 11, 27, 33
    2    6 C      2-10, 12-17, 19-26, 28-32, 34-39, 41-48
    3    8 O      18, 40
    4    1 H      49-74

          program call               : xtb data2507/toluene/PxCYP/PxCYP_toluene_S0_crest.xyz --gfn 2 --gbsa toluene --ohess vtight --parallel 40 --molden --ceasefiles --namespace data2507/toluene/PxCYP/PxCYP_toluene_S0_finalOpt
      * Solvation model:               GBSA
        Solvent                        toluene
        Solvent mass                       9.2140E+01 g/mol
          :  Hamiltonian                  GFN2-xTB          :
 * total energy  :  -123.0852713 Eh     change       -0.1914628E-08 Eh
 * total energy  :  -123.0853196 Eh     change       -0.4839402E-04 Eh
 * total energy  :  -123.0853039 Eh     change        0.1579016E-04 Eh
 * total energy  :  -123.0853488 Eh     change       -0.4489319E-04 Eh
 * total energy  :  -123.0853554 Eh     change       -0.6601413E-05 Eh
 * total energy  :  -123.0853702 Eh     change       -0.1488637E-04 Eh
 * total energy  :  -123.0853805 Eh     change       -0.1022332E-04 Eh
 * total energy  :  -123.0853896 Eh     change       -0.9169484E-05 Eh
 * total energy  :  -123.0853940 Eh     change       -0.4347105E-05 Eh
 * total energy  :  -123.0853980 Eh     change       -0.4068041E-05 Eh
 * total energy  :  -123.0854611 Eh     change       -0.9076399E-06 Eh
 * total energy  :  -123.0854622 Eh     change       -0.1067240E-05 Eh
 * total energy  :  -123.0854629 Eh     change       -0.6842713E-06 Eh
 * total energy  :  -123.0854634 Eh     change       -0.5194623E-06 Eh
 * total energy  :  -123.0854636 Eh     change       -0.1906305E-06 Eh
 * total energy  :  -123.0854639 Eh     change       -0.2574350E-06 Eh
 * total energy  :  -123.0854636 Eh     change        0.2517850E-06 Eh
 * total energy  :  -123.0854642 Eh     change       -0.5467478E-06 Eh
 * total energy  :  -123.0854642 Eh     change       -0.4727995E-07 Eh
   *** GEOMETRY OPTIMIZATION CONVERGED AFTER 48 ITERATIONS ***

 final structure:
================
74
 xtb: 6.7.1 (edcfbbe)
N           -3.37322340718519       -5.33987644846174        0.31973866628280
C           -2.41096595309712       -4.72416873020993        0.19306800774719
C           -1.19132174281439       -4.03051064888920        0.08045681565803
C            0.00354196501791       -4.75891524372216        0.10368690120994
C            1.20735645359504       -4.08923364213286        0.08466424193732
C            1.19852030233109       -2.68771238496384        0.07433706737263
C            2.42590178704607       -1.88879508661322        0.10226081943509
C            3.61656972039155       -2.38087315619591        0.63852992143941
C            4.75338468391881       -1.59912116806384        0.65715741238080
C            4.72875817928271       -0.30800129099348        0.13411355927345
N            5.89551336022703        0.48450460095764        0.15111846883934
C            5.93877587629652        1.67687412978539        0.87984204114270
C            4.86274183369606        2.12795561995874        1.63511914902244
C            4.94095216258034        3.31528940265724        2.34742304648910
C            6.09840372288854        4.06706862502375        2.32806244222880
C            7.19341381403949        3.61463438619970        1.60607341529073
C            7.12022863526054        2.43068976129435        0.89558270337644
O            8.25910860702924        2.03447913203201        0.23265905816226
C            8.19641837990364        0.86393460431833       -0.48694278694029
C            9.33813824526562        0.48937788831807       -1.17108068649667
C            9.34446411055901       -0.66098676218046       -1.94684364150786
C            8.19541247923586       -1.41965515528953       -2.04487942173597
C            7.04883915562961       -1.04872939958138       -1.35875936497741
C            7.03506406349644        0.08219239570293       -0.55079482050037
C            3.54213234480396        0.19163561243940       -0.39931695555358
C            2.40556877307857       -0.58855289160086       -0.40753976921294
N            0.05892310095713       -2.00357126177569        0.02186057886844
C           -1.10926242476880       -2.62292854775449        0.00447423461285
C           -2.29258521386768       -1.75941972784418       -0.07048850647892
C           -3.43647910097545       -2.13028558031178       -0.77488626194759
C           -4.53048201605123       -1.28969677301722       -0.82422780676415
C           -4.50467702359944       -0.06320643350088       -0.16495208278331
N           -5.62941489151544        0.78753412423853       -0.20242212961461
C           -5.54836593658893        2.04770657311668       -0.80172596009826
C           -4.39542808175339        2.49753118739695       -1.43420979961343
C           -4.34955634537712        3.75305107257615       -2.02153115969858
C           -5.45737082529271        4.57609843078437       -1.99845213625027
C           -6.62626883284225        4.13003733534134       -1.39850934884786
C           -6.67691217853822        2.87841362740385       -0.81318507955970
O           -7.88078824586793        2.49639279407868       -0.26755193624216
C           -7.94634644389381        1.24853786061100        0.30827409271307
C           -9.15942230778128        0.87898141460501        0.85910577605864
C           -9.29868245086029       -0.35128669942793        1.48535391726355
C           -8.21089210206821       -1.19678480899185        1.57002399525190
C           -6.99243007440341       -0.83052911677641        1.01807886206175
C           -6.84380456353418        0.38495310476187        0.36071689190523
C           -3.35670614257571        0.31989035679832        0.52594750216366
C           -2.26116718208794       -0.51606527650167        0.56303993713524
H           -0.03293674284626       -5.83858786540237        0.14093225431974
H            2.13446122418214       -4.63781489558502        0.07219915021434
H            3.65163038386437       -3.36673226017505        1.07590844934353
H            5.66869724837422       -1.97989663729375        1.08575353906511
H            3.95727765125050        1.54369075160329        1.67418443321309
H            4.08659813174627        3.64281248007079        2.91986888001612
H            6.16415970648924        4.99360679564909        2.87639351659251
H            8.12071957289868        4.16559519627634        1.58533055139809
H           10.21183184435107        1.11676872357036       -1.08811947096246
H           10.24110172398900       -0.94649247911212       -2.47421324784932
H            8.17736667629755       -2.30614297710578       -2.66027815858067
H            6.15354243811424       -1.64166681001804       -1.45851724021255
H            3.52262291414711        1.18986965516541       -0.81079685787556
H            1.48398105085049       -0.21059815721053       -0.82161629628992
H           -3.46538713634714       -3.06622000384553       -1.31225205079023
H           -5.41046202626762       -1.57743469198404       -1.37996589479670
H           -3.52736186505725        1.85895145716769       -1.47435328064588
H           -3.43841523497849        4.07739049538513       -2.50043008663872
H           -5.42684276115576        5.55528614439076       -2.44985318522068
H           -7.51670078753000        4.73879113868642       -1.37878560484109
H           -9.98298345711902        1.57250024614201        0.79105497561503
H          -10.24986376624466       -0.63219817688006        1.90923772680031
H           -8.29664421639998       -2.15012843418615        2.06855708732000
H           -6.14818227816277       -1.49617972577514        1.10550692302702
H           -3.33535873480219        1.27151337292215        1.03584660051121
H           -1.37017717631492       -0.22868970036178        1.09924895297642

          :  Hamiltonian                  GFN2-xTB          :
         :: gradient norm              0.000055523538 Eh/a0 ::
         :: HOMO-LUMO gap              1.272151691894 eV    ::
         :: SCC energy              -125.272669502639 Eh    ::
         :: -> dispersion             -0.102184496735 Eh    ::
         :: -> Gsolv                  -0.053475132534 Eh    ::
         :: repulsion energy           2.187205291827 Eh    ::

    * Orbital Energies and Occupations

         #    Occupation            Energy/Eh            Energy/eV
      -------------------------------------------------------------
         1        2.0000           -0.7310372             -19.8925
       ...           ...                  ...                  ...
       101        2.0000           -0.4207471             -11.4491
       102        2.0000           -0.4204541             -11.4411
       103        2.0000           -0.4172421             -11.3537
       104        2.0000           -0.4159893             -11.3196
       105        2.0000           -0.4157897             -11.3142
       106        2.0000           -0.4140512             -11.2669
       107        2.0000           -0.4128832             -11.2351
       108        2.0000           -0.4057094             -11.0399
       109        2.0000           -0.3918432             -10.6626
       110        2.0000           -0.3906699             -10.6307
       111        2.0000           -0.3862038             -10.5091
       112        2.0000           -0.3453899              -9.3985
       113        2.0000           -0.3442154              -9.3666 (HOMO)
       114                         -0.2974647              -8.0944 (LUMO)
       115                         -0.2779187              -7.5626
       116                         -0.2433376              -6.6216
       117                         -0.2412036              -6.5635
       118                         -0.2405490              -6.5457
       119                         -0.2392239              -6.5096
       120                         -0.2385236              -6.4906
       121                         -0.2312260              -6.2920
       122                         -0.2300159              -6.2591
       123                         -0.2262080              -6.1554
       124                         -0.2186593              -5.9500
       ...                                ...                  ...
       218                          1.1505113              31.3070
      -------------------------------------------------------------
                  HL-Gap            0.0467507 Eh            1.2722 eV

     #   Z          covCN         q      C6AA      α(0)
     1   7 N        0.911    -0.276    27.138     7.534
     2   6 C        1.909     0.118    28.202     8.576
     3   6 C        2.968    -0.007    28.197     8.710
     4   6 C        2.932    -0.007    28.185     8.707
     5   6 C        2.914    -0.046    29.154     8.854
     6   6 C        2.947     0.102    25.748     8.322
     7   6 C        2.980     0.002    27.967     8.675
     8   6 C        2.922    -0.031    28.763     8.795
     9   6 C        2.920    -0.040    28.985     8.829
    10   6 C        2.920     0.068    26.469     8.437
    11   7 N        2.751    -0.070    22.599     7.060
    12   6 C        2.921     0.042    27.055     8.530
    13   6 C        2.924    -0.061    29.510     8.909
    14   6 C        2.919    -0.039    28.966     8.826
    15   6 C        2.919    -0.041    29.014     8.833
    16   6 C        2.919    -0.058    29.437     8.897
    17   6 C        2.882     0.122    25.311     8.248
    18   8 O        1.708    -0.273    18.520     5.810
    19   6 C        2.882     0.123    25.307     8.247
    20   6 C        2.919    -0.058    29.441     8.898
    21   6 C        2.919    -0.041    29.018     8.834
    22   6 C        2.919    -0.039    28.974     8.827
    23   6 C        2.924    -0.061    29.509     8.908
    24   6 C        2.921     0.042    27.055     8.530
    25   6 C        2.919    -0.039    28.961     8.825
    26   6 C        2.925    -0.024    28.612     8.772
    27   7 N        1.856    -0.243    27.189     7.728
    28   6 C        2.948     0.104    25.706     8.316
    29   6 C        2.981     0.001    28.000     8.680
    30   6 C        2.921    -0.029    28.714     8.787
    31   6 C        2.920    -0.038    28.952     8.824
    32   6 C        2.921     0.069    26.452     8.434
    33   7 N        2.751    -0.071    22.622     7.064
    34   6 C        2.921     0.042    27.054     8.530
    35   6 C        2.924    -0.061    29.512     8.909
    36   6 C        2.919    -0.039    28.968     8.826
    37   6 C        2.919    -0.041    29.020     8.834
    38   6 C        2.919    -0.058    29.440     8.898
    39   6 C        2.882     0.122    25.310     8.248
    40   8 O        1.708    -0.272    18.512     5.809
    41   6 C        2.882     0.122    25.312     8.248
    42   6 C        2.919    -0.058    29.442     8.898
    43   6 C        2.919    -0.041    29.016     8.833
    44   6 C        2.919    -0.039    28.963     8.825
    45   6 C        2.924    -0.060    29.495     8.906
    46   6 C        2.921     0.042    27.053     8.529
    47   6 C        2.920    -0.039    28.965     8.826
    48   6 C        2.925    -0.025    28.625     8.774
    49   1 H        0.926     0.046     2.367     2.406
    50   1 H        0.926     0.054     2.265     2.353
    51   1 H        0.926     0.049     2.335     2.389
    52   1 H        0.926     0.049     2.337     2.390
    53   1 H        0.926     0.042     2.417     2.431
    54   1 H        0.926     0.042     2.422     2.434
    55   1 H        0.926     0.042     2.426     2.436
    56   1 H        0.926     0.047     2.357     2.401
    57   1 H        0.926     0.047     2.357     2.401
    58   1 H        0.926     0.041     2.430     2.438
    59   1 H        0.926     0.041     2.435     2.440
    60   1 H        0.926     0.040     2.443     2.444
    61   1 H        0.926     0.051     2.306     2.375
    62   1 H        0.926     0.062     2.170     2.303
    63   1 H        0.926     0.040     2.449     2.447
    64   1 H        0.926     0.049     2.330     2.387
    65   1 H        0.926     0.041     2.432     2.438
    66   1 H        0.926     0.042     2.418     2.431
    67   1 H        0.926     0.042     2.421     2.433
    68   1 H        0.926     0.047     2.352     2.399
    69   1 H        0.926     0.048     2.346     2.395
    70   1 H        0.926     0.042     2.420     2.433
    71   1 H        0.926     0.041     2.434     2.440
    72   1 H        0.926     0.038     2.473     2.459
    73   1 H        0.926     0.053     2.281     2.362
    74   1 H        0.926     0.061     2.191     2.315

molecular dipole:
                 x           y           z       tot (Debye)
 q only:        1.350       0.221      -0.086
   full:        1.681      -0.100      -0.113       4.290

 projected vibrational frequencies (cm⁻¹)
eigval :       -0.00    -0.00    -0.00     0.00     0.00     0.00
eigval :        8.99    10.99    15.65    23.58    24.99    27.79
eigval :       36.98    48.89    53.27    58.70    62.30    68.69
eigval :       80.95   106.95   115.52   118.58   122.28   135.19
eigval :      140.33   171.44   186.65   192.72   208.12   222.66
eigval :      245.83   248.35   255.44   260.19   266.29   273.24
eigval :      290.44   325.86   348.35   356.25   371.48   374.57
eigval :      378.27   383.69   386.83   399.48   403.42   411.02
eigval :      422.61   425.84   430.54   430.64   441.83   445.25
eigval :      451.06   481.92   498.27   508.89   510.42   521.91
eigval :      522.37   529.19   540.36   549.39   551.70   567.98
eigval :      585.97   586.51   592.29   605.06   606.25   611.41
eigval :      629.77   634.26   657.53   659.59   660.68   661.26
eigval :      663.45   677.45   691.13   704.07   715.25   731.48
eigval :      739.23   778.13   778.23   778.39   779.06   795.82
eigval :      799.32   814.28   822.91   834.69   852.79   853.04
eigval :      853.49   863.08   863.52   865.11   865.95   873.13
eigval :      877.47   896.95   897.25   898.86   899.19   911.67
eigval :      912.74   913.63   914.09   915.39   915.55   916.08
eigval :      917.04   923.11   925.17   927.36   932.01   936.30
eigval :      998.14  1013.17  1055.28  1089.26  1089.59  1090.71
eigval :     1092.38  1093.27  1105.49  1105.67  1117.58  1117.88
eigval :     1129.34  1133.24  1143.64  1167.91  1169.11  1171.78
eigval :     1173.47  1180.35  1181.49  1186.73  1189.67  1197.46
eigval :     1197.66  1215.76  1219.61  1234.30  1241.16  1242.10
eigval :     1244.39  1258.73  1259.75  1262.54  1263.24  1281.27
eigval :     1297.38  1304.03  1304.23  1308.82  1311.47  1315.76
eigval :     1321.81  1332.92  1333.36  1352.42  1352.68  1381.83
eigval :     1402.50  1406.79  1419.46  1422.03  1423.68  1440.91
eigval :     1440.99  1478.26  1479.45  1480.26  1481.09  1502.04
eigval :     1503.30  1514.44  1537.96  1555.89  1557.02  1566.01
eigval :     1566.31  1578.85  1579.05  1582.90  1585.16  1588.93
eigval :     1589.96  1601.74  1602.07  2344.10  3075.31  3084.48
eigval :     3085.48  3085.84  3086.56  3087.03  3087.78  3088.81
eigval :     3088.92  3094.43  3095.32  3096.03  3096.09  3096.59
eigval :     3096.75  3103.54  3103.67  3104.65  3105.00  3105.64
eigval :     3107.04  3108.73  3108.86  3109.76  3110.35  3111.95

   temp. (K)  partition function   enthalpy   heat capacity  entropy
                                   cal/mol     cal/K/mol   cal/K/mol   J/K/mol
 298.15  VIB  0.296E+18            21935.395    138.342    136.429
         ROT  0.119E+09              888.752      2.981     39.929
         INT  0.352E+26            22824.148    141.323    176.357
         TR   0.149E+29             1481.254      4.968     45.130
         TOT                       24305.4014   146.2907   221.4870   926.7017

       T/K    H(0)-H(T)+PV         H(T)/Eh          T*S/Eh         G(T)/Eh
   ------------------------------------------------------------------------
    298.15    0.387331E-01    0.589026E+00    0.105236E+00    0.483790E+00
   ------------------------------------------------------------------------

         :::::::::::::::::::::::::::::::::::::::::::::::::::::
         ::                  THERMODYNAMIC                  ::
         :::::::::::::::::::::::::::::::::::::::::::::::::::::
         :: total free energy        -122.601674335471 Eh   ::
         ::.................................................::
         :: total energy             -123.085464216710 Eh   ::
         :: zero point energy           0.550292390848 Eh   ::
         :: G(RRHO) w/o ZPVE           -0.066502509609 Eh   ::
         :: G(RRHO) contrib.            0.483789881239 Eh   ::
         :::::::::::::::::::::::::::::::::::::::::::::::::::::

           -------------------------------------------------
          | TOTAL ENERGY             -123.085464216710 Eh   |
          | TOTAL ENTHALPY           -122.496438703218 Eh   |
          | TOTAL FREE ENERGY        -122.601674335471 Eh   |
          | GRADIENT NORM               0.000055571253 Eh/α |
          | HOMO-LUMO GAP               1.272150827567 eV   |
           -------------------------------------------------

 * finished run on 2025/07/18 at 07:07:26.599
