   * xtb version 6.7.1 (edcfbbe) compiled by 'albert@albert-system' on 2024-07-22

   ID    Z sym.   atoms
    1    7 N      1, 11, 27, 33
    2    6 C      2-10, 12-17, 19-26, 28-32, 34-39, 41-48
    3    8 O      18, 40
    4    1 H      49-74

          program call               : xtb data2507/toluene/PxCYP/PxCYP.xyz --gfn 2 --gbsa toluene --ohess vtight --parallel 40 --molden --ceasefiles --namespace data2507/toluene/PxCYP/PxCYP_toluene_S0_preOpt
      * Solvation model:               GBSA
        Solvent                        toluene
        Solvent mass                       9.2140E+01 g/mol
          :  Hamiltonian                  GFN2-xTB          :
 * total energy  :  -123.0636753 Eh     change       -0.2448942E-08 Eh
 * total energy  :  -123.0755584 Eh     change       -0.1188308E-01 Eh
 * total energy  :  -123.0793922 Eh     change       -0.3833844E-02 Eh
 * total energy  :  -123.0794832 Eh     change       -0.9095267E-04 Eh
 * total energy  :  -123.0816361 Eh     change       -0.2152910E-02 Eh
 * total energy  :  -123.0823166 Eh     change       -0.6805552E-03 Eh
 * total energy  :  -123.0827103 Eh     change       -0.3937166E-03 Eh
 * total energy  :  -123.0828837 Eh     change       -0.1733475E-03 Eh
 * total energy  :  -123.0829862 Eh     change       -0.1025241E-03 Eh
 * total energy  :  -123.0831150 Eh     change       -0.1287644E-03 Eh
 * total energy  :  -123.0849124 Eh     change       -0.4152865E-06 Eh
 * total energy  :  -123.0849128 Eh     change       -0.3915496E-06 Eh
 * total energy  :  -123.0849132 Eh     change       -0.3945081E-06 Eh
 * total energy  :  -123.0849138 Eh     change       -0.5251476E-06 Eh
 * total energy  :  -123.0849144 Eh     change       -0.5989073E-06 Eh
 * total energy  :  -123.0849147 Eh     change       -0.3866460E-06 Eh
 * total energy  :  -123.0849150 Eh     change       -0.2602884E-06 Eh
 * total energy  :  -123.0849151 Eh     change       -0.1452997E-06 Eh
 * total energy  :  -123.0849152 Eh     change       -0.5178157E-07 Eh
   *** GEOMETRY OPTIMIZATION CONVERGED AFTER 67 ITERATIONS ***

 final structure:
================
74
 xtb: 6.7.1 (edcfbbe)
N           -3.51074981863250       -5.15725245875784       -1.44463109046903
C           -2.53111728748387       -4.56079431814661       -1.37005499535535
C           -1.29654624275011       -3.89439887870394       -1.25939109607390
C           -0.11316562584956       -4.60205155825347       -1.49459767663485
C            1.10073551528541       -3.97554899300014       -1.31480432166575
C            1.12116536684365       -2.64345463681621       -0.87705842377432
C            2.35633436502878       -1.89366350185776       -0.63213752710213
C            3.62037684581931       -2.39135594048197       -0.95641388148003
C            4.75631374292710       -1.64887486012193       -0.70703384790467
C            4.66116366038811       -0.38621605793005       -0.12651418832679
N            5.82488566460345        0.36964721350090        0.12428580303399
C            6.79864941736845       -0.09868391595212        1.01052040285642
C            6.63753320329269       -1.27142925572228        1.73900822780380
C            7.62108153845010       -1.70623478824557        2.61455401471779
C            8.77719190858423       -0.97190599991775        2.78698262944405
C            8.93970365705330        0.21805553882734        2.09224088566516
C            7.96059629251670        0.65640632018475        1.21982984607971
O            8.17984539454683        1.86203783645472        0.59494777230526
C            7.20288847913359        2.31793136986741       -0.25989820375161
C            7.43447420160379        3.53146902956151       -0.88095557975029
C            6.51398065407969        4.04302509621989       -1.78428357390661
C            5.37271246043590        3.32183750434332       -2.07212457341431
C            5.13509675639955        2.10562932128552       -1.44966814582608
C            6.03093681035262        1.59411573870493       -0.51819635297591
C            3.40427392605186        0.12189141736921        0.19667382804974
C            2.27241059387786       -0.62215032710696       -0.05556616150210
N           -0.01311310042305       -1.98012172838286       -0.65388143710858
C           -1.18899675109029       -2.54880277201479       -0.84594089937033
C           -2.36593039556377       -1.71052044914371       -0.58692218624980
C           -3.49629796244084       -1.76520070694485       -1.39967663090383
C           -4.58591656005556       -0.95945839412336       -1.13649906231192
C           -4.56995189217666       -0.08978295091977       -0.04892569960903
N           -5.69017038465571        0.72153046279719        0.22873863206031
C           -5.58859053423801        2.11480636902581        0.17930043812747
C           -4.41819962604620        2.76218102393368       -0.19845853958656
C           -4.35192583534394        4.14689724139142       -0.23876994689590
C           -5.45607960372302        4.90890934476885        0.08586505486391
C           -6.64196755468587        4.27814116292386        0.43377466513566
C           -6.71271089105312        2.89786887218695        0.47421642442561
O           -7.93163997294804        2.34789851245929        0.79763478137556
C           -8.01853889188774        0.97503388546986        0.82579314406982
C           -9.24850593260636        0.43514776491089        1.15334426690423
C           -9.41061285270163       -0.94053318672095        1.23346904566436
C           -8.32908274104963       -1.76580965223523        1.00018520525792
C           -7.09384289219852       -1.22861906399804        0.66996141158532
C           -6.92150027514913        0.14579127422054        0.55543156616308
C           -3.43679236914127       -0.02290862739872        0.75925176480534
C           -2.34407715022735       -0.81782623415478        0.48451860955153
H           -0.16388645732431       -5.63586917738759       -1.80597691098106
H            2.01150974662419       -4.52131648458232       -1.49291710500444
H            3.73121679217931       -3.35654226955074       -1.42411937385570
H            5.72852455004627       -2.03934418705660       -0.96973549376419
H            5.73217616508751       -1.84672504833690        1.62723115426720
H            7.46991978097209       -2.62330338066982        3.16319355843551
H            9.54820805249922       -1.30690684194648        3.46289061292805
H            9.82127195857806        0.82708338874170        2.21782060154588
H            8.34643503123984        4.05852057235678       -0.64759261872840
H            6.70229924248100        4.99180468927845       -2.26164910146101
H            4.65631063434406        3.69583565886364       -2.78745141057410
H            4.24711525556028        1.54614168844502       -1.69759422158304
H            3.32608883348141        1.09835218416208        0.65123681669809
H            1.29735070401760       -0.23506589297481        0.19296871774108
H           -3.51613136984750       -2.41787250672732       -2.25976398535916
H           -5.45452661482351       -0.99628815379639       -1.77694837910476
H           -3.55268861284317        2.17976426329075       -0.47149772788055
H           -3.42738158622310        4.62124398227875       -0.53028604507550
H           -5.41018066025392        5.98627249059621        0.06096949629884
H           -7.52984365009037        4.84180640028149        0.67416082781162
H          -10.06692911751817        1.11071408303503        1.34739703186703
H          -10.37475049367779       -1.35273442872993        1.48644946058842
H           -8.43262717648739       -2.83744954991937        1.07540123365337
H           -6.25575892598476       -1.88740606659410        0.50530881664008
H           -3.42416563751808        0.65126124407354        1.60269550397604
H           -1.46588275504873       -0.77463270048898        1.10968216292881

          :  Hamiltonian                  GFN2-xTB          :
         :: gradient norm              0.000058761228 Eh/a0 ::
         :: HOMO-LUMO gap              1.238748146481 eV    ::
         :: SCC energy              -125.272015162756 Eh    ::
         :: -> dispersion             -0.102251266046 Eh    ::
         :: -> Gsolv                  -0.053449367255 Eh    ::
         :: repulsion energy           2.187099962456 Eh    ::

    * Orbital Energies and Occupations

         #    Occupation            Energy/Eh            Energy/eV
      -------------------------------------------------------------
         1        2.0000           -0.7312364             -19.8980
       ...           ...                  ...                  ...
       101        2.0000           -0.4208385             -11.4516
       102        2.0000           -0.4203681             -11.4388
       103        2.0000           -0.4174054             -11.3582
       104        2.0000           -0.4163400             -11.3292
       105        2.0000           -0.4158639             -11.3162
       106        2.0000           -0.4141997             -11.2709
       107        2.0000           -0.4127471             -11.2314
       108        2.0000           -0.4049611             -11.0196
       109        2.0000           -0.3920359             -10.6678
       110        2.0000           -0.3905286             -10.6268
       111        2.0000           -0.3854713             -10.4892
       112        2.0000           -0.3455673              -9.4034
       113        2.0000           -0.3440856              -9.3630 (HOMO)
       114                         -0.2985624              -8.1243 (LUMO)
       115                         -0.2769184              -7.5353
       116                         -0.2432551              -6.6193
       117                         -0.2413333              -6.5670
       118                         -0.2405389              -6.5454
       119                         -0.2390233              -6.5042
       120                         -0.2384234              -6.4878
       121                         -0.2313792              -6.2961
       122                         -0.2299012              -6.2559
       123                         -0.2267504              -6.1702
       124                         -0.2184649              -5.9447
       ...                                ...                  ...
       218                          1.1516070              31.3368
      -------------------------------------------------------------
                  HL-Gap            0.0455232 Eh            1.2388 eV

     #   Z          covCN         q      C6AA      α(0)
     1   7 N        0.911    -0.276    27.138     7.534
     2   6 C        1.909     0.118    28.208     8.577
     3   6 C        2.968    -0.007    28.202     8.711
     4   6 C        2.931    -0.007    28.193     8.708
     5   6 C        2.914    -0.046    29.146     8.853
     6   6 C        2.944     0.101    25.765     8.325
     7   6 C        2.978     0.002    27.979     8.677
     8   6 C        2.921    -0.030    28.760     8.794
     9   6 C        2.920    -0.040    28.995     8.830
    10   6 C        2.920     0.069    26.460     8.435
    11   7 N        2.751    -0.070    22.590     7.059
    12   6 C        2.921     0.042    27.054     8.530
    13   6 C        2.924    -0.061    29.506     8.908
    14   6 C        2.919    -0.039    28.971     8.827
    15   6 C        2.919    -0.041    29.015     8.833
    16   6 C        2.919    -0.058    29.439     8.897
    17   6 C        2.882     0.123    25.306     8.247
    18   8 O        1.708    -0.272    18.514     5.809
    19   6 C        2.882     0.123    25.308     8.247
    20   6 C        2.919    -0.058    29.436     8.897
    21   6 C        2.919    -0.041    29.012     8.833
    22   6 C        2.919    -0.039    28.965     8.826
    23   6 C        2.924    -0.061    29.506     8.908
    24   6 C        2.921     0.042    27.055     8.530
    25   6 C        2.919    -0.039    28.964     8.825
    26   6 C        2.926    -0.025    28.634     8.775
    27   7 N        1.856    -0.243    27.201     7.730
    28   6 C        2.948     0.104    25.692     8.313
    29   6 C        2.981     0.001    27.996     8.679
    30   6 C        2.922    -0.028    28.704     8.786
    31   6 C        2.920    -0.038    28.951     8.823
    32   6 C        2.921     0.069    26.456     8.435
    33   7 N        2.751    -0.071    22.625     7.065
    34   6 C        2.921     0.042    27.054     8.530
    35   6 C        2.924    -0.061    29.513     8.909
    36   6 C        2.919    -0.039    28.969     8.826
    37   6 C        2.919    -0.041    29.020     8.834
    38   6 C        2.919    -0.058    29.441     8.898
    39   6 C        2.882     0.122    25.311     8.248
    40   8 O        1.708    -0.272    18.514     5.809
    41   6 C        2.882     0.122    25.313     8.248
    42   6 C        2.919    -0.058    29.443     8.898
    43   6 C        2.919    -0.041    29.017     8.833
    44   6 C        2.919    -0.039    28.963     8.825
    45   6 C        2.924    -0.060    29.496     8.906
    46   6 C        2.921     0.042    27.054     8.530
    47   6 C        2.920    -0.039    28.968     8.826
    48   6 C        2.925    -0.025    28.621     8.773
    49   1 H        0.926     0.046     2.372     2.408
    50   1 H        0.926     0.054     2.268     2.355
    51   1 H        0.926     0.049     2.330     2.387
    52   1 H        0.926     0.049     2.338     2.391
    53   1 H        0.926     0.041     2.439     2.442
    54   1 H        0.926     0.041     2.432     2.439
    55   1 H        0.926     0.042     2.428     2.436
    56   1 H        0.926     0.047     2.354     2.400
    57   1 H        0.926     0.047     2.354     2.399
    58   1 H        0.926     0.042     2.424     2.435
    59   1 H        0.926     0.042     2.424     2.435
    60   1 H        0.926     0.042     2.423     2.434
    61   1 H        0.926     0.051     2.309     2.376
    62   1 H        0.926     0.067     2.122     2.278
    63   1 H        0.926     0.039     2.459     2.452
    64   1 H        0.926     0.049     2.329     2.387
    65   1 H        0.926     0.041     2.430     2.438
    66   1 H        0.926     0.042     2.417     2.431
    67   1 H        0.926     0.042     2.421     2.433
    68   1 H        0.926     0.047     2.353     2.399
    69   1 H        0.926     0.048     2.346     2.395
    70   1 H        0.926     0.042     2.421     2.433
    71   1 H        0.926     0.041     2.434     2.440
    72   1 H        0.926     0.038     2.471     2.458
    73   1 H        0.926     0.053     2.282     2.362
    74   1 H        0.926     0.058     2.226     2.333

molecular dipole:
                 x           y           z       tot (Debye)
 q only:        1.426       0.210       0.005
   full:        1.757      -0.091      -0.151       4.487

 projected vibrational frequencies (cm⁻¹)
eigval :       -0.00    -0.00     0.00     0.00     0.00     0.00
eigval :       -4.44    11.37    11.83    23.75    27.82    30.99
eigval :       39.24    47.89    50.24    56.40    58.82    63.65
eigval :       76.01   102.69   115.70   117.73   122.53   135.29
eigval :      139.77   170.50   186.16   193.38   208.22   217.17
eigval :      246.24   248.93   255.41   261.53   267.95   274.12
eigval :      291.58   323.69   346.19   357.08   371.99   372.89
eigval :      375.90   381.21   385.24   401.37   404.82   408.90
eigval :      420.72   426.77   429.66   432.02   440.22   446.51
eigval :      451.24   480.18   496.08   510.46   510.55   522.67
eigval :      522.99   528.99   540.42   548.30   550.85   568.01
eigval :      585.77   586.07   592.56   604.62   607.67   611.41
eigval :      627.17   635.30   657.78   660.05   661.22   662.54
eigval :      663.65   679.26   688.41   702.62   715.20   730.61
eigval :      740.77   776.54   777.56   777.78   780.09   795.66
eigval :      799.49   811.66   820.32   824.74   852.70   852.96
eigval :      853.12   861.80   863.76   864.82   867.85   871.33
eigval :      873.71   896.75   897.98   898.19   899.57   911.57
eigval :      912.29   913.13   914.14   914.95   915.66   915.77
eigval :      918.74   920.79   922.45   926.55   930.73   934.21
eigval :      998.02  1012.59  1055.20  1088.99  1089.56  1089.92
eigval :     1090.61  1092.43  1105.54  1105.85  1117.58  1118.08
eigval :     1128.17  1131.73  1150.20  1168.09  1170.49  1173.54
eigval :     1174.73  1180.48  1181.74  1186.67  1190.37  1197.06
eigval :     1197.65  1215.38  1220.42  1238.58  1241.09  1242.28
eigval :     1244.28  1258.14  1259.91  1261.98  1267.66  1282.09
eigval :     1296.71  1304.14  1304.22  1308.90  1311.49  1315.48
eigval :     1320.34  1332.94  1333.36  1352.57  1352.61  1383.19
eigval :     1402.43  1408.59  1418.07  1422.13  1423.30  1440.90
eigval :     1440.96  1476.24  1479.15  1480.33  1482.18  1501.73
eigval :     1503.33  1515.16  1538.04  1555.03  1557.65  1565.99
eigval :     1566.43  1578.83  1579.15  1583.28  1585.42  1589.13
eigval :     1590.32  1601.69  1602.14  2344.44  3076.21  3083.92
eigval :     3084.94  3086.82  3086.96  3087.64  3087.95  3088.07
eigval :     3088.65  3095.44  3095.61  3095.74  3096.00  3096.05
eigval :     3103.06  3103.24  3103.35  3104.33  3104.61  3105.17
eigval :     3108.70  3108.78  3109.62  3109.98  3115.51  3119.28

   temp. (K)  partition function   enthalpy   heat capacity  entropy
                                   cal/mol     cal/K/mol   cal/K/mol   J/K/mol
 298.15  VIB  0.802E+18            21980.088    138.271    137.662
         ROT  0.119E+09              888.752      2.981     39.941
         INT  0.958E+26            22868.840    141.252    177.602
         TR   0.149E+29             1481.254      4.968     45.130
         TOT                       24350.0938   146.2197   222.7321   931.9113

       T/K    H(0)-H(T)+PV         H(T)/Eh          T*S/Eh         G(T)/Eh
   ------------------------------------------------------------------------
    298.15    0.388043E-01    0.589018E+00    0.105827E+00    0.483191E+00
   ------------------------------------------------------------------------

         :::::::::::::::::::::::::::::::::::::::::::::::::::::
         ::                  THERMODYNAMIC                  ::
         :::::::::::::::::::::::::::::::::::::::::::::::::::::
         :: total free energy        -122.601724073163 Eh   ::
         ::.................................................::
         :: total energy             -123.084915198401 Eh   ::
         :: zero point energy           0.550214008146 Eh   ::
         :: G(RRHO) w/o ZPVE           -0.067022882909 Eh   ::
         :: G(RRHO) contrib.            0.483191125237 Eh   ::
         :::::::::::::::::::::::::::::::::::::::::::::::::::::

           -------------------------------------------------
          | TOTAL ENERGY             -123.084915198401 Eh   |
          | TOTAL ENTHALPY           -122.495896845769 Eh   |
          | TOTAL FREE ENERGY        -122.601724073163 Eh   |
          | GRADIENT NORM               0.000058697177 Eh/α |
          | HOMO-LUMO GAP               1.238750406397 eV   |
           -------------------------------------------------

 * finished run on 2025/07/18 at 07:02:27.032
