   * xtb version 6.7.1 (edcfbbe) compiled by 'albert@albert-system' on 2024-07-22

   ID    Z sym.   atoms
    1    6 C      1-5, 7-11, 13-27, 29-33, 35-49, 51-53, 55-66
    2    7 N      6, 12, 28, 34, 50, 54
    3    1 H      67-108

          program call               : xtb data2507/toluene/CZ-TRZ/CZ-TRZ.xyz --gfn 2 --gbsa toluene --ohess vtight --parallel 40 --molden --ceasefiles --namespace data2507/toluene/CZ-TRZ/CZ-TRZ_toluene_S0_preOpt
      * Solvation model:               GBSA
        Solvent                        toluene
        Solvent mass                       9.2140E+01 g/mol
          :  Hamiltonian                  GFN2-xTB          :
 * total energy  :  -167.6432165 Eh     change       -0.3184027E-08 Eh
 * total energy  :  -167.6622280 Eh     change       -0.1901155E-01 Eh
 * total energy  :  -167.6666569 Eh     change       -0.4428838E-02 Eh
 * total energy  :  -167.6677417 Eh     change       -0.1084836E-02 Eh
 * total energy  :  -167.6686122 Eh     change       -0.8705058E-03 Eh
 * total energy  :  -167.6690054 Eh     change       -0.3932123E-03 Eh
 * total energy  :  -167.6692071 Eh     change       -0.2016712E-03 Eh
 * total energy  :  -167.6692892 Eh     change       -0.8209360E-04 Eh
 * total energy  :  -167.6693243 Eh     change       -0.3508271E-04 Eh
 * total energy  :  -167.6693477 Eh     change       -0.2340998E-04 Eh
 * total energy  :  -167.6696145 Eh     change       -0.2629199E-06 Eh
 * total energy  :  -167.6696148 Eh     change       -0.2453615E-06 Eh
 * total energy  :  -167.6696150 Eh     change       -0.2444881E-06 Eh
 * total energy  :  -167.6696153 Eh     change       -0.2655314E-06 Eh
 * total energy  :  -167.6696156 Eh     change       -0.2925760E-06 Eh
 * total energy  :  -167.6696158 Eh     change       -0.2698232E-06 Eh
 * total energy  :  -167.6696160 Eh     change       -0.1963701E-06 Eh
 * total energy  :  -167.6696162 Eh     change       -0.1216783E-06 Eh
 * total energy  :  -167.6696162 Eh     change       -0.9551857E-07 Eh
   *** GEOMETRY OPTIMIZATION CONVERGED AFTER 88 ITERATIONS ***

 final structure:
================
108
 xtb: 6.7.1 (edcfbbe)
C           -4.14662510279144       -4.27573014187449       -0.60413224270195
C           -2.68903823429043       -4.03910722869838       -0.35506158920449
C           -2.18541625433949       -2.75025701457003       -0.29155715808894
C           -0.82531767462440       -2.50454738001259       -0.11762340174115
C           -0.32930309376859       -1.13086330945902       -0.05696653490100
N            0.98668625461275       -0.94467541993694        0.01120242767103
C            1.39381564668921        0.32135574184773        0.06750569381119
C            2.83180111363972        0.57740606105268        0.12523028801254
C            3.31381732587893        1.88349011951955        0.20126143422865
C            4.67235633098594        2.10803819483394        0.25682159691968
C            5.56763865984549        1.04065779172494        0.23490829926607
N            6.94620437265062        1.30839216931083        0.29587323140077
C            7.80638102906886        0.92352481218314        1.30254840112775
C            7.52970191618045        0.25842726828638        2.48856281321594
C            8.58256064886539        0.01346348290345        3.34979005496504
C            9.87882103029173        0.42728438436672        3.04846889876496
C           10.15358209913183        1.11643913641874        1.88344575157759
C            9.11198230977458        1.37626223277652        1.00174648611830
C            9.02087582890126        2.08005302171112       -0.24794172876692
C            9.94542761816606        2.73625043701659       -1.05091053181822
C            9.50671938940152        3.32306838864217       -2.22165072139726
C            8.16759875371800        3.25488064095547       -2.60242276493330
C            7.22925913915121        2.60447603158465       -1.82360689435693
C            7.66306901997024        2.02618575588893       -0.63949807104567
C            5.10213590544534       -0.27696415812853        0.12779533963829
C            6.05074377399798       -1.43112235082878        0.02430174128687
C            3.73321415830396       -0.48387105869208        0.08365767912844
N            0.57251550292662        1.36859670245545        0.07126007297386
C           -0.72699652479942        1.09012186994919       -0.00039262833362
C           -1.66925937281982        2.20759788184868       -0.00042559304195
C           -1.20844735853125        3.51981412737592        0.09903186298421
C           -2.11067487743088        4.56135274014887        0.11034807717815
C           -3.47894453835606        4.31417868827088        0.01924247341258
N           -4.36916680268011        5.40161592757354        0.04445058020969
C           -4.40969272665142        6.42497858965328       -0.88028492018591
C           -3.65021943256875        6.60266245926279       -2.02762569959000
C           -3.91184086509282        7.71451829783800       -2.80566055984567
C           -4.90864854666500        8.62534921999201       -2.45978844255773
C           -5.67696451194749        8.44446241725223       -1.32644616300332
C           -5.43157357292006        7.33596291814478       -0.52576443158341
C           -6.01543911400826        6.83948024067755        0.68992580983122
C           -7.02270036866802        7.29979225937102        1.52860957728258
C           -7.31497470587350        6.57886824181940        2.66989210069784
C           -6.60555019269652        5.42303942476034        2.99086087615728
C           -5.59931053782741        4.94481120722611        2.17302234393420
C           -5.32352801793451        5.64813040040530        1.00906780235217
C           -3.95798719528295        3.00402183264057       -0.11598638614793
C           -5.41806061401440        2.72308022878782       -0.29586322558262
C           -3.03721972170871        1.96911302049790       -0.11238623396556
N           -1.22154326367648       -0.14348638438162       -0.07205161824941
C            0.05750234552076       -3.57880991050618       -0.01459300479368
C           -0.42698732631988       -4.86806110864250       -0.06178015229238
C           -1.79101393288224       -5.10626455700800       -0.21670438890283
N           -2.24874660519245       -6.43455154773716       -0.25598580706081
C           -3.09994612742557       -7.02857973941570        0.65163633989857
C           -3.64721337811865       -6.50638811325808        1.81497905839980
C           -4.46318177531060       -7.32941726461403        2.56792882056727
C           -4.72166809169324       -8.64406508991202        2.18418455647912
C           -4.15256641885801       -9.17824236210457        1.04467325585442
C           -3.32883194748020       -8.37102698380264        0.27027153083751
C           -2.56205921340498       -8.59075860581804       -0.92524958294959
C           -2.38312589308271       -9.68283056851946       -1.76525180139405
C           -1.55566285464709       -9.54544010356287       -2.86249705820044
C           -0.91633611004400       -8.33700904659669       -3.13432728310232
C           -1.08022950717156       -7.23530738385142       -2.31625276362739
C           -1.90003596974021       -7.37297795779812       -1.20554701177397
H           -4.28947521738936       -5.13132139589752       -1.26174932035492
H           -4.67215182750369       -4.48474877478634        0.32705779275665
H           -4.59683338504187       -3.39793451733495       -1.06005035399703
H           -2.84898855207741       -1.90551866054760       -0.39388089098772
H            2.61262070990795        2.70212897207868        0.22269944101865
H            5.05915917243352        3.11419823626430        0.32588422532485
H            6.52247814654289       -0.04032886941057        2.73857847115726
H            8.39614258654892       -0.50452409281030        4.27944240390820
H           10.67571848689192        0.21484874329793        3.74604407839024
H           11.15504893520919        1.45456341037251        1.66276686341890
H           10.98496999818930        2.78343138878172       -0.76273083195369
H           10.20967572977642        3.84065319190231       -2.85785697520324
H            7.85709165776042        3.71892017279930       -3.52733711659968
H            6.19377042280550        2.54670033702959       -2.12527491863427
H            5.55646213458650       -2.28358533036019       -0.43403446623716
H            6.92056387256548       -1.16092882833297       -0.57176011196284
H            6.40673630433654       -1.73153946302481        1.00926983822259
H            3.34053586041144       -1.48545909608403       -0.00122562227824
H           -0.14835476618850        3.70057040043013        0.17548865815250
H           -1.76834948117197        5.58198374045684        0.19926035203635
H           -2.88166022682046        5.89540463543936       -2.30239949144246
H           -3.33272452585496        7.88048754854232       -3.70247237693952
H           -5.08223424211987        9.48254360617777       -3.09375429633568
H           -6.45444934675523        9.14689663194213       -1.06552952486835
H           -7.55914351892670        8.20686450405296        1.29333114007338
H           -8.09562397805698        6.91967061435068        3.33420103072618
H           -6.84344765998523        4.89304336923609        3.90184833431220
H           -5.03430342733111        4.06417634618249        2.44002389692185
H           -5.55776501223729        1.75965481628192       -0.77889944161326
H           -5.93133743513472        2.70051438955919        0.66488536669142
H           -5.88663966813264        3.49652005818874       -0.90157410385886
H           -3.37186031690251        0.94808223684324       -0.21204489572713
H            1.11020108790770       -3.38378361566854        0.11217569641604
H            0.24401302450841       -5.70961355524656        0.02912736475900
H           -3.42778475900211       -5.49701035089380        2.13037099151270
H           -4.90524797460990       -6.94789604723708        3.47693859700132
H           -5.36685788228101       -9.25530774119589        2.79813884360288
H           -4.33669654477908      -10.20392001764078        0.76175578990832
H           -2.88347877994369      -10.61788076743595       -1.56203990468745
H           -1.40198608329659      -10.38350530668186       -3.52643866950244
H           -0.28059528345001       -8.25971396524476       -4.00439282749776
H           -0.58956303518202       -6.29818453162297       -2.53411991665591

          :  Hamiltonian                  GFN2-xTB          :
         :: gradient norm              0.000032890068 Eh/a0 ::
         :: HOMO-LUMO gap              1.894224673057 eV    ::
         :: SCC energy              -170.741065714031 Eh    ::
         :: -> dispersion             -0.152187012951 Eh    ::
         :: -> Gsolv                  -0.072691268649 Eh    ::
         :: repulsion energy           3.071449466492 Eh    ::

    * Orbital Energies and Occupations

         #    Occupation            Energy/Eh            Energy/eV
      -------------------------------------------------------------
         1        2.0000           -0.6919626             -18.8293
       ...           ...                  ...                  ...
       144        2.0000           -0.4095568             -11.1446
       145        2.0000           -0.4090318             -11.1303
       146        2.0000           -0.4061978             -11.0532
       147        2.0000           -0.4061684             -11.0524
       148        2.0000           -0.4061335             -11.0515
       149        2.0000           -0.3825548             -10.4098
       150        2.0000           -0.3821997             -10.4002
       151        2.0000           -0.3799832             -10.3399
       152        2.0000           -0.3799808             -10.3398
       153        2.0000           -0.3799700             -10.3395
       154        2.0000           -0.3658314              -9.9548
       155        2.0000           -0.3657895              -9.9536
       156        2.0000           -0.3654854              -9.9454 (HOMO)
       157                         -0.2958739              -8.0511 (LUMO)
       158                         -0.2957549              -8.0479
       159                         -0.2564890              -6.9794
       160                         -0.2463178              -6.7026
       161                         -0.2462966              -6.7021
       162                         -0.2454446              -6.6789
       163                         -0.2375593              -6.4643
       164                         -0.2374765              -6.4621
       165                         -0.2373923              -6.4598
       166                         -0.2232251              -6.0743
       167                         -0.2232119              -6.0739
       ...                                ...                  ...
       306                          0.7431616              20.2225
      -------------------------------------------------------------
                  HL-Gap            0.0696115 Eh            1.8942 eV

     #   Z          covCN         q      C6AA      α(0)
     1   6 C        3.757    -0.112    22.696     6.792
     2   6 C        2.964     0.013    27.721     8.636
     3   6 C        2.930    -0.037    28.918     8.819
     4   6 C        2.981    -0.013    28.328     8.731
     5   6 C        2.980     0.217    23.435     7.941
     6   7 N        1.844    -0.322    29.204     8.009
     7   6 C        2.980     0.217    23.428     7.940
     8   6 C        2.982    -0.013    28.332     8.731
     9   6 C        2.922    -0.031    28.766     8.795
    10   6 C        2.920    -0.041    29.014     8.833
    11   6 C        2.917     0.061    26.642     8.464
    12   7 N        2.803    -0.042    22.046     6.974
    13   6 C        3.077     0.048    26.848     8.495
    14   6 C        2.909    -0.051    29.267     8.871
    15   6 C        2.924    -0.035    28.862     8.810
    16   6 C        2.920    -0.042    29.048     8.838
    17   6 C        2.912    -0.034    28.847     8.807
    18   6 C        3.067    -0.018    28.391     8.737
    19   6 C        3.067    -0.018    28.395     8.738
    20   6 C        2.912    -0.034    28.855     8.808
    21   6 C        2.920    -0.042    29.052     8.839
    22   6 C        2.924    -0.034    28.857     8.809
    23   6 C        2.909    -0.052    29.288     8.874
    24   6 C        3.078     0.046    26.891     8.502
    25   6 C        2.964     0.013    27.722     8.636
    26   6 C        3.757    -0.112    22.694     6.792
    27   6 C        2.930    -0.037    28.920     8.819
    28   7 N        1.844    -0.323    29.226     8.012
    29   6 C        2.980     0.217    23.432     7.940
    30   6 C        2.981    -0.013    28.332     8.731
    31   6 C        2.922    -0.031    28.765     8.795
    32   6 C        2.920    -0.041    29.014     8.833
    33   6 C        2.917     0.061    26.642     8.464
    34   7 N        2.803    -0.042    22.044     6.973
    35   6 C        3.078     0.046    26.891     8.502
    36   6 C        2.909    -0.052    29.288     8.874
    37   6 C        2.924    -0.034    28.857     8.809
    38   6 C        2.920    -0.042    29.051     8.839
    39   6 C        2.912    -0.034    28.855     8.808
    40   6 C        3.067    -0.018    28.395     8.738
    41   6 C        3.067    -0.018    28.390     8.737
    42   6 C        2.912    -0.034    28.847     8.807
    43   6 C        2.920    -0.042    29.048     8.838
    44   6 C        2.924    -0.035    28.862     8.810
    45   6 C        2.909    -0.051    29.267     8.871
    46   6 C        3.077     0.048    26.849     8.495
    47   6 C        2.964     0.013    27.722     8.636
    48   6 C        3.757    -0.112    22.697     6.792
    49   6 C        2.930    -0.037    28.922     8.820
    50   7 N        1.844    -0.321    29.178     8.005
    51   6 C        2.922    -0.031    28.766     8.795
    52   6 C        2.920    -0.041    29.015     8.833
    53   6 C        2.917     0.061    26.644     8.464
    54   7 N        2.803    -0.042    22.042     6.973
    55   6 C        3.077     0.048    26.848     8.495
    56   6 C        2.909    -0.051    29.268     8.871
    57   6 C        2.924    -0.035    28.862     8.810
    58   6 C        2.920    -0.042    29.048     8.838
    59   6 C        2.912    -0.034    28.847     8.807
    60   6 C        3.067    -0.018    28.391     8.737
    61   6 C        3.067    -0.018    28.395     8.738
    62   6 C        2.912    -0.034    28.855     8.808
    63   6 C        2.920    -0.042    29.052     8.839
    64   6 C        2.924    -0.034    28.857     8.809
    65   6 C        2.909    -0.052    29.289     8.874
    66   6 C        3.078     0.046    26.891     8.502
    67   1 H        0.925     0.053     2.284     2.363
    68   1 H        0.925     0.064     2.153     2.294
    69   1 H        0.925     0.056     2.249     2.345
    70   1 H        0.926     0.058     2.218     2.329
    71   1 H        0.926     0.055     2.260     2.351
    72   1 H        0.926     0.052     2.300     2.371
    73   1 H        0.926     0.027     2.628     2.535
    74   1 H        0.926     0.031     2.578     2.511
    75   1 H        0.926     0.029     2.599     2.521
    76   1 H        0.926     0.032     2.560     2.502
    77   1 H        0.926     0.032     2.557     2.501
    78   1 H        0.926     0.029     2.599     2.521
    79   1 H        0.926     0.031     2.579     2.511
    80   1 H        0.926     0.027     2.636     2.539
    81   1 H        0.925     0.056     2.250     2.346
    82   1 H        0.925     0.053     2.282     2.362
    83   1 H        0.925     0.064     2.155     2.296
    84   1 H        0.926     0.058     2.220     2.330
    85   1 H        0.926     0.055     2.264     2.353
    86   1 H        0.926     0.051     2.303     2.373
    87   1 H        0.926     0.027     2.634     2.538
    88   1 H        0.926     0.030     2.579     2.511
    89   1 H        0.926     0.029     2.600     2.521
    90   1 H        0.926     0.032     2.558     2.501
    91   1 H        0.926     0.032     2.560     2.502
    92   1 H        0.926     0.029     2.599     2.521
    93   1 H        0.926     0.031     2.577     2.510
    94   1 H        0.926     0.027     2.624     2.533
    95   1 H        0.925     0.056     2.245     2.343
    96   1 H        0.925     0.064     2.152     2.294
    97   1 H        0.925     0.053     2.284     2.363
    98   1 H        0.926     0.059     2.212     2.326
    99   1 H        0.926     0.055     2.256     2.349
   100   1 H        0.926     0.052     2.297     2.370
   101   1 H        0.926     0.027     2.624     2.533
   102   1 H        0.926     0.031     2.578     2.511
   103   1 H        0.926     0.029     2.601     2.522
   104   1 H        0.926     0.032     2.562     2.503
   105   1 H        0.926     0.032     2.560     2.502
   106   1 H        0.926     0.029     2.601     2.522
   107   1 H        0.926     0.031     2.579     2.511
   108   1 H        0.926     0.027     2.632     2.537

molecular dipole:
                 x           y           z       tot (Debye)
 q only:       -0.509      -0.426      -0.053
   full:       -0.426      -0.355      -0.029       1.413

 projected vibrational frequencies (cm⁻¹)
eigval :       -0.00    -0.00    -0.00     0.00     0.00     0.00
eigval :        7.49    10.73    13.06    13.79    15.14    15.40
eigval :       21.68    23.02    35.86    43.81    46.03    47.81
eigval :       51.53    52.15    55.46    84.89    86.12    90.23
eigval :       94.14    94.40    97.68   109.36   110.95   112.01
eigval :      128.55   141.74   142.79   143.09   144.21   148.38
eigval :      152.45   153.80   156.62   190.71   192.12   202.55
eigval :      213.30   215.89   221.27   222.39   228.35   234.95
eigval :      272.78   272.84   274.04   277.79   298.87   305.03
eigval :      307.94   329.12   334.52   353.13   360.11   389.34
eigval :      393.85   398.39   399.86   402.39   415.33   416.07
eigval :      418.41   420.15   422.63   424.80   428.95   431.97
eigval :      435.57   441.67   458.33   477.63   485.39   491.82
eigval :      497.70   516.82   517.57   518.00   519.86   521.30
eigval :      522.01   526.07   542.43   542.88   542.92   551.08
eigval :      556.50   562.51   570.52   581.16   583.81   584.47
eigval :      597.13   598.96   603.14   621.02   624.90   642.36
eigval :      659.93   660.50   673.93   673.97   674.15   690.89
eigval :      702.66   702.78   706.76   709.63   710.21   710.69
eigval :      711.39   714.74   755.31   755.42   755.58   766.45
eigval :      767.92   768.35   769.53   770.87   778.93   781.10
eigval :      782.51   783.00   837.35   837.75   839.72   863.91
eigval :      867.72   869.05   871.60   871.70   875.99   876.25
eigval :      882.51   885.37   888.09   897.67   897.95   898.45
eigval :      899.36   899.77   900.97   902.76   904.57   905.11
eigval :      916.85   917.88   918.89   919.71   919.90   922.00
eigval :      922.30   923.74   924.34   925.27   925.48   927.14
eigval :      970.35   974.04  1010.28  1010.86  1010.95  1012.09
eigval :     1017.12  1019.79  1029.71  1030.99  1031.13  1049.76
eigval :     1065.88  1066.24  1067.84  1069.49  1070.02  1071.05
eigval :     1091.36  1091.95  1092.04  1101.33  1130.96  1131.39
eigval :     1140.97  1147.87  1148.38  1149.45  1156.14  1159.70
eigval :     1172.01  1173.32  1174.17  1179.28  1179.86  1181.81
eigval :     1183.17  1183.97  1185.43  1206.76  1212.80  1223.74
eigval :     1224.16  1234.30  1234.46  1235.52  1235.71  1236.88
eigval :     1238.96  1243.60  1251.67  1258.02  1296.55  1297.36
eigval :     1298.20  1302.20  1302.49  1302.78  1323.17  1324.94
eigval :     1326.82  1341.84  1347.08  1350.30  1356.08  1356.45
eigval :     1358.02  1360.68  1360.76  1360.85  1369.97  1372.70
eigval :     1385.91  1402.71  1403.22  1403.92  1415.46  1416.31
eigval :     1424.25  1426.34  1426.66  1427.11  1428.02  1430.21
eigval :     1431.11  1466.68  1466.98  1468.13  1472.74  1473.25
eigval :     1473.32  1475.60  1476.30  1476.96  1485.81  1486.16
eigval :     1486.28  1487.53  1488.54  1491.82  1504.04  1506.61
eigval :     1559.91  1562.52  1565.33  1572.34  1572.45  1572.63
eigval :     1586.20  1586.82  1587.44  1589.49  1589.83  1590.51
eigval :     1597.26  1597.28  1597.30  1612.92  1612.98  1613.02
eigval :     3007.40  3007.69  3007.77  3029.93  3029.95  3031.82
eigval :     3046.73  3047.02  3048.68  3070.75  3070.98  3071.15
eigval :     3071.17  3071.28  3071.45  3075.25  3075.52  3076.10
eigval :     3076.25  3076.29  3076.93  3081.99  3082.33  3082.97
eigval :     3083.02  3083.26  3083.90  3086.34  3086.63  3087.31
eigval :     3090.09  3090.23  3090.36  3092.57  3092.78  3092.93
eigval :     3100.75  3100.86  3102.74  3111.15  3112.29  3113.22

   temp. (K)  partition function   enthalpy   heat capacity  entropy
                                   cal/mol     cal/K/mol   cal/K/mol   J/K/mol
 298.15  VIB  0.208E+27            32053.385    197.674    202.318
         ROT  0.389E+09              888.752      2.981     42.288
         INT  0.809E+35            32942.138    200.655    244.605
         TR   0.239E+29             1481.254      4.968     46.066
         TOT                       34423.3917   205.6230   290.6710  1216.1676

       T/K    H(0)-H(T)+PV         H(T)/Eh          T*S/Eh         G(T)/Eh
   ------------------------------------------------------------------------
    298.15    0.548572E-01    0.887901E+00    0.138107E+00    0.749794E+00
   ------------------------------------------------------------------------

         :::::::::::::::::::::::::::::::::::::::::::::::::::::
         ::                  THERMODYNAMIC                  ::
         :::::::::::::::::::::::::::::::::::::::::::::::::::::
         :: total free energy        -166.919822080921 Eh   ::
         ::.................................................::
         :: total energy             -167.669616248033 Eh   ::
         :: zero point energy           0.833044191194 Eh   ::
         :: G(RRHO) w/o ZPVE           -0.083250024082 Eh   ::
         :: G(RRHO) contrib.            0.749794167112 Eh   ::
         :::::::::::::::::::::::::::::::::::::::::::::::::::::

           -------------------------------------------------
          | TOTAL ENERGY             -167.669616248033 Eh   |
          | TOTAL ENTHALPY           -166.781714890308 Eh   |
          | TOTAL FREE ENERGY        -166.919822080921 Eh   |
          | GRADIENT NORM               0.000032894663 Eh/α |
          | HOMO-LUMO GAP               1.894224403659 eV   |
           -------------------------------------------------

 * finished run on 2025/08/25 at 17:42:15.055
