   * xtb version 6.7.1 (edcfbbe) compiled by 'albert@albert-system' on 2024-07-22

   ID    Z sym.   atoms
    1    6 C      1-5, 7-11, 13-27, 29-33, 35-49, 51-53, 55-66
    2    7 N      6, 12, 28, 34, 50, 54
    3    1 H      67-108

          program call               : xtb data2507/toluene/CZ-TRZ/CZ-TRZ_toluene_S0_crest.xyz --gfn 2 --gbsa toluene --ohess vtight --parallel 40 --molden --ceasefiles --namespace data2507/toluene/CZ-TRZ/CZ-TRZ_toluene_S0_finalOpt
      * Solvation model:               GBSA
        Solvent                        toluene
        Solvent mass                       9.2140E+01 g/mol
          :  Hamiltonian                  GFN2-xTB          :
 * total energy  :  -167.6694648 Eh     change       -0.2332428E-08 Eh
 * total energy  :  -167.6695061 Eh     change       -0.4127212E-04 Eh
 * total energy  :  -167.6695206 Eh     change       -0.1448821E-04 Eh
 * total energy  :  -167.6695271 Eh     change       -0.6456757E-05 Eh
 * total energy  :  -167.6695333 Eh     change       -0.6229901E-05 Eh
 * total energy  :  -167.6695354 Eh     change       -0.2102353E-05 Eh
 * total energy  :  -167.6695378 Eh     change       -0.2390289E-05 Eh
 * total energy  :  -167.6695396 Eh     change       -0.1855272E-05 Eh
 * total energy  :  -167.6695413 Eh     change       -0.1692615E-05 Eh
 * total energy  :  -167.6695427 Eh     change       -0.1367143E-05 Eh
 * total energy  :  -167.6695446 Eh     change       -0.5237351E-06 Eh
 * total energy  :  -167.6695452 Eh     change       -0.6010035E-06 Eh
 * total energy  :  -167.6695458 Eh     change       -0.5648677E-06 Eh
 * total energy  :  -167.6695463 Eh     change       -0.5616771E-06 Eh
 * total energy  :  -167.6695469 Eh     change       -0.5752450E-06 Eh
 * total energy  :  -167.6695474 Eh     change       -0.4895200E-06 Eh
 * total energy  :  -167.6695478 Eh     change       -0.3599015E-06 Eh
 * total energy  :  -167.6695481 Eh     change       -0.3099380E-06 Eh
 * total energy  :  -167.6695481 Eh     change       -0.5787541E-08 Eh
   *** GEOMETRY OPTIMIZATION CONVERGED AFTER 22 ITERATIONS ***

 final structure:
================
108
 xtb: 6.7.1 (edcfbbe)
C           -3.62765859235656       -4.85642934592780       -0.34709201196662
C           -2.19963022062787       -4.42543766234811       -0.21437560642609
C           -1.87036358876696       -3.08042417361165       -0.17307408173448
C           -0.54611207305734       -2.65370767078498       -0.10319235035533
C           -0.23478030419386       -1.22609609168888       -0.06046115210886
N            1.04643752222191       -0.86847273318419       -0.01455191692029
C            1.28483245501986        0.44016788419107        0.03041254383410
C            2.67705290238060        0.88394355331783        0.07212881336391
C            2.98174022873536        2.24252485839316        0.14527393143010
C            4.29877246620876        2.64598119102929        0.18756011735755
C            5.32744708997774        1.70703266438204        0.15637009755700
N            6.65899168537897        2.15507897357123        0.20897506199031
C            7.56339394006560        1.89827714356707        1.21750094730168
C            7.37965252680615        1.20965176165480        2.40813696756145
C            8.45575176044100        1.11692049094436        3.27038318313166
C            9.68310948240516        1.70289803247146        2.96593590315652
C            9.86203481833907        2.41401195976087        1.79547335009589
C            8.79508960666379        2.52273885873088        0.91244234232902
C            8.60886328420798        3.19860158850334       -0.34214324634442
C            9.43479861546466        3.96959136384356       -1.15057545803792
C            8.91975829604373        4.48285134513393       -2.32480835319687
C            7.60249173136604        4.22957141381529       -2.70376435640030
C            6.76199187643362        3.46255780018150       -1.91942856898885
C            7.27099342074871        2.95736166421552       -0.73184233903892
C            5.04061068467332        0.33923460592152        0.05181792080822
C            6.13503211269351       -0.67671256404592       -0.06086399237084
C            3.71108648551408       -0.04817707945395        0.02067636492788
N            0.33349806271344        1.37077462019296        0.03750276260262
C           -0.91911803461114        0.92415712922709       -0.01496185731333
C           -1.99802466238223        1.91028216104063       -0.01371897335431
C           -1.70879722742960        3.27090268219977        0.08242136304279
C           -2.73655406455460        4.18867935570154        0.09197037883426
C           -4.06205528909671        3.76842400293755        0.00292368122930
N           -5.08293784645614        4.73434824719306        0.01948423102602
C           -5.25131540987130        5.73430949062685       -0.91652526597773
C           -4.51530693010688        5.99718685116593       -2.06278166027568
C           -4.91781825784372        7.05452945225548       -2.85646533455707
C           -6.02886892969861        7.82897158512024       -2.52681078124070
C           -6.77170671347167        7.56303394201331       -1.39320201573116
C           -6.38601555172553        6.50692683122226       -0.57709773837964
C           -6.90704787348908        5.95082778280637        0.64134800898764
C           -7.97193744343654        6.28295981497687        1.46926439599981
C           -8.17586538954554        5.54025670840827        2.61575368483792
C           -7.32375873076062        4.49007214359467        2.95236036394142
C           -6.25763482321129        4.14012850867841        2.14546653623363
C           -6.06796725085003        4.86273500388838        0.97608782308463
C           -4.36991559541354        2.40722182125516       -0.12632953083176
C           -5.78232427626190        1.94132192282331       -0.30249324116160
C           -3.32438854707302        1.49842277358102       -0.12170044863253
N           -1.24896061873379       -0.36424007134365       -0.06777580715234
C            0.47842516612620       -3.59928377129998       -0.08446093845499
C            0.16948939639131       -4.94185334012801       -0.11384310647766
C           -1.15808239233958       -5.36171099002653       -0.16359607340851
N           -1.43318506404026       -6.73992600348904       -0.18684850732314
C           -2.11473806368177       -7.45159487786641        0.77779314338134
C           -2.63754010655693       -7.01581858880103        1.98710521215259
C           -3.26683972889169       -7.94873179145916        2.78949073235901
C           -3.36417091449664       -9.28612712680276        2.40972708389247
C           -2.81668778416240       -9.73077597023296        1.22225447144256
C           -2.18034562736864       -8.81211172502107        0.39708144145989
C           -1.49123291727528       -8.91685307513295       -0.85971246057364
C           -1.23116370762244       -9.96910460975744       -1.72882309823007
C           -0.53165390995464       -9.71033684071343       -2.89129234635642
C           -0.09758656686128       -8.42171255199254       -3.19790776466447
C           -0.34415712202779       -7.35810478814725       -2.35059841209985
C           -1.03518225678521       -7.61616589072167       -1.17557985026379
H           -3.70722586794165       -5.72883548705663       -0.99313740417146
H           -4.04450346500226       -5.12580221811071        0.62278597799706
H           -4.22596768067119       -4.05010737683833       -0.76280931253162
H           -2.64762602751996       -2.33276904550598       -0.20921301644265
H            2.17819871166614        2.96063410573562        0.17511458158942
H            4.54927546153713        3.69465829074809        0.25343754739228
H            6.42292440821339        0.77680391753663        2.66032447032639
H            8.34147560180318        0.58499259658399        4.20380309045660
H           10.50071082042654        1.60685497849843        3.66527026291181
H           10.80780914778708        2.88473676633184        1.57207855018845
H           10.45812357205658        4.16072352292406       -0.86381326082498
H            9.54517817748550        5.08748216202886       -2.96521659373330
H            7.23130134766117        4.64020356639838       -3.63152861269508
H            5.74393408820158        3.26205706684637       -2.21929744298449
H            5.75112021417788       -1.59656443254255       -0.49377612098130
H            6.94466036013183       -0.30033567342658       -0.68375666153950
H            6.55354944952562       -0.90773646765794        0.91818042203940
H            3.45441858839630       -1.09319265953329       -0.06042403756021
H           -0.68035893457995        3.58567736943012        0.15670726948664
H           -2.52716242988043        5.24494633902461        0.17702119349103
H           -3.65835955283655        5.39471524627467       -2.32547933025103
H           -4.36094041279497        7.28416364053549       -3.75332703539254
H           -6.31183343071841        8.64632731605393       -3.17396069630081
H           -7.63668257942075        8.15957940232189       -1.14445267736080
H           -8.62083867441275        7.10958841248886        1.22127700397411
H           -8.99915710664041        5.78210974041220        3.27190359945922
H           -7.49674550327549        3.94207561072188        3.86728396062359
H           -5.58431039716594        3.34336820449059        2.42468747109087
H           -5.79855147609197        0.96513265454264       -0.77982797333138
H           -6.28792210405598        1.85944592688296        0.65909208089382
H           -6.34601452362332        2.64514276316290       -0.91208624939997
H           -3.52607809171132        0.44284597795217       -0.21925347649235
H            1.50211821991997       -3.26442943860569       -0.03870219598714
H            0.95269072656013       -5.68535710787406       -0.09010409006765
H           -2.54117313762563       -5.98617542497898        2.29825318543790
H           -3.68692670194045       -7.63614786026811        3.73454588452791
H           -3.86534318119352       -9.98471863170538        3.06362213925974
H           -2.87474398937095      -10.77152640306109        0.94048285272939
H           -1.57335365331328      -10.96703171129339       -1.49859109462737
H           -0.31849101164877      -10.51574724447519       -3.57883360453735
H            0.44102913819857       -8.25064898165687       -4.11866050945196
H           -0.01374705284319       -6.35912880598919       -2.59442661641492

          :  Hamiltonian                  GFN2-xTB          :
         :: gradient norm              0.000050507712 Eh/a0 ::
         :: HOMO-LUMO gap              1.892762409100 eV    ::
         :: SCC energy              -170.741063793165 Eh    ::
         :: -> dispersion             -0.152173540931 Eh    ::
         :: -> Gsolv                  -0.072626489721 Eh    ::
         :: repulsion energy           3.071515708324 Eh    ::

    * Orbital Energies and Occupations

         #    Occupation            Energy/Eh            Energy/eV
      -------------------------------------------------------------
         1        2.0000           -0.6919980             -18.8302
       ...           ...                  ...                  ...
       144        2.0000           -0.4095873             -11.1454
       145        2.0000           -0.4090382             -11.1305
       146        2.0000           -0.4062087             -11.0535
       147        2.0000           -0.4061527             -11.0520
       148        2.0000           -0.4061137             -11.0509
       149        2.0000           -0.3825865             -10.4107
       150        2.0000           -0.3822346             -10.4011
       151        2.0000           -0.3799985             -10.3403
       152        2.0000           -0.3799780             -10.3397
       153        2.0000           -0.3799373             -10.3386
       154        2.0000           -0.3658336              -9.9548
       155        2.0000           -0.3657638              -9.9529
       156        2.0000           -0.3654753              -9.9451 (HOMO)
       157                         -0.2959176              -8.0523 (LUMO)
       158                         -0.2958443              -8.0503
       159                         -0.2565277              -6.9805
       160                         -0.2463097              -6.7024
       161                         -0.2462884              -6.7018
       162                         -0.2454526              -6.6791
       163                         -0.2375743              -6.4647
       164                         -0.2375040              -6.4628
       165                         -0.2374056              -6.4601
       166                         -0.2232399              -6.0747
       167                         -0.2232104              -6.0739
       ...                                ...                  ...
       306                          0.7431882              20.2232
      -------------------------------------------------------------
                  HL-Gap            0.0695577 Eh            1.8928 eV

     #   Z          covCN         q      C6AA      α(0)
     1   6 C        3.757    -0.112    22.697     6.792
     2   6 C        2.964     0.013    27.721     8.636
     3   6 C        2.930    -0.037    28.920     8.819
     4   6 C        2.981    -0.013    28.329     8.731
     5   6 C        2.980     0.217    23.436     7.941
     6   7 N        1.844    -0.322    29.202     8.009
     7   6 C        2.980     0.217    23.428     7.940
     8   6 C        2.982    -0.013    28.330     8.731
     9   6 C        2.922    -0.031    28.765     8.795
    10   6 C        2.920    -0.041    29.011     8.833
    11   6 C        2.917     0.061    26.642     8.464
    12   7 N        2.803    -0.042    22.048     6.974
    13   6 C        3.077     0.048    26.847     8.495
    14   6 C        2.909    -0.051    29.270     8.871
    15   6 C        2.924    -0.035    28.863     8.810
    16   6 C        2.920    -0.042    29.049     8.838
    17   6 C        2.912    -0.034    28.847     8.807
    18   6 C        3.067    -0.018    28.391     8.737
    19   6 C        3.067    -0.018    28.395     8.738
    20   6 C        2.912    -0.034    28.855     8.808
    21   6 C        2.920    -0.042    29.053     8.839
    22   6 C        2.924    -0.034    28.857     8.809
    23   6 C        2.909    -0.052    29.289     8.874
    24   6 C        3.078     0.046    26.890     8.502
    25   6 C        2.964     0.013    27.719     8.636
    26   6 C        3.757    -0.112    22.695     6.792
    27   6 C        2.930    -0.037    28.918     8.819
    28   7 N        1.844    -0.323    29.225     8.012
    29   6 C        2.980     0.217    23.432     7.940
    30   6 C        2.981    -0.013    28.332     8.731
    31   6 C        2.922    -0.031    28.765     8.795
    32   6 C        2.920    -0.041    29.014     8.833
    33   6 C        2.917     0.061    26.642     8.464
    34   7 N        2.803    -0.042    22.044     6.973
    35   6 C        3.078     0.046    26.892     8.502
    36   6 C        2.909    -0.052    29.288     8.874
    37   6 C        2.924    -0.034    28.857     8.809
    38   6 C        2.920    -0.042    29.051     8.839
    39   6 C        2.912    -0.034    28.855     8.808
    40   6 C        3.067    -0.018    28.394     8.738
    41   6 C        3.068    -0.018    28.390     8.737
    42   6 C        2.912    -0.034    28.847     8.807
    43   6 C        2.920    -0.042    29.047     8.838
    44   6 C        2.924    -0.035    28.862     8.810
    45   6 C        2.909    -0.051    29.266     8.871
    46   6 C        3.077     0.048    26.849     8.495
    47   6 C        2.964     0.013    27.722     8.636
    48   6 C        3.757    -0.112    22.697     6.792
    49   6 C        2.930    -0.037    28.920     8.819
    50   7 N        1.844    -0.321    29.177     8.005
    51   6 C        2.922    -0.031    28.766     8.795
    52   6 C        2.920    -0.041    29.013     8.833
    53   6 C        2.917     0.061    26.643     8.464
    54   7 N        2.803    -0.042    22.044     6.973
    55   6 C        3.077     0.048    26.849     8.495
    56   6 C        2.909    -0.051    29.268     8.871
    57   6 C        2.924    -0.035    28.862     8.810
    58   6 C        2.920    -0.042    29.048     8.838
    59   6 C        2.912    -0.034    28.847     8.807
    60   6 C        3.068    -0.018    28.391     8.737
    61   6 C        3.067    -0.018    28.395     8.738
    62   6 C        2.912    -0.034    28.855     8.808
    63   6 C        2.920    -0.042    29.052     8.839
    64   6 C        2.924    -0.034    28.857     8.809
    65   6 C        2.909    -0.052    29.288     8.874
    66   6 C        3.078     0.046    26.891     8.502
    67   1 H        0.925     0.053     2.283     2.363
    68   1 H        0.925     0.064     2.153     2.295
    69   1 H        0.925     0.056     2.247     2.344
    70   1 H        0.926     0.059     2.215     2.327
    71   1 H        0.926     0.055     2.259     2.350
    72   1 H        0.926     0.052     2.300     2.372
    73   1 H        0.926     0.027     2.631     2.536
    74   1 H        0.926     0.031     2.579     2.511
    75   1 H        0.926     0.029     2.599     2.521
    76   1 H        0.926     0.032     2.560     2.502
    77   1 H        0.926     0.032     2.558     2.501
    78   1 H        0.926     0.029     2.599     2.521
    79   1 H        0.926     0.030     2.579     2.512
    80   1 H        0.926     0.026     2.638     2.540
    81   1 H        0.925     0.056     2.252     2.347
    82   1 H        0.925     0.053     2.279     2.361
    83   1 H        0.925     0.064     2.155     2.296
    84   1 H        0.926     0.058     2.221     2.331
    85   1 H        0.926     0.055     2.263     2.353
    86   1 H        0.926     0.051     2.302     2.373
    87   1 H        0.926     0.027     2.634     2.538
    88   1 H        0.926     0.030     2.579     2.511
    89   1 H        0.926     0.029     2.600     2.521
    90   1 H        0.926     0.032     2.558     2.501
    91   1 H        0.926     0.032     2.561     2.502
    92   1 H        0.926     0.029     2.599     2.521
    93   1 H        0.926     0.031     2.576     2.510
    94   1 H        0.926     0.027     2.623     2.533
    95   1 H        0.925     0.056     2.246     2.343
    96   1 H        0.925     0.064     2.152     2.294
    97   1 H        0.925     0.053     2.285     2.364
    98   1 H        0.926     0.059     2.214     2.327
    99   1 H        0.926     0.055     2.254     2.348
   100   1 H        0.926     0.052     2.298     2.371
   101   1 H        0.926     0.027     2.624     2.533
   102   1 H        0.926     0.031     2.578     2.511
   103   1 H        0.926     0.029     2.601     2.522
   104   1 H        0.926     0.032     2.562     2.503
   105   1 H        0.926     0.032     2.560     2.502
   106   1 H        0.926     0.029     2.601     2.522
   107   1 H        0.926     0.031     2.579     2.511
   108   1 H        0.926     0.027     2.634     2.538

molecular dipole:
                 x           y           z       tot (Debye)
 q only:       -0.463      -0.486      -0.024
   full:       -0.390      -0.406      -0.005       1.431

 projected vibrational frequencies (cm⁻¹)
eigval :       -0.00    -0.00     0.00     0.00     0.00     0.00
eigval :       -6.43     6.16    11.55    12.13    13.00    13.30
eigval :       20.33    21.32    33.54    41.56    46.04    48.12
eigval :       49.62    50.56    54.19    76.32    82.75    84.21
eigval :       93.93    94.38    97.72   107.32   108.82   109.40
eigval :      128.07   139.84   140.87   142.16   142.77   147.60
eigval :      150.64   151.61   155.68   189.86   192.29   202.71
eigval :      213.00   214.42   220.80   221.83   227.79   234.42
eigval :      270.21   272.14   272.21   277.27   297.82   305.15
eigval :      308.24   328.09   335.16   352.24   359.85   389.36
eigval :      392.55   396.49   398.34   401.52   415.16   416.35
eigval :      418.53   419.63   421.74   423.88   427.72   431.77
eigval :      435.76   441.72   457.78   477.95   485.40   491.34
eigval :      496.19   516.84   517.52   518.00   519.50   521.10
eigval :      521.61   526.06   540.65   541.63   541.85   551.06
eigval :      556.22   562.61   569.58   581.18   583.42   584.61
eigval :      597.17   598.56   603.11   621.01   624.94   642.39
eigval :      658.84   659.89   672.60   673.03   673.89   691.09
eigval :      702.47   702.54   706.06   709.23   709.46   710.47
eigval :      711.12   714.61   755.31   755.36   755.60   764.88
eigval :      767.23   768.87   769.17   772.99   778.85   780.17
eigval :      780.61   784.13   836.40   837.15   838.90   860.65
eigval :      864.01   869.40   870.76   874.56   874.83   877.78
eigval :      882.70   885.21   888.18   895.84   897.73   897.89
eigval :      898.50   901.71   901.94   903.71   903.91   908.01
eigval :      916.72   917.77   917.90   919.37   920.55   921.17
eigval :      922.08   922.28   923.27   925.06   927.14   927.57
eigval :      970.26   974.24  1010.27  1010.78  1010.89  1011.88
eigval :     1017.02  1019.89  1030.00  1030.83  1031.40  1049.69
eigval :     1066.16  1066.43  1066.86  1069.94  1070.69  1070.84
eigval :     1091.44  1091.76  1091.93  1101.35  1129.90  1132.05
eigval :     1140.23  1148.26  1149.26  1149.32  1156.22  1159.43
eigval :     1173.44  1173.71  1174.35  1180.07  1181.17  1181.76
eigval :     1183.00  1184.21  1185.32  1206.29  1213.08  1224.13
eigval :     1224.40  1234.85  1235.05  1235.11  1235.92  1236.88
eigval :     1239.08  1243.88  1252.06  1257.98  1297.33  1297.77
eigval :     1298.24  1302.47  1302.64  1303.08  1323.07  1324.99
eigval :     1326.81  1341.61  1346.99  1350.27  1356.13  1356.81
eigval :     1358.05  1360.69  1360.78  1360.99  1369.73  1372.90
eigval :     1385.73  1403.02  1403.98  1404.50  1415.34  1416.23
eigval :     1424.39  1426.66  1426.89  1427.08  1428.34  1430.27
eigval :     1431.24  1466.31  1467.40  1467.66  1472.90  1473.09
eigval :     1473.37  1475.65  1476.43  1476.82  1485.90  1486.38
eigval :     1486.51  1487.54  1488.43  1491.66  1503.63  1506.57
eigval :     1559.93  1562.40  1565.30  1572.39  1572.47  1572.63
eigval :     1586.22  1586.82  1587.45  1589.55  1589.84  1590.57
eigval :     1597.18  1597.28  1597.32  1612.86  1612.96  1613.05
eigval :     3006.59  3007.49  3007.81  3028.77  3030.53  3030.61
eigval :     3047.82  3048.36  3048.40  3070.22  3070.74  3070.96
eigval :     3071.14  3071.35  3071.71  3075.09  3075.47  3075.49
eigval :     3076.24  3076.27  3076.93  3082.11  3082.19  3082.20
eigval :     3083.01  3083.13  3083.79  3086.08  3086.48  3086.64
eigval :     3090.07  3090.12  3090.23  3092.62  3092.68  3092.92
eigval :     3100.66  3102.16  3102.35  3111.39  3112.57  3113.29

   temp. (K)  partition function   enthalpy   heat capacity  entropy
                                   cal/mol     cal/K/mol   cal/K/mol   J/K/mol
 298.15  VIB  0.134E+28            32154.346    197.482    204.434
         ROT  0.389E+09              888.752      2.981     42.289
         INT  0.521E+36            33043.098    200.463    246.722
         TR   0.239E+29             1481.254      4.968     46.066
         TOT                       34524.3522   205.4310   292.7880  1225.0250

       T/K    H(0)-H(T)+PV         H(T)/Eh          T*S/Eh         G(T)/Eh
   ------------------------------------------------------------------------
    298.15    0.550181E-01    0.887833E+00    0.139113E+00    0.748720E+00
   ------------------------------------------------------------------------

         :::::::::::::::::::::::::::::::::::::::::::::::::::::
         ::                  THERMODYNAMIC                  ::
         :::::::::::::::::::::::::::::::::::::::::::::::::::::
         :: total free energy        -166.920827985517 Eh   ::
         ::.................................................::
         :: total energy             -167.669548082770 Eh   ::
         :: zero point energy           0.832815072208 Eh   ::
         :: G(RRHO) w/o ZPVE           -0.084094974955 Eh   ::
         :: G(RRHO) contrib.            0.748720097253 Eh   ::
         :::::::::::::::::::::::::::::::::::::::::::::::::::::

           -------------------------------------------------
          | TOTAL ENERGY             -167.669548082770 Eh   |
          | TOTAL ENTHALPY           -166.781714953358 Eh   |
          | TOTAL FREE ENERGY        -166.920827985517 Eh   |
          | GRADIENT NORM               0.000050507857 Eh/α |
          | HOMO-LUMO GAP               1.892761916779 eV   |
           -------------------------------------------------

 * finished run on 2025/08/25 at 17:50:41.295
