   * xtb version 6.7.1 (edcfbbe) compiled by 'albert@albert-system' on 2024-07-22

   ID    Z sym.   atoms
    1    6 C      1-5, 7-11, 13-27, 29-33, 35-49, 51-53, 55-66
    2    7 N      6, 12, 28, 34, 50, 54
    3    1 H      67-108

          program call               : xtb data2507/toluene/CZ-TRZ/CZ-TRZ_toluene_T1_crest.xyz --gfn 2 --uhf 2 --gbsa toluene --ohess vtight --parallel 40 --molden --ceasefiles --namespace data2507/toluene/CZ-TRZ/CZ-TRZ_toluene_T1_finalOpt
      * Solvation model:               GBSA
        Solvent                        toluene
        Solvent mass                       9.2140E+01 g/mol
          :  Hamiltonian                  GFN2-xTB          :
 * total energy  :  -167.5908991 Eh     change       -0.2186619E-07 Eh
 * total energy  :  -167.5910100 Eh     change       -0.1109256E-03 Eh
 * total energy  :  -167.5910478 Eh     change       -0.3772635E-04 Eh
 * total energy  :  -167.5910528 Eh     change       -0.5039353E-05 Eh
 * total energy  :  -167.5910576 Eh     change       -0.4802162E-05 Eh
 * total energy  :  -167.5910622 Eh     change       -0.4594543E-05 Eh
 * total energy  :  -167.5910665 Eh     change       -0.4288607E-05 Eh
 * total energy  :  -167.5910706 Eh     change       -0.4060089E-05 Eh
 * total energy  :  -167.5910742 Eh     change       -0.3671487E-05 Eh
 * total energy  :  -167.5910772 Eh     change       -0.2942278E-05 Eh
 * total energy  :  -167.5910966 Eh     change       -0.1206907E-06 Eh
 * total energy  :  -167.5910968 Eh     change       -0.1823911E-06 Eh
 * total energy  :  -167.5910971 Eh     change       -0.2367234E-06 Eh
 * total energy  :  -167.5910973 Eh     change       -0.2450299E-06 Eh
 * total energy  :  -167.5910975 Eh     change       -0.1877814E-06 Eh
 * total energy  :  -167.5910976 Eh     change       -0.1404761E-06 Eh
 * total energy  :  -167.5910978 Eh     change       -0.1269470E-06 Eh
 * total energy  :  -167.5910977 Eh     change        0.7808998E-07 Eh
 * total energy  :  -167.5910978 Eh     change       -0.7748946E-07 Eh
   *** GEOMETRY OPTIMIZATION CONVERGED AFTER 45 ITERATIONS ***

 final structure:
================
108
 xtb: 6.7.1 (edcfbbe)
C           -3.78111662753364       -4.75007796225862       -0.37702647208353
C           -2.34064856134035       -4.35925250416404       -0.23673522207191
C           -1.96619976015761       -3.03069410084730       -0.20673379902688
C           -0.62278062695698       -2.64153441227197       -0.12492048264470
C           -0.26761229630461       -1.24230404801097       -0.08675220124803
N            1.02558179260650       -0.90806014096236       -0.02283905270043
C            1.32517626295179        0.39532700568437        0.03023460309861
C            2.71204499869799        0.79142014668629        0.07503675565174
C            3.06679026392648        2.14690722440614        0.11857932319987
C            4.39128905528162        2.51102669052109        0.15975618157419
C            5.39383203984889        1.54023410908170        0.15912865605714
N            6.74131395097293        1.95133759561396        0.20649893963834
C            7.61400077534179        1.74683678700401        1.24956220675553
C            7.38736803630485        1.13733182013459        2.47679695977308
C            8.44409881511990        1.06900987418028        3.36516843393775
C            9.69279271762260        1.60102655397933        3.04922650094951
C            9.91646981189576        2.23138070831635        1.83785735677796
C            8.87186379777353        2.31220702095024        0.92860390138152
C            8.73094974355483        2.89498280265309       -0.37965022402177
C            9.59106411462289        3.57815361599334       -1.22697983412000
C            9.11177491814726        4.00575922257485       -2.45275180138679
C            7.79650890575737        3.75592946416946       -2.84003822259639
C            6.92012534048085        3.07662409353973       -2.01470660274144
C            7.39409725731761        2.65448873640171       -0.77949856110715
C            5.06504528010276        0.17761538708470        0.08968323743245
C            6.13621593755392       -0.86899998838845        0.02047431384421
C            3.72965095860851       -0.17159243629110        0.05620534053571
N            0.38389072511194        1.34838467979748        0.04588127542073
C           -0.89177374965087        0.95730826670808       -0.03679653141135
C           -1.92652853701885        1.96588393937545       -0.03632202135484
C           -1.60049942886090        3.32399973609463        0.07628065029706
C           -2.59598772834504        4.27158394334113        0.08988788670179
C           -3.93588919320590        3.89460379146177       -0.01181706955475
N           -4.92876616213778        4.89403757086176        0.01335701488386
C           -5.09086283853105        5.87999748214874       -0.93310002065901
C           -4.37408751785764        6.10008443792421       -2.10199556116534
C           -4.75738417840813        7.16201328082253       -2.89956632668860
C           -5.82903032840192        7.98184815961884       -2.55074500614446
C           -6.55244656529441        7.76012416959505       -1.39215550832446
C           -6.18599769973167        6.70201680950520       -0.57323408817242
C           -6.69008531345961        6.18181112028645        0.67006055058844
C           -7.71784711576695        6.55811708627916        1.52245025027148
C           -7.91367154993575        5.83259159020888        2.68425718916655
C           -7.09098241805562        4.75543145856474        3.00802081261459
C           -6.06041387229277        4.36107408350264        2.17545866683698
C           -5.87639382463106        5.06971327717627        0.99520080403616
C           -4.28553055059902        2.54334063897398       -0.15764761811215
C           -5.71532780430332        2.13173615976107       -0.34184401268934
C           -3.27374882045067        1.60326126483750       -0.15776828473792
N           -1.24830417607232       -0.32990571352585       -0.11695819511765
C            0.36582280648734       -3.63403953137332       -0.08488160692020
C            0.00946777174508       -4.96152500298050       -0.10408312411209
C           -1.33374110050749       -5.33443865184286       -0.16536308858163
N           -1.66381187530078       -6.70467541810222       -0.17334192192311
C           -2.32956258406735       -7.38054464750801        0.82240243506281
C           -2.78214035832214       -6.91230374642526        2.04923089843320
C           -3.41944955959286       -7.81075971656172        2.88423669765413
C           -3.59516862405559       -9.14346492937735        2.51670502784233
C           -3.12295425250027       -9.62056596210171        1.30668987288783
C           -2.47929925256351       -8.73858697276402        0.45090122369837
C           -1.85376509145425       -8.87605701672334       -0.83782815634520
C           -1.67543485749074       -9.93755428489050       -1.71303528708950
C           -1.01025768985607       -9.70870480085665       -2.90474066788243
C           -0.53072528188438       -8.44154678504528       -3.23142839058577
C           -0.69751242251404       -7.36719134103281       -2.37782795927066
C           -1.35570731623252       -7.59454307776319       -1.17637668032979
H           -3.89310968009699       -5.54127421229539       -1.11717773905905
H           -4.17818720636900       -5.12214135853302        0.56693482729140
H           -4.37451697146426       -3.89323227483169       -0.68457590984864
H           -2.71471931196919       -2.25453065313448       -0.25887127348622
H            2.28393649475266        2.88899156056625        0.12369563372868
H            4.67345563870999        3.55337509808832        0.20203713743229
H            6.41430907942428        0.74355339718539        2.72978589715639
H            8.29801984267025        0.59817520275975        4.32624028548832
H           10.49470557658587        1.52636314624076        3.76873062238495
H           10.88130128549328        2.65601321145569        1.60518409768156
H           10.61266156396022        3.76945797924026       -0.93519976534328
H            9.76635342058201        4.54014633090842       -3.12529366854912
H            7.45552191435563        4.09860127039680       -3.80588507404991
H            5.90229152681128        2.87774329878077       -2.31539974687767
H            5.72186484783901       -1.80722061559784       -0.33891047589131
H            6.93682755135665       -0.55645345704243       -0.64833428912949
H            6.57440962699252       -1.04188336360448        1.00313275212820
H            3.44158084814663       -1.21057048943734        0.00011717238318
H           -0.56225087923272        3.60417885385113        0.16096515688486
H           -2.35456247418232        5.32015012305839        0.18992068904108
H           -3.54759902548342        5.46106653163089       -2.37467385717295
H           -4.21632053550313        7.35929952857018       -3.81328601331217
H           -6.09833178337342        8.80155198875458       -3.20034539652498
H           -7.38517763194610        8.39490837022022       -1.12957248535357
H           -8.34671325957683        7.40269574268918        1.28458919321235
H           -8.70995936238743        6.10922027889539        3.35939353360980
H           -7.25900557512434        4.22089265857551        3.93144304557095
H           -5.40992740606707        3.54032890580208        2.43828005851435
H           -5.76606179742796        1.13390693259631       -0.76954543162008
H           -6.24353619319214        2.12230543644166        0.61115507956414
H           -6.23402478110254        2.82609176008180       -1.00100815195565
H           -3.50731325912304        0.55504352348783       -0.26801406573761
H            1.40093069655707       -3.33548170019386       -0.03079628030313
H            0.76433096671434       -5.73364941943377       -0.06160797789163
H           -2.62796679879262       -5.88442535205468        2.34232193530844
H           -3.78468532954695       -7.47434613314214        3.84344919691523
H           -4.10037761323614       -9.81478126077877        3.19524419010089
H           -3.24712641347499      -10.65784878428367        1.03470277734138
H           -2.04991657878664      -10.92006297397261       -1.46848534067699
H           -0.86074788919103      -10.52320439836282       -3.59798490354180
H           -0.02056641303822       -8.29579135478636       -4.17217457570719
H           -0.33179266954637       -6.38355334302573       -2.63184527868998

          :  Hamiltonian                  GFN2-xTB          :
         :: gradient norm              0.000054757396 Eh/a0 ::
         :: HOMO-LUMO gap              0.004668827000 eV    ::
         :: SCC energy              -170.650994355437 Eh    ::
         :: -> dispersion             -0.152010284366 Eh    ::
         :: -> Gsolv                  -0.075252316373 Eh    ::
         :: repulsion energy           3.059896589830 Eh    ::

    * Orbital Energies and Occupations

         #    Occupation            Energy/Eh            Energy/eV
      -------------------------------------------------------------
         1        2.0000           -0.6826444             -18.5757
       ...           ...                  ...                  ...
       145        2.0000           -0.4059486             -11.0464
       146        2.0000           -0.4005763             -10.9002
       147        2.0000           -0.3990381             -10.8584
       148        2.0000           -0.3984231             -10.8416
       149        2.0000           -0.3847998             -10.4709
       150        2.0000           -0.3847883             -10.4706
       151        2.0000           -0.3847853             -10.4705
       152        1.9662           -0.3702844             -10.0760
       153        1.9610           -0.3701425             -10.0721
       154        1.8762           -0.3689582             -10.0399
       155        1.6054           -0.3675053             -10.0003
       156        1.5912           -0.3674494              -9.9988
       157        0.5226           -0.2817248              -7.6661 (HOMO)
       158        0.4774           -0.2815530              -7.6614 (LUMO)
       159                         -0.2517023              -6.8492
       160                         -0.2504156              -6.8142
       161                         -0.2504057              -6.8139
       162                         -0.2455336              -6.6813
       163                         -0.2285869              -6.2202
       164                         -0.2285405              -6.2189
       165                         -0.2285152              -6.2182
       166                         -0.2262848              -6.1575
       167                         -0.2258278              -6.1451
       168                         -0.2256385              -6.1399
       ...                                ...                  ...
       306                          0.7388773              20.1059
      -------------------------------------------------------------
                  HL-Gap            0.0001717 Eh            0.0047 eV

     #   Z          covCN         q      C6AA      α(0)
     1   6 C        3.757    -0.109    22.637     6.783
     2   6 C        2.963     0.009    27.809     8.650
     3   6 C        2.929    -0.045    29.110     8.848
     4   6 C        2.979    -0.015    28.385     8.739
     5   6 C        2.937     0.196    23.829     8.006
     6   7 N        1.844    -0.315    29.018     7.983
     7   6 C        2.936     0.196    23.841     8.008
     8   6 C        2.979    -0.016    28.394     8.741
     9   6 C        2.922    -0.039    28.963     8.825
    10   6 C        2.918    -0.043    29.056     8.839
    11   6 C        2.917     0.042    27.048     8.528
    12   7 N        2.803    -0.025    21.726     6.923
    13   6 C        3.081     0.049    26.812     8.489
    14   6 C        2.909    -0.045    29.125     8.849
    15   6 C        2.923    -0.033    28.819     8.804
    16   6 C        2.920    -0.037    28.929     8.820
    17   6 C        2.912    -0.031    28.778     8.797
    18   6 C        3.067    -0.015    28.321     8.726
    19   6 C        3.066    -0.015    28.327     8.727
    20   6 C        2.912    -0.031    28.784     8.797
    21   6 C        2.920    -0.037    28.931     8.820
    22   6 C        2.923    -0.033    28.813     8.803
    23   6 C        2.909    -0.046    29.138     8.851
    24   6 C        3.082     0.047    26.849     8.495
    25   6 C        2.962     0.009    27.811     8.650
    26   6 C        3.757    -0.109    22.631     6.783
    27   6 C        2.929    -0.045    29.116     8.849
    28   7 N        1.845    -0.317    29.057     7.989
    29   6 C        2.936     0.198    23.805     8.002
    30   6 C        2.980    -0.015    28.382     8.739
    31   6 C        2.922    -0.038    28.948     8.823
    32   6 C        2.918    -0.042    29.056     8.839
    33   6 C        2.917     0.043    27.025     8.525
    34   7 N        2.803    -0.025    21.728     6.923
    35   6 C        3.081     0.047    26.853     8.495
    36   6 C        2.909    -0.046    29.141     8.852
    37   6 C        2.923    -0.033    28.813     8.803
    38   6 C        2.920    -0.037    28.931     8.820
    39   6 C        2.912    -0.031    28.785     8.798
    40   6 C        3.066    -0.015    28.327     8.727
    41   6 C        3.067    -0.015    28.321     8.726
    42   6 C        2.912    -0.031    28.779     8.797
    43   6 C        2.920    -0.037    28.929     8.820
    44   6 C        2.923    -0.033    28.820     8.804
    45   6 C        2.909    -0.045    29.127     8.850
    46   6 C        3.080     0.049    26.816     8.490
    47   6 C        2.963     0.009    27.807     8.649
    48   6 C        3.757    -0.109    22.638     6.784
    49   6 C        2.929    -0.044    29.103     8.847
    50   7 N        1.844    -0.318    29.089     7.993
    51   6 C        2.922    -0.039    28.958     8.825
    52   6 C        2.918    -0.043    29.056     8.839
    53   6 C        2.917     0.043    27.041     8.527
    54   7 N        2.803    -0.025    21.724     6.922
    55   6 C        3.081     0.049    26.813     8.489
    56   6 C        2.909    -0.046    29.130     8.850
    57   6 C        2.923    -0.033    28.821     8.804
    58   6 C        2.920    -0.037    28.930     8.820
    59   6 C        2.912    -0.031    28.778     8.797
    60   6 C        3.067    -0.015    28.320     8.726
    61   6 C        3.066    -0.015    28.326     8.727
    62   6 C        2.912    -0.031    28.784     8.797
    63   6 C        2.920    -0.037    28.931     8.820
    64   6 C        2.923    -0.033    28.813     8.803
    65   6 C        2.909    -0.046    29.140     8.852
    66   6 C        3.081     0.047    26.849     8.495
    67   1 H        0.925     0.049     2.335     2.389
    68   1 H        0.925     0.057     2.229     2.335
    69   1 H        0.925     0.050     2.317     2.380
    70   1 H        0.926     0.046     2.366     2.405
    71   1 H        0.926     0.043     2.415     2.430
    72   1 H        0.926     0.041     2.429     2.437
    73   1 H        0.926     0.032     2.552     2.498
    74   1 H        0.926     0.036     2.508     2.476
    75   1 H        0.926     0.036     2.508     2.476
    76   1 H        0.926     0.038     2.473     2.459
    77   1 H        0.926     0.038     2.471     2.458
    78   1 H        0.926     0.036     2.507     2.476
    79   1 H        0.926     0.036     2.507     2.476
    80   1 H        0.926     0.032     2.557     2.501
    81   1 H        0.925     0.050     2.318     2.381
    82   1 H        0.925     0.049     2.338     2.391
    83   1 H        0.925     0.057     2.231     2.336
    84   1 H        0.926     0.045     2.378     2.411
    85   1 H        0.926     0.043     2.410     2.428
    86   1 H        0.926     0.042     2.421     2.433
    87   1 H        0.926     0.032     2.554     2.499
    88   1 H        0.926     0.036     2.508     2.476
    89   1 H        0.926     0.036     2.508     2.477
    90   1 H        0.926     0.038     2.472     2.459
    91   1 H        0.926     0.038     2.475     2.460
    92   1 H        0.926     0.036     2.509     2.477
    93   1 H        0.926     0.036     2.507     2.476
    94   1 H        0.926     0.033     2.548     2.496
    95   1 H        0.925     0.051     2.310     2.377
    96   1 H        0.925     0.058     2.222     2.331
    97   1 H        0.925     0.049     2.338     2.391
    98   1 H        0.926     0.047     2.360     2.402
    99   1 H        0.926     0.043     2.409     2.427
   100   1 H        0.926     0.042     2.423     2.434
   101   1 H        0.926     0.032     2.551     2.498
   102   1 H        0.926     0.036     2.509     2.477
   103   1 H        0.926     0.035     2.510     2.477
   104   1 H        0.926     0.038     2.474     2.460
   105   1 H        0.926     0.038     2.473     2.459
   106   1 H        0.926     0.036     2.509     2.477
   107   1 H        0.926     0.036     2.507     2.476
   108   1 H        0.926     0.032     2.553     2.499

molecular dipole:
                 x           y           z       tot (Debye)
 q only:       -0.410      -0.371       0.011
   full:       -0.345      -0.309       0.018       1.177

 projected vibrational frequencies (cm⁻¹)
eigval :       -0.00    -0.00    -0.00    -0.00     0.00     0.00
eigval :       -2.29     4.14     7.74    10.21    12.92    14.16
eigval :       21.49    22.46    35.41    38.29    39.98    43.98
eigval :       48.77    52.36    53.26    79.67    85.63    89.73
eigval :       90.90    93.33   100.01   104.43   106.25   108.77
eigval :      123.23   137.10   137.59   139.32   142.26   144.20
eigval :      149.67   155.86   161.60   193.16   197.94   201.31
eigval :      204.82   208.71   216.44   217.15   222.92   231.58
eigval :      264.90   268.88   270.06   270.27   279.35   306.99
eigval :      311.48   323.08   326.66   341.63   351.19   380.95
eigval :      382.84   387.30   393.38   395.46   397.50   410.84
eigval :      411.36   413.75   419.47   420.47   421.46   426.15
eigval :      430.88   433.24   444.89   451.34   461.53   476.23
eigval :      477.05   513.26   515.39   515.44   517.46   517.82
eigval :      520.00   521.38   536.76   538.17   538.38   549.90
eigval :      553.15   556.03   563.09   565.75   575.65   581.20
eigval :      583.21   585.38   591.32   593.37   594.32   599.46
eigval :      603.95   623.67   625.14   640.05   669.59   672.68
eigval :      673.43   674.10   682.41   683.73   694.30   694.95
eigval :      701.28   706.61   708.03   709.17   711.90   737.69
eigval :      742.36   754.25   754.74   755.05   766.08   766.85
eigval :      769.46   776.20   778.49   779.09   819.83   820.55
eigval :      823.13   852.40   863.38   865.95   867.23   867.70
eigval :      868.68   869.66   871.20   872.25   873.13   894.54
eigval :      894.66   895.11   899.59   900.29   901.41   901.83
eigval :      904.36   904.46   908.39   909.49   911.49   913.82
eigval :      914.89   916.58   919.07   920.29   921.21   921.24
eigval :      924.01   924.51   951.89   956.88   978.81  1009.45
eigval :     1009.64  1009.75  1011.99  1017.25  1020.47  1030.80
eigval :     1031.57  1032.20  1063.77  1064.37  1065.30  1066.67
eigval :     1067.48  1068.48  1078.79  1089.19  1090.05  1095.22
eigval :     1127.41  1128.11  1136.08  1141.28  1141.79  1142.22
eigval :     1149.29  1153.94  1171.09  1171.61  1173.06  1178.12
eigval :     1178.91  1179.63  1180.00  1180.99  1181.83  1207.06
eigval :     1216.26  1218.15  1231.03  1231.54  1231.58  1232.41
eigval :     1234.42  1235.61  1238.61  1242.17  1245.92  1277.44
eigval :     1290.52  1290.53  1290.97  1291.23  1291.32  1291.59
eigval :     1311.14  1322.34  1330.13  1332.80  1333.40  1339.95
eigval :     1344.11  1344.22  1344.46  1352.62  1354.34  1358.81
eigval :     1363.51  1364.73  1384.86  1403.04  1404.36  1405.59
eigval :     1410.38  1412.07  1412.31  1412.70  1418.52  1426.23
eigval :     1427.90  1428.83  1432.33  1462.02  1462.10  1462.35
eigval :     1467.83  1470.46  1473.38  1475.13  1475.95  1477.42
eigval :     1477.56  1478.83  1481.87  1482.05  1482.29  1485.74
eigval :     1523.45  1523.64  1525.88  1562.61  1562.81  1563.41
eigval :     1563.85  1564.04  1580.43  1580.47  1580.72  1580.83
eigval :     1581.01  1581.65  1584.93  1597.37  1600.17  1604.95
eigval :     3002.15  3004.12  3004.26  3020.30  3022.16  3022.98
eigval :     3046.97  3047.53  3048.75  3075.65  3075.73  3076.15
eigval :     3076.17  3076.33  3076.50  3076.72  3077.07  3077.20
eigval :     3080.11  3080.39  3080.76  3081.16  3081.70  3081.97
eigval :     3086.81  3086.90  3087.16  3087.89  3088.71  3088.80
eigval :     3089.14  3090.66  3092.06  3093.78  3093.89  3094.23
eigval :     3094.39  3094.87  3096.28  3100.42  3100.86  3102.17

   temp. (K)  partition function   enthalpy   heat capacity  entropy
                                   cal/mol     cal/K/mol   cal/K/mol   J/K/mol
 298.15  VIB  0.175E+29            32756.784    201.418    209.296
         ROT  0.391E+09              888.752      2.981     42.295
         INT  0.685E+37            33645.536    204.399    251.591
         TR   0.239E+29             1481.254      4.968     46.066
         TOT                       35126.7904   209.3668   297.6565  1245.3950

       T/K    H(0)-H(T)+PV         H(T)/Eh          T*S/Eh         G(T)/Eh
   ------------------------------------------------------------------------
    298.15    0.559781E-01    0.880555E+00    0.141426E+00    0.739129E+00
   ------------------------------------------------------------------------

         :::::::::::::::::::::::::::::::::::::::::::::::::::::
         ::                  THERMODYNAMIC                  ::
         :::::::::::::::::::::::::::::::::::::::::::::::::::::
         :: total free energy        -166.851968571189 Eh   ::
         ::.................................................::
         :: total energy             -167.591097770741 Eh   ::
         :: zero point energy           0.824577326579 Eh   ::
         :: G(RRHO) w/o ZPVE           -0.085448127027 Eh   ::
         :: G(RRHO) contrib.            0.739129199552 Eh   ::
         :::::::::::::::::::::::::::::::::::::::::::::::::::::

           -------------------------------------------------
          | TOTAL ENERGY             -167.591097770741 Eh   |
          | TOTAL ENTHALPY           -166.710542340572 Eh   |
          | TOTAL FREE ENERGY        -166.851968571189 Eh   |
          | GRADIENT NORM               0.000050308609 Eh/α |
          | HOMO-LUMO GAP               0.004673541238 eV   |
           -------------------------------------------------

 * finished run on 2025/08/25 at 18:05:57.173
