   * xtb version 6.7.1 (edcfbbe) compiled by 'albert@albert-system' on 2024-07-22

   ID    Z sym.   atoms
    1    6 C      1-5, 7-11, 13-27, 29-33, 35-49, 51-53, 55-66
    2    7 N      6, 12, 28, 34, 50, 54
    3    1 H      67-108

          program call               : xtb data2507/toluene/CZ-TRZ/CZ-TRZ_toluene_S0_finalOpt.xtbopt.xyz --gfn 2 --uhf 2 --gbsa toluene --ohess vtight --parallel 40 --molden --ceasefiles --namespace data2507/toluene/CZ-TRZ/CZ-TRZ_toluene_T1_preOpt
      * Solvation model:               GBSA
        Solvent                        toluene
        Solvent mass                       9.2140E+01 g/mol
          :  Hamiltonian                  GFN2-xTB          :
 * total energy  :  -167.5892429 Eh     change       -0.6018553E-08 Eh
 * total energy  :  -167.5905569 Eh     change       -0.1314075E-02 Eh
 * total energy  :  -167.5909594 Eh     change       -0.4024916E-03 Eh
 * total energy  :  -167.5909819 Eh     change       -0.2247598E-04 Eh
 * total energy  :  -167.5910011 Eh     change       -0.1923659E-04 Eh
 * total energy  :  -167.5910080 Eh     change       -0.6912593E-05 Eh
 * total energy  :  -167.5910237 Eh     change       -0.1561348E-04 Eh
 * total energy  :  -167.5910299 Eh     change       -0.6264682E-05 Eh
 * total energy  :  -167.5910408 Eh     change       -0.1084081E-04 Eh
 * total energy  :  -167.5910478 Eh     change       -0.7022724E-05 Eh
 * total energy  :  -167.5911082 Eh     change       -0.4863233E-06 Eh
 * total energy  :  -167.5911085 Eh     change       -0.3252965E-06 Eh
 * total energy  :  -167.5911088 Eh     change       -0.2813771E-06 Eh
 * total energy  :  -167.5911090 Eh     change       -0.2743789E-06 Eh
 * total energy  :  -167.5911093 Eh     change       -0.2890718E-06 Eh
 * total energy  :  -167.5911096 Eh     change       -0.2974429E-06 Eh
 * total energy  :  -167.5911099 Eh     change       -0.2864948E-06 Eh
 * total energy  :  -167.5911102 Eh     change       -0.2505964E-06 Eh
 * total energy  :  -167.5911102 Eh     change       -0.1647268E-07 Eh
   *** GEOMETRY OPTIMIZATION CONVERGED AFTER 56 ITERATIONS ***

 final structure:
================
108
 xtb: 6.7.1 (edcfbbe)
C           -3.62455827534560       -4.86894827923993       -0.39664040521716
C           -2.19901789700577       -4.42711383698380       -0.25499656766010
C           -1.87308961428633       -3.08592006419591       -0.21435183074034
C           -0.54450991571572       -2.64916589792156       -0.13134251457068
C           -0.23761825861182       -1.23906057882319       -0.08246793581610
N            1.04365601110144       -0.86289711079614       -0.01276428751844
C            1.30091534926195        0.44891255356388        0.04912458439845
C            2.67470576044707        0.88766603952674        0.09849662309163
C            2.98841061176858        2.25283337725801        0.15137994918074
C            4.30155670540587        2.65633424308830        0.19400581889998
C            5.33259773603872        1.71611480069586        0.18588535056371
N            6.66784919728577        2.16585005686972        0.23221737864141
C            7.54837905530938        1.98207345739056        1.27240883250574
C            7.33979445439031        1.36780103397569        2.50050747786106
C            8.40065721228657        1.32434664402205        3.38552694870277
C            9.63565461686222        1.88507138759425        3.06538703200315
C            9.84099349988483        2.51960113817573        1.85293639729726
C            8.79187491806256        2.57599970781429        0.94703520309398
C            8.63338780301982        3.15417557735197       -0.36126960777035
C            9.47525158808660        3.85498855773951       -1.21252669429159
C            8.98233822263936        4.27013894039811       -2.43720442741339
C            7.67151547502153        3.99088149004262       -2.81946779629111
C            6.81327932118501        3.29334650535323       -1.99024477269338
C            7.30103641106168        2.88283025007044       -0.75649220964688
C            5.04496570248827        0.34455975032648        0.10875568901084
C            6.14790329700787       -0.66790769634996        0.03173756509443
C            3.72080242546585       -0.04434878532109        0.07367443981164
N            0.32906178550441        1.37087234211616        0.06819172359885
C           -0.93288051011140        0.93855635443035       -0.02037670439708
C           -2.00019239274947        1.91277918329774       -0.01773693898639
C           -1.71982325551873        3.27961067218836        0.11075668383664
C           -2.74590288693031        4.19403831616101        0.12391508305187
C           -4.07163610796191        3.77444731998317        0.00565774465010
N           -5.09694300482515        4.74069245428167        0.02765013530786
C           -5.28312401918481        5.72537824804205       -0.91564372594211
C           -4.56246737870218        5.97550650064110       -2.07605338616867
C           -4.97391548457149        7.02748606615083       -2.87276366167073
C           -6.07654959454795        7.80838109237956       -2.53125741867761
C           -6.80372831535172        7.55637273902996       -1.38120400339210
C           -6.40962467904163        6.50736159617627       -0.56338379159222
C           -6.90887796597870        5.96298116783420        0.67155157262715
C           -7.95894414747153        6.29777103127213        1.51402242646450
C           -8.14262276530231        5.55851795923068        2.66915753748775
C           -7.28651817629632        4.50877538002967        2.99634118283355
C           -6.23331908612958        4.15580330449789        2.17358410233594
C           -6.06078186547895        4.87778045156804        0.99969468590452
C           -4.37559784461861        2.41389364626320       -0.15527235504004
C           -5.78950633449425        1.95806142143959       -0.35678762322447
C           -3.33363946354970        1.50738178981277       -0.15451479504877
N           -1.24750751334924       -0.35896806508714       -0.10928272830223
C            0.47960880129812       -3.60546853789138       -0.10118317762399
C            0.17181095440717       -4.94460232267374       -0.13113458020035
C           -1.15726271313156       -5.36546325175111       -0.19324957315331
N           -1.43495455529295       -6.74690460939519       -0.21381876304850
C           -2.07100612868120       -7.45959832945841        0.77567510687634
C           -2.54901420133068       -7.02128382243241        2.00390671978506
C           -3.14541469504117       -7.95433722235772        2.83118837666194
C           -3.25557366895067       -9.29172850997463        2.45519748322748
C           -2.75754854067414       -9.73812005091233        1.24383527130005
C           -2.15513364630576       -8.82086186375380        0.39519546007396
C           -1.51978404741621       -8.92060865734057       -0.89223366602007
C           -1.28754669389772       -9.96694440539596       -1.77302121979623
C           -0.62989545558341       -9.69908491724550       -2.96082187736103
C           -0.21206035365946       -8.40813033763315       -3.27902564191659
C           -0.43292669461359       -7.34833258952308       -2.41955289282068
C           -1.08249656091944       -7.61482675832970       -1.22141935720296
H           -3.70659577420812       -5.67100519546436       -1.12890266293771
H           -4.01231102363465       -5.24472965138769        0.54974591349243
H           -4.24592983131983       -4.03602869991173       -0.71455637929840
H           -2.64944496273720       -2.33707915971984       -0.25901649456642
H            2.18358072525376        2.97096871676514        0.16163996365051
H            4.55248056290704        3.70636425750911        0.24258213350660
H            6.37702756181557        0.95119085237028        2.75648626265722
H            8.26864337041124        0.85041694181314        4.34711803313071
H           10.44131879070391        1.82921023651672        3.78238320241963
H           10.79512034141576        2.96604747257683        1.61692716102477
H           10.49327970670888        4.06954217593044       -0.92444876314233
H            9.62255721682174        4.81788874885691       -3.11281932196905
H            7.31958390127800        4.32480650273969       -3.78447850385664
H            5.79906663570165        3.07138453908031       -2.28703811130372
H            5.75724169362970       -1.62428219467454       -0.30552946475659
H            6.92308488984545       -0.33910843568854       -0.65907018959297
H            6.61309169376584       -0.81134542907149        1.00668640948311
H            3.46384937460751       -1.09111791374574        0.01126960656403
H           -0.69212385109471        3.59273165938204        0.20758695441171
H           -2.53985768486557        5.24892387353518        0.23581798296380
H           -3.71169918586563        5.36658768777740       -2.34296009640150
H           -4.43085018336011        7.24747219217456       -3.78009330744544
H           -6.36711353274329        8.62151260379484       -3.17995636251779
H           -7.66066402316225        8.16072560321974       -1.12471229736057
H           -8.61458719291580        7.12095630011846        1.27353206558209
H           -8.95577185601449        5.80297702145295        3.33653972859756
H           -7.44652142633173        3.96287405065280        3.91453407744022
H           -5.55758744614305        3.35648206152674        2.43881025374775
H           -5.80424542854766        0.96217625874115       -0.79175399652232
H           -6.32670539446657        1.92532081932374        0.59070011796325
H           -6.32334181164003        2.64029118233470       -1.01658463621929
H           -3.53170639061033        0.45319058610458       -0.27669338256783
H            1.50314672514403       -3.26955653981589       -0.04637652812718
H            0.95437497312004       -5.68904902309601       -0.09661327766243
H           -2.44424743916018       -5.98927718169296        2.30417030078648
H           -3.52942760723958       -7.64180647089692        3.79115387543875
H           -3.72972102391885       -9.99076188274969        3.12814141262862
H           -2.83064983454265      -10.77851807548240        0.96529156981627
H           -1.61382995942413      -10.96815631396005       -1.53526020005895
H           -0.43850866390071      -10.50146221993159       -3.65789557350708
H            0.29320973146573       -8.23225782634639       -4.21727696876804
H           -0.11536750878838       -6.34625013178961       -2.66652682813394

          :  Hamiltonian                  GFN2-xTB          :
         :: gradient norm              0.000101717248 Eh/a0 ::
         :: HOMO-LUMO gap              0.004897648228 eV    ::
         :: SCC energy              -170.651011970936 Eh    ::
         :: -> dispersion             -0.152015556716 Eh    ::
         :: -> Gsolv                  -0.075264744525 Eh    ::
         :: repulsion energy           3.059901783889 Eh    ::

    * Orbital Energies and Occupations

         #    Occupation            Energy/Eh            Energy/eV
      -------------------------------------------------------------
         1        2.0000           -0.6826451             -18.5757
       ...           ...                  ...                  ...
       145        2.0000           -0.4059622             -11.0468
       146        2.0000           -0.4005871             -10.9005
       147        2.0000           -0.3990061             -10.8575
       148        2.0000           -0.3984248             -10.8417
       149        2.0000           -0.3848240             -10.4716
       150        2.0000           -0.3847868             -10.4706
       151        2.0000           -0.3847789             -10.4704
       152        1.9663           -0.3702887             -10.0761
       153        1.9608           -0.3701386             -10.0720
       154        1.8760           -0.3689571             -10.0398
       155        1.6050           -0.3675046             -10.0003
       156        1.5918           -0.3674522              -9.9989
       157        0.5237           -0.2817264              -7.6662 (HOMO)
       158        0.4763           -0.2815463              -7.6613 (LUMO)
       159                         -0.2517000              -6.8491
       160                         -0.2504233              -6.8144
       161                         -0.2504038              -6.8138
       162                         -0.2455370              -6.6814
       163                         -0.2285847              -6.2201
       164                         -0.2285649              -6.2196
       165                         -0.2285074              -6.2180
       166                         -0.2262973              -6.1579
       167                         -0.2258403              -6.1454
       168                         -0.2256096              -6.1391
       ...                                ...                  ...
       306                          0.7388611              20.1054
      -------------------------------------------------------------
                  HL-Gap            0.0001801 Eh            0.0049 eV

     #   Z          covCN         q      C6AA      α(0)
     1   6 C        3.757    -0.109    22.637     6.783
     2   6 C        2.962     0.009    27.809     8.650
     3   6 C        2.929    -0.045    29.111     8.848
     4   6 C        2.979    -0.015    28.386     8.739
     5   6 C        2.937     0.196    23.831     8.006
     6   7 N        1.844    -0.315    29.010     7.982
     7   6 C        2.936     0.196    23.841     8.008
     8   6 C        2.979    -0.016    28.395     8.741
     9   6 C        2.922    -0.039    28.963     8.825
    10   6 C        2.918    -0.042    29.055     8.839
    11   6 C        2.917     0.042    27.049     8.529
    12   7 N        2.803    -0.025    21.726     6.923
    13   6 C        3.081     0.049    26.812     8.489
    14   6 C        2.909    -0.045    29.127     8.850
    15   6 C        2.923    -0.033    28.819     8.804
    16   6 C        2.920    -0.037    28.929     8.820
    17   6 C        2.912    -0.031    28.778     8.797
    18   6 C        3.067    -0.015    28.321     8.726
    19   6 C        3.066    -0.015    28.327     8.727
    20   6 C        2.912    -0.031    28.784     8.797
    21   6 C        2.920    -0.037    28.931     8.820
    22   6 C        2.923    -0.033    28.813     8.803
    23   6 C        2.909    -0.046    29.138     8.851
    24   6 C        3.082     0.047    26.848     8.494
    25   6 C        2.962     0.009    27.811     8.650
    26   6 C        3.757    -0.109    22.631     6.783
    27   6 C        2.929    -0.045    29.115     8.849
    28   7 N        1.845    -0.317    29.063     7.990
    29   6 C        2.937     0.198    23.803     8.001
    30   6 C        2.980    -0.015    28.381     8.739
    31   6 C        2.922    -0.038    28.948     8.823
    32   6 C        2.918    -0.042    29.055     8.839
    33   6 C        2.917     0.043    27.025     8.525
    34   7 N        2.803    -0.025    21.729     6.923
    35   6 C        3.081     0.047    26.853     8.495
    36   6 C        2.909    -0.046    29.141     8.852
    37   6 C        2.923    -0.033    28.813     8.803
    38   6 C        2.920    -0.037    28.932     8.821
    39   6 C        2.912    -0.031    28.785     8.798
    40   6 C        3.066    -0.015    28.327     8.727
    41   6 C        3.067    -0.015    28.321     8.726
    42   6 C        2.912    -0.031    28.779     8.797
    43   6 C        2.920    -0.037    28.929     8.820
    44   6 C        2.923    -0.033    28.820     8.804
    45   6 C        2.909    -0.045    29.127     8.850
    46   6 C        3.080     0.049    26.815     8.490
    47   6 C        2.963     0.009    27.807     8.649
    48   6 C        3.757    -0.109    22.638     6.784
    49   6 C        2.929    -0.044    29.103     8.847
    50   7 N        1.844    -0.318    29.093     7.994
    51   6 C        2.922    -0.039    28.958     8.825
    52   6 C        2.918    -0.043    29.057     8.839
    53   6 C        2.918     0.043    27.041     8.527
    54   7 N        2.803    -0.025    21.722     6.922
    55   6 C        3.081     0.049    26.814     8.489
    56   6 C        2.909    -0.045    29.129     8.850
    57   6 C        2.923    -0.033    28.820     8.804
    58   6 C        2.920    -0.037    28.929     8.820
    59   6 C        2.912    -0.031    28.778     8.797
    60   6 C        3.067    -0.015    28.320     8.726
    61   6 C        3.066    -0.015    28.327     8.727
    62   6 C        2.912    -0.031    28.784     8.797
    63   6 C        2.920    -0.037    28.931     8.820
    64   6 C        2.923    -0.033    28.813     8.803
    65   6 C        2.909    -0.046    29.139     8.851
    66   6 C        3.082     0.047    26.850     8.495
    67   1 H        0.925     0.049     2.336     2.390
    68   1 H        0.925     0.058     2.228     2.334
    69   1 H        0.925     0.050     2.316     2.380
    70   1 H        0.926     0.046     2.366     2.406
    71   1 H        0.926     0.043     2.415     2.430
    72   1 H        0.926     0.042     2.428     2.437
    73   1 H        0.926     0.032     2.553     2.498
    74   1 H        0.926     0.036     2.508     2.477
    75   1 H        0.926     0.036     2.508     2.476
    76   1 H        0.926     0.038     2.473     2.459
    77   1 H        0.926     0.038     2.471     2.458
    78   1 H        0.926     0.036     2.507     2.476
    79   1 H        0.926     0.036     2.508     2.476
    80   1 H        0.926     0.032     2.558     2.501
    81   1 H        0.925     0.050     2.320     2.382
    82   1 H        0.925     0.049     2.336     2.390
    83   1 H        0.925     0.057     2.232     2.336
    84   1 H        0.926     0.045     2.378     2.411
    85   1 H        0.926     0.043     2.410     2.428
    86   1 H        0.926     0.042     2.421     2.433
    87   1 H        0.926     0.032     2.554     2.499
    88   1 H        0.926     0.036     2.508     2.477
    89   1 H        0.926     0.036     2.508     2.477
    90   1 H        0.926     0.038     2.472     2.459
    91   1 H        0.926     0.038     2.475     2.460
    92   1 H        0.926     0.036     2.509     2.477
    93   1 H        0.926     0.036     2.507     2.476
    94   1 H        0.926     0.033     2.548     2.496
    95   1 H        0.925     0.051     2.310     2.377
    96   1 H        0.925     0.058     2.222     2.331
    97   1 H        0.925     0.049     2.338     2.391
    98   1 H        0.926     0.047     2.359     2.402
    99   1 H        0.926     0.043     2.408     2.427
   100   1 H        0.926     0.042     2.424     2.435
   101   1 H        0.926     0.033     2.549     2.497
   102   1 H        0.926     0.036     2.508     2.477
   103   1 H        0.926     0.036     2.509     2.477
   104   1 H        0.926     0.038     2.474     2.460
   105   1 H        0.926     0.038     2.473     2.459
   106   1 H        0.926     0.036     2.508     2.477
   107   1 H        0.926     0.036     2.507     2.476
   108   1 H        0.926     0.032     2.553     2.499

molecular dipole:
                 x           y           z       tot (Debye)
 q only:       -0.398      -0.401      -0.003
   full:       -0.335      -0.335       0.006       1.204

 projected vibrational frequencies (cm⁻¹)
eigval :       -0.00    -0.00     0.00     0.00     0.00     0.00
eigval :       -4.91     1.57     6.58     8.39    12.36    13.82
eigval :       20.93    22.65    32.96    36.65    39.79    42.70
eigval :       48.10    51.05    53.40    77.83    84.67    89.81
eigval :       90.78    92.97    96.34   104.37   105.52   106.42
eigval :      123.70   136.17   138.13   139.75   142.28   144.35
eigval :      149.27   154.67   161.44   191.76   197.54   199.88
eigval :      205.72   209.19   215.76   217.24   223.40   231.19
eigval :      263.67   268.53   270.24   270.57   281.54   306.29
eigval :      310.32   322.03   326.89   342.13   351.46   380.73
eigval :      384.54   386.15   394.42   395.34   397.08   409.77
eigval :      411.00   413.36   420.50   420.90   421.55   425.36
eigval :      430.63   431.94   444.38   448.83   458.64   473.51
eigval :      476.76   512.27   515.29   515.41   516.86   518.24
eigval :      520.19   521.21   536.79   537.82   538.40   550.69
eigval :      552.80   555.93   565.53   565.83   575.38   581.60
eigval :      583.07   586.45   591.35   593.21   594.80   599.93
eigval :      603.59   623.86   624.44   640.08   668.91   673.22
eigval :      673.69   674.15   681.09   682.41   694.88   694.95
eigval :      701.46   706.88   708.52   709.33   712.15   737.63
eigval :      742.51   754.22   754.58   754.80   766.01   768.46
eigval :      770.58   778.18   778.39   780.42   819.28   819.85
eigval :      822.13   852.50   865.28   866.14   866.87   868.01
eigval :      870.64   871.98   872.61   872.82   875.67   894.50
eigval :      894.63   895.06   899.01   901.87   902.00   903.06
eigval :      904.25   908.13   908.16   908.76   910.93   913.45
eigval :      914.86   916.08   921.13   921.28   921.92   922.10
eigval :      924.19   924.79   952.12   957.07   978.77  1009.30
eigval :     1009.57  1009.66  1010.94  1014.17  1019.35  1029.82
eigval :     1030.24  1030.98  1063.25  1064.27  1065.08  1066.60
eigval :     1067.37  1068.43  1078.53  1089.72  1089.98  1095.12
eigval :     1127.64  1129.32  1136.59  1140.01  1141.99  1142.53
eigval :     1149.20  1154.03  1171.15  1171.70  1172.75  1177.73
eigval :     1179.15  1179.21  1179.57  1181.03  1182.02  1207.07
eigval :     1216.64  1218.27  1230.66  1231.62  1231.64  1232.09
eigval :     1234.44  1235.58  1238.55  1241.98  1245.66  1277.64
eigval :     1290.37  1290.58  1290.78  1291.16  1291.75  1291.77
eigval :     1311.11  1322.56  1329.83  1332.67  1333.17  1340.03
eigval :     1344.17  1344.19  1344.44  1352.72  1354.66  1358.78
eigval :     1363.63  1364.73  1385.06  1403.31  1403.86  1404.57
eigval :     1410.35  1411.95  1412.26  1412.87  1418.49  1426.28
eigval :     1427.98  1428.79  1432.27  1461.94  1462.17  1462.35
eigval :     1467.53  1470.35  1473.13  1474.98  1475.31  1476.96
eigval :     1477.51  1478.12  1481.84  1482.06  1482.24  1485.45
eigval :     1523.29  1523.77  1525.69  1562.63  1562.80  1563.42
eigval :     1563.83  1563.87  1580.34  1580.46  1580.73  1580.85
eigval :     1581.05  1581.70  1584.89  1597.65  1599.86  1604.83
eigval :     3003.21  3004.10  3004.29  3020.77  3020.95  3023.06
eigval :     3046.13  3047.73  3048.02  3075.49  3075.74  3075.76
eigval :     3075.89  3076.04  3076.11  3076.64  3076.97  3077.06
eigval :     3079.71  3079.80  3080.32  3080.84  3081.48  3081.72
eigval :     3086.24  3086.45  3087.24  3087.49  3088.45  3088.66
eigval :     3090.40  3090.98  3091.59  3093.63  3093.65  3094.06
eigval :     3094.16  3094.59  3096.03  3100.35  3101.30  3102.67

   temp. (K)  partition function   enthalpy   heat capacity  entropy
                                   cal/mol     cal/K/mol   cal/K/mol   J/K/mol
 298.15  VIB  0.437E+29            32791.275    201.254    210.196
         ROT  0.391E+09              888.752      2.981     42.295
         INT  0.171E+38            33680.028    204.235    252.491
         TR   0.239E+29             1481.254      4.968     46.066
         TOT                       35161.2817   209.2035   298.5571  1249.1627

       T/K    H(0)-H(T)+PV         H(T)/Eh          T*S/Eh         G(T)/Eh
   ------------------------------------------------------------------------
    298.15    0.560331E-01    0.880538E+00    0.141854E+00    0.738684E+00
   ------------------------------------------------------------------------

         :::::::::::::::::::::::::::::::::::::::::::::::::::::
         ::                  THERMODYNAMIC                  ::
         :::::::::::::::::::::::::::::::::::::::::::::::::::::
         :: total free energy        -166.852426580686 Eh   ::
         ::.................................................::
         :: total energy             -167.591110182276 Eh   ::
         :: zero point energy           0.824504626749 Eh   ::
         :: G(RRHO) w/o ZPVE           -0.085821025160 Eh   ::
         :: G(RRHO) contrib.            0.738683601589 Eh   ::
         :::::::::::::::::::::::::::::::::::::::::::::::::::::

           -------------------------------------------------
          | TOTAL ENERGY             -167.591110182276 Eh   |
          | TOTAL ENTHALPY           -166.710572486480 Eh   |
          | TOTAL FREE ENERGY        -166.852426580686 Eh   |
          | GRADIENT NORM               0.000102030469 Eh/α |
          | HOMO-LUMO GAP               0.004899871346 eV   |
           -------------------------------------------------

 * finished run on 2025/08/25 at 17:51:00.720
