   * xtb version 6.7.1 (edcfbbe) compiled by 'albert@albert-system' on 2024-07-22

   ID    Z sym.   atoms
    1    6 C      1-7, 9, 10, 12-23, 25-35
    2    7 N      8, 11, 24
    3    1 H      36-58

          program call               : xtb data2507/gas/DPA-DPQ/DPA-DPQ_gas_S0_crest.xyz --gfn 2 --ohess vtight --parallel 40 --molden --ceasefiles --namespace data2507/gas/DPA-DPQ/DPA-DPQ_gas_S0_finalOpt
          :  Hamiltonian                  GFN2-xTB          :
 * total energy  :   -89.0165552 Eh     change       -0.3538432E-08 Eh
 * total energy  :   -89.0165562 Eh     change       -0.1022996E-05 Eh
 * total energy  :   -89.0165571 Eh     change       -0.8247044E-06 Eh
 * total energy  :   -89.0165586 Eh     change       -0.1573314E-05 Eh
 * total energy  :   -89.0165592 Eh     change       -0.5895097E-06 Eh
 * total energy  :   -89.0165597 Eh     change       -0.4901731E-06 Eh
 * total energy  :   -89.0165602 Eh     change       -0.5188857E-06 Eh
 * total energy  :   -89.0165607 Eh     change       -0.4347868E-06 Eh
 * total energy  :   -89.0165611 Eh     change       -0.4064260E-06 Eh
 * total energy  :   -89.0165615 Eh     change       -0.4649255E-06 Eh
 * total energy  :   -89.0165619 Eh     change       -0.4075970E-06 Eh
 * total energy  :   -89.0165622 Eh     change       -0.2732572E-06 Eh
 * total energy  :   -89.0165624 Eh     change       -0.2131375E-06 Eh
 * total energy  :   -89.0165627 Eh     change       -0.2563386E-06 Eh
 * total energy  :   -89.0165629 Eh     change       -0.2309493E-06 Eh
 * total energy  :   -89.0165631 Eh     change       -0.1399927E-06 Eh
 * total energy  :   -89.0165631 Eh     change       -0.5855196E-07 Eh
   *** GEOMETRY OPTIMIZATION CONVERGED AFTER 17 ITERATIONS ***

 final structure:
================
58
 xtb: 6.7.1 (edcfbbe)
C           -6.71924546488855       -2.42390475719714       -0.08505379605932
C           -6.26239873076535       -1.61876818645838        0.94516450461026
C           -4.96724095878078       -1.13696974728092        0.93032555470864
C           -4.10791183556539       -1.45670121899897       -0.11767728227574
C           -2.72049122284281       -0.96120378011258       -0.13519069485701
C           -1.69083458850565       -1.85211954889020       -0.33186924372363
C           -0.35535636657562       -1.42682310636404       -0.29993432275163
N            0.64891322886631       -2.31148288426514       -0.51791601816389
C            1.86673367261325       -1.87071962873302       -0.45438205825980
C            2.17102409081085       -0.50292508831184       -0.17234278799807
N            3.47263441963901       -0.06525681167455       -0.12299609037969
C            3.77383949199158        1.30632979012930       -0.25324441623066
C            4.74803865915218        1.87897760886271        0.55973771667058
C            5.06779154452575        3.21649339838490        0.42217178031826
C            4.41782551933286        3.99738708073592       -0.51846756808701
C            3.44628194795872        3.42945764973070       -1.32588139246560
C            3.12573270092578        2.09112515708463       -1.20147855064952
C            4.52613897426046       -0.95352154371852        0.16002512405018
C            5.71948489554643       -0.85612722799317       -0.55235201612207
C            6.76442778708889       -1.71616902876382       -0.27450610792843
C            6.63309393290329       -2.68253669271364        0.70957408584615
C            5.45015179504513       -2.77862257391916        1.42346486184059
C            4.40223606181102       -1.91720613442043        1.15830638315504
N            1.20982969532965        0.37976216229801        0.00299336394898
C           -0.06257771173745       -0.05951750259073       -0.05297423633706
C           -1.12472683962665        0.84229126501204        0.12699098171726
C           -2.43037576005945        0.41372048190203        0.08191445116032
C           -3.51528121146638        1.40102745646910        0.22338571938300
C           -3.50360286325361        2.30964837950503        1.27772351125519
C           -4.51604927198778        3.24177346758376        1.41214622013193
C           -5.54702880103498        3.28637673153189        0.48903950716980
C           -5.55762047453705        2.39702532066850       -0.57268328857614
C           -4.55090698103905        1.45960544924204       -0.70549895546268
C           -4.57076372925768       -2.27950644707416       -1.14068001815593
C           -5.86902689445089       -2.75499773226402       -1.12646237514185
H           -7.73368634518774       -2.79447339928470       -0.07470043621640
H           -6.91871942979600       -1.36494765728988        1.76477040802825
H           -4.61224078634088       -0.51828773657581        1.74141259300209
H           -1.88874607036417       -2.90179332590098       -0.48822212730585
H            2.65430003125516       -2.58351593448108       -0.66100163716425
H            5.25037918976217        1.27287800903028        1.29967802101594
H            5.82424855726084        3.65127751049306        1.05879241367699
H            4.66662147493726        5.04289497313670       -0.62127873774923
H            2.93813545951307        4.03133106121627       -2.06472886612700
H            2.37274663050892        1.65182767134631       -1.83640837320728
H            5.81699251247913       -0.10325182240828       -1.32061538409990
H            7.68440375263390       -1.63524091972490       -0.83404411219525
H            7.45016808968572       -3.35502716450341        0.92181443565120
H            5.34432711969880       -3.52241487888470        2.19908175121745
H            3.48645815313237       -1.98087076978747        1.72801805621856
H           -0.88709965688927        1.88353301758997        0.28400851893001
H           -2.70450396708944        2.26805518859960        2.00412926837850
H           -4.50113146351731        3.93526891792931        2.24051120552169
H           -6.33840691140216        4.01370404443913        0.59503311640764
H           -6.35483531755926        2.43339316424724       -1.30068297424798
H           -4.55799839785701        0.77443682971617       -1.54040401427246
H           -3.91077644482868       -2.52919652642087       -1.95928160914571
H           -6.21910314656160       -3.38520756377916       -1.93123030755744

          :  Hamiltonian                  GFN2-xTB          :
         :: gradient norm              0.000026307920 Eh/a0 ::
         :: HOMO-LUMO gap              1.734912108489 eV    ::
         :: SCC energy               -90.676701164217 Eh    ::
         :: -> dispersion             -0.077704810648 Eh    ::
         :: repulsion energy           1.660138052890 Eh    ::

    * Orbital Energies and Occupations

         #    Occupation            Energy/Eh            Energy/eV
      -------------------------------------------------------------
         1        2.0000           -0.6764481             -18.4071
       ...           ...                  ...                  ...
        71        2.0000           -0.4195329             -11.4161
        72        2.0000           -0.4155361             -11.3073
        73        2.0000           -0.4138482             -11.2614
        74        2.0000           -0.4115458             -11.1987
        75        2.0000           -0.4080148             -11.1026
        76        2.0000           -0.4071961             -11.0804
        77        2.0000           -0.4041692             -10.9980
        78        2.0000           -0.4032201             -10.9722
        79        2.0000           -0.4014481             -10.9240
        80        2.0000           -0.3902833             -10.6201
        81        2.0000           -0.3857004             -10.4954
        82        2.0000           -0.3623078              -9.8589
        83        2.0000           -0.3458280              -9.4105 (HOMO)
        84                         -0.2820711              -7.6755 (LUMO)
        85                         -0.2499496              -6.8015
        86                         -0.2362188              -6.4278
        87                         -0.2334326              -6.3520
        88                         -0.2252789              -6.1302
        89                         -0.2242806              -6.1030
        90                         -0.2238331              -6.0908
        91                         -0.2215718              -6.0293
        92                         -0.2182066              -5.9377
        93                         -0.2015442              -5.4843
        94                         -0.1962064              -5.3390
       ...                                ...                  ...
       163                          0.7049251              19.1820
      -------------------------------------------------------------
                  HL-Gap            0.0637569 Eh            1.7349 eV

     #   Z          covCN         q      C6AA      α(0)
     1   6 C        2.920    -0.031    28.769     8.796
     2   6 C        2.919    -0.029    28.728     8.789
     3   6 C        2.924    -0.031    28.762     8.795
     4   6 C        2.979     0.014    27.695     8.632
     5   6 C        2.977     0.004    27.921     8.668
     6   6 C        2.923    -0.046    29.143     8.853
     7   6 C        2.973     0.067    26.498     8.444
     8   7 N        1.840    -0.223    26.722     7.661
     9   6 C        2.900     0.040    27.097     8.535
    10   6 C        2.900     0.143    24.879     8.178
    11   7 N        2.756    -0.072    22.636     7.066
    12   6 C        2.928     0.073    26.376     8.422
    13   6 C        2.923    -0.043    29.071     8.842
    14   6 C        2.920    -0.028    28.711     8.787
    15   6 C        2.919    -0.034    28.857     8.809
    16   6 C        2.921    -0.027    28.674     8.781
    17   6 C        2.922    -0.036    28.884     8.813
    18   6 C        2.927     0.064    26.572     8.454
    19   6 C        2.923    -0.043    29.065     8.841
    20   6 C        2.920    -0.027    28.685     8.783
    21   6 C        2.919    -0.034    28.849     8.808
    22   6 C        2.920    -0.027    28.682     8.782
    23   6 C        2.922    -0.044    29.083     8.844
    24   7 N        1.850    -0.272    27.911     7.830
    25   6 C        2.966     0.081    26.180     8.393
    26   6 C        2.924    -0.051    29.258     8.870
    27   6 C        2.977     0.009    27.816     8.651
    28   6 C        2.979     0.014    27.690     8.632
    29   6 C        2.925    -0.033    28.835     8.806
    30   6 C        2.919    -0.029    28.733     8.790
    31   6 C        2.920    -0.031    28.762     8.795
    32   6 C        2.919    -0.029    28.725     8.789
    33   6 C        2.924    -0.030    28.751     8.793
    34   6 C        2.925    -0.034    28.847     8.808
    35   6 C        2.919    -0.029    28.735     8.790
    36   1 H        0.926     0.030     2.587     2.515
    37   1 H        0.926     0.030     2.590     2.517
    38   1 H        0.926     0.029     2.600     2.522
    39   1 H        0.926     0.051     2.305     2.374
    40   1 H        0.925     0.035     2.520     2.483
    41   1 H        0.926     0.033     2.550     2.497
    42   1 H        0.926     0.034     2.525     2.485
    43   1 H        0.926     0.034     2.530     2.488
    44   1 H        0.926     0.036     2.496     2.471
    45   1 H        0.926     0.042     2.420     2.433
    46   1 H        0.926     0.037     2.491     2.468
    47   1 H        0.926     0.037     2.485     2.465
    48   1 H        0.926     0.036     2.498     2.471
    49   1 H        0.926     0.038     2.475     2.460
    50   1 H        0.926     0.035     2.516     2.481
    51   1 H        0.926     0.050     2.320     2.382
    52   1 H        0.926     0.032     2.554     2.499
    53   1 H        0.926     0.031     2.573     2.509
    54   1 H        0.926     0.030     2.581     2.512
    55   1 H        0.926     0.030     2.582     2.513
    56   1 H        0.926     0.030     2.589     2.516
    57   1 H        0.926     0.032     2.558     2.501
    58   1 H        0.926     0.031     2.577     2.510

molecular dipole:
                 x           y           z       tot (Debye)
 q only:        0.427       0.270       0.016
   full:        0.458       0.217       0.052       1.296

 projected vibrational frequencies (cm⁻¹)
eigval :       -0.00    -0.00    -0.00     0.00     0.00     0.00
eigval :       14.28    20.84    27.56    44.51    49.64    52.79
eigval :       58.31    63.87    67.45    73.28    78.40    93.49
eigval :      138.63   163.77   172.22   197.08   220.76   229.25
eigval :      237.23   249.06   263.27   303.08   311.89   332.77
eigval :      350.81   369.88   373.61   375.47   377.08   382.48
eigval :      408.61   422.34   447.84   471.51   484.44   498.41
eigval :      510.21   533.94   556.37   576.01   579.66   585.15
eigval :      588.84   590.79   592.85   600.82   614.78   652.61
eigval :      660.22   662.08   669.90   678.31   692.80   708.91
eigval :      726.53   747.72   757.29   759.85   761.36   763.99
eigval :      836.37   846.51   870.49   873.89   876.98   877.44
eigval :      879.29   881.22   885.01   894.14   899.09   903.60
eigval :      905.26   908.10   925.47   928.62   928.92   929.32
eigval :      930.11   930.48   931.19   931.88   932.31   971.67
eigval :      979.49  1004.35  1006.23  1035.32  1069.19  1081.85
eigval :     1084.74  1084.87  1087.32  1120.51  1120.91  1121.93
eigval :     1124.52  1177.83  1180.24  1181.07  1182.25  1182.28
eigval :     1186.76  1194.13  1197.72  1200.43  1203.84  1208.31
eigval :     1250.41  1256.42  1272.45  1279.08  1281.43  1282.40
eigval :     1286.74  1298.25  1314.69  1318.23  1319.51  1321.11
eigval :     1326.28  1346.56  1400.53  1414.23  1425.82  1429.54
eigval :     1434.51  1438.04  1447.26  1467.42  1471.06  1473.77
eigval :     1481.84  1488.99  1516.73  1557.24  1579.94  1580.80
eigval :     1582.50  1585.88  1592.92  1593.63  1597.98  1599.83
eigval :     1601.80  3050.53  3070.77  3071.08  3074.07  3074.70
eigval :     3076.24  3078.75  3080.17  3080.76  3080.80  3081.24
eigval :     3086.54  3086.99  3087.20  3087.83  3092.28  3092.98
eigval :     3093.23  3093.42  3094.07  3095.51  3100.37  3106.18

   temp. (K)  partition function   enthalpy   heat capacity  entropy
                                   cal/mol     cal/K/mol   cal/K/mol   J/K/mol
 298.15  VIB  0.103E+13            15787.880    101.196     98.360
         ROT  0.342E+08              888.752      2.981     37.458
         INT  0.353E+20            16676.632    104.177    135.819
         TR   0.922E+28             1481.254      4.968     44.178
         TOT                       18157.8863   109.1450   179.9968   753.1067

       T/K    H(0)-H(T)+PV         H(T)/Eh          T*S/Eh         G(T)/Eh
   ------------------------------------------------------------------------
    298.15    0.289364E-01    0.476692E+00    0.855223E-01    0.391169E+00
   ------------------------------------------------------------------------

         :::::::::::::::::::::::::::::::::::::::::::::::::::::
         ::                  THERMODYNAMIC                  ::
         :::::::::::::::::::::::::::::::::::::::::::::::::::::
         :: total free energy         -88.625393636277 Eh   ::
         ::.................................................::
         :: total energy              -89.016563111327 Eh   ::
         :: zero point energy           0.447755338301 Eh   ::
         :: G(RRHO) w/o ZPVE           -0.056585863252 Eh   ::
         :: G(RRHO) contrib.            0.391169475050 Eh   ::
         :::::::::::::::::::::::::::::::::::::::::::::::::::::

           -------------------------------------------------
          | TOTAL ENERGY              -89.016563111327 Eh   |
          | TOTAL ENTHALPY            -88.539871339290 Eh   |
          | TOTAL FREE ENERGY         -88.625393636277 Eh   |
          | GRADIENT NORM               0.000026295000 Eh/α |
          | HOMO-LUMO GAP               1.734912659838 eV   |
           -------------------------------------------------

 * finished run on 2025/07/18 at 16:20:37.471
