   * xtb version 6.7.1 (edcfbbe) compiled by 'albert@albert-system' on 2024-07-22

   ID    Z sym.   atoms
    1    6 C      1-7, 9, 10, 12-23, 25-35
    2    7 N      8, 11, 24
    3    1 H      36-58

          program call               : xtb data2507/gas/DPA-DPQ/DPA-DPQ_gas_S0_finalOpt.xtbopt.xyz --gfn 2 --spinpol --tblite --uhf 2 --ohess vtight --parallel 40 --molden --ceasefiles --namespace data2507/gas/DPA-DPQ/DPA-DPQ_gas_T1_preOpt
 * total energy  :   -88.9519828 Eh     change       -0.3832355E-08 Eh
 * total energy  :   -88.9563142 Eh     change       -0.4331468E-02 Eh
 * total energy  :   -88.9577274 Eh     change       -0.1413192E-02 Eh
 * total energy  :   -88.9580236 Eh     change       -0.2961782E-03 Eh
 * total energy  :   -88.9582219 Eh     change       -0.1982861E-03 Eh
 * total energy  :   -88.9583091 Eh     change       -0.8721845E-04 Eh
 * total energy  :   -88.9584180 Eh     change       -0.1089256E-03 Eh
 * total energy  :   -88.9585244 Eh     change       -0.1063584E-03 Eh
 * total energy  :   -88.9585976 Eh     change       -0.7320893E-04 Eh
 * total energy  :   -88.9586317 Eh     change       -0.3408299E-04 Eh
 * total energy  :   -88.9588715 Eh     change       -0.6476676E-06 Eh
 * total energy  :   -88.9588721 Eh     change       -0.6351786E-06 Eh
 * total energy  :   -88.9588727 Eh     change       -0.6244057E-06 Eh
 * total energy  :   -88.9588733 Eh     change       -0.6082222E-06 Eh
 * total energy  :   -88.9588739 Eh     change       -0.5963224E-06 Eh
 * total energy  :   -88.9588745 Eh     change       -0.5799068E-06 Eh
 * total energy  :   -88.9588751 Eh     change       -0.5661114E-06 Eh
 * total energy  :   -88.9588756 Eh     change       -0.5508639E-06 Eh
 * total energy  :   -88.9588757 Eh     change       -0.1799874E-07 Eh
   *** GEOMETRY OPTIMIZATION CONVERGED AFTER 122 ITERATIONS ***

 final structure:
================
58
 xtb: 6.7.1 (edcfbbe)
C           -6.70477872778074       -2.45269774153458       -0.22188726581440
C           -6.26816845291623       -1.68376766855587        0.84441226468672
C           -4.98062302207151       -1.18315536673904        0.86089455955251
C           -4.10628316841457       -1.44482069388979       -0.19219111474027
C           -2.72921667848030       -0.92924497684589       -0.17112988234695
C           -1.67872133050981       -1.80618525073797       -0.43702930462865
C           -0.35181518251232       -1.40399019279085       -0.39444286655456
N            0.67213689764820       -2.21571621798069       -0.66785598376265
C            1.92469239019813       -1.79694935087050       -0.58036918696248
C            2.21915784312586       -0.50747537559844       -0.14330509456640
N            3.52329915025598       -0.05544149840022       -0.05427131755940
C            3.80281766377080        1.28664213155592       -0.34026430892325
C            4.82927318557660        1.94427160983573        0.33909818035512
C            5.08638091736631        3.27635348461484        0.08521276930528
C            4.32588213508823        3.97519414482926       -0.83933803715478
C            3.30387912071564        3.32708836710157       -1.51186358322243
C            3.04333493129275        1.99118877064661       -1.27271438695025
C            4.55052252478158       -0.94268705885483        0.28963444467642
C            5.78688826461680       -0.86880961995709       -0.35305920445315
C            6.79677811106750       -1.74884171067005       -0.01631311339989
C            6.59053640365964       -2.71460131395467        0.95564596188243
C            5.36297583377694       -2.79328824420529        1.59447746223617
C            4.34762728068724       -1.91601039503460        1.26821652523134
N            1.21853562680604        0.32938692985835        0.15461795612139
C           -0.05327857777550       -0.04045806978316       -0.00240493205031
C           -1.11625443956691        0.81849844320836        0.24104489456283
C           -2.44430206993689        0.40610120127371        0.14602666631366
C           -3.50885312913981        1.40272866016574        0.33687259465824
C           -3.47339322679791        2.27480557941292        1.42241242030932
C           -4.46737891267390        3.21934692354971        1.59868989418790
C           -5.50656053767535        3.31482163640776        0.68861264340838
C           -5.54287534919984        2.46211114046890       -0.40252793195150
C           -4.55343981048382        1.51422925035038       -0.57879495159825
C           -4.55038061488194       -2.23115751650491       -1.25262041899483
C           -5.84095360710631       -2.72631534658311       -1.26899166448775
H           -7.71315086344310       -2.83959588475671       -0.23522966276206
H           -6.93473012996758       -1.47450452197092        1.66851026677317
H           -4.64116324366406       -0.59405721581995        1.70009903670840
H           -1.88535057022991       -2.84039689202166       -0.66581844683937
H            2.70936804845059       -2.46837608158676       -0.88943134208435
H            5.41011802743039        1.40848203931458        1.07521904723223
H            5.87998594968111        3.77553816717510        0.62127806540313
H            4.52882833024949        5.01755627387109       -1.03226791852009
H            2.70776809997984        3.86247453907598       -2.23580845657700
H            2.25604306664621        1.49012066216262       -1.81408261293787
H            5.94375794825840       -0.12308356914078       -1.11840036940742
H            7.74842930505664       -1.68543034835150       -0.52262950570687
H            7.38116303603669       -3.40244085499290        1.21336743703819
H            5.19685736953114       -3.53974476906677        2.35669921285063
H            3.39439416721141       -1.97050594184403        1.77268491840926
H           -0.88580172802316        1.84853384830859        0.46691719901520
H           -2.67072687125021        2.19360164990991        2.14156504738829
H           -4.43222727832629        3.88319719849408        2.45066593767486
H           -6.28326265186174        4.05253692798467        0.82715064802561
H           -6.34606211892639        2.53783800793732       -1.12115318484982
H           -4.57998639558974        0.86028076903508       -1.43799612597039
H           -3.88225266319512       -2.43551960582224       -2.07724354048504
H           -6.17514189276397       -3.32734286326971       -2.10256096066370

 projected vibrational frequencies (cm⁻¹)
eigval :       -0.00    -0.00    -0.00    -0.00     0.00     0.00
eigval :       13.72    20.80    27.92    45.66    48.59    53.77
eigval :       58.13    66.26    67.15    78.77    79.84    93.08
eigval :      141.69   162.87   172.84   194.52   221.16   232.09
eigval :      234.74   246.42   265.90   294.31   310.99   325.66
eigval :      350.63   353.88   373.31   376.51   376.87   383.32
eigval :      392.29   423.32   449.65   469.16   479.54   490.70
eigval :      514.40   519.70   540.33   553.63   573.66   584.13
eigval :      587.25   587.81   592.60   593.70   606.56   637.46
eigval :      652.32   657.76   662.83   665.47   677.53   682.38
eigval :      694.81   719.67   742.65   754.46   758.26   759.66
eigval :      761.01   802.96   824.18   827.70   839.47   865.89
eigval :      874.17   878.18   878.47   889.95   896.94   900.78
eigval :      902.82   907.48   920.57   924.42   926.87   928.58
eigval :      929.69   929.79   929.84   930.80   931.44   971.48
eigval :      975.82  1002.52  1004.40  1033.65  1073.22  1081.18
eigval :     1084.55  1084.96  1087.91  1120.96  1121.36  1121.55
eigval :     1126.13  1132.43  1179.82  1180.49  1182.32  1182.40
eigval :     1184.56  1194.40  1198.05  1200.87  1205.45  1210.30
eigval :     1246.59  1249.99  1260.32  1272.97  1276.62  1282.06
eigval :     1283.00  1289.75  1300.62  1313.89  1317.63  1320.54
eigval :     1322.11  1329.06  1356.57  1381.11  1392.45  1402.36
eigval :     1431.25  1432.38  1433.26  1443.92  1464.05  1466.79
eigval :     1476.83  1479.59  1491.49  1514.73  1519.00  1572.39
eigval :     1577.26  1579.15  1579.74  1586.18  1592.04  1597.38
eigval :     1598.50  3068.80  3068.84  3072.40  3072.86  3079.01
eigval :     3079.57  3079.82  3081.18  3082.63  3082.88  3085.58
eigval :     3086.43  3087.81  3090.01  3090.34  3091.24  3091.93
eigval :     3092.29  3092.69  3094.31  3097.46  3101.70  3102.78

   temp. (K)  partition function   enthalpy   heat capacity  entropy
                                   cal/mol     cal/K/mol   cal/K/mol   J/K/mol
 298.15  VIB  0.108E+13            15945.341    102.565     99.080
         ROT  0.345E+08              888.752      2.981     37.470
         INT  0.372E+20            16834.093    105.546    136.550
         TR   0.922E+28             1481.254      4.968     44.178
         TOT                       18315.3472   110.5139   180.7286   756.1685

       T/K    H(0)-H(T)+PV         H(T)/Eh          T*S/Eh         G(T)/Eh
   ------------------------------------------------------------------------
    298.15    0.291874E-01    0.474442E+00    0.858700E-01    0.388572E+00
   ------------------------------------------------------------------------

         :::::::::::::::::::::::::::::::::::::::::::::::::::::
         ::                  THERMODYNAMIC                  ::
         :::::::::::::::::::::::::::::::::::::::::::::::::::::
         :: total free energy         -88.570304011129 Eh   ::
         ::.................................................::
         :: total energy              -88.958875665120 Eh   ::
         :: zero point energy           0.445254282797 Eh   ::
         :: G(RRHO) w/o ZPVE           -0.056682628806 Eh   ::
         :: G(RRHO) contrib.            0.388571653991 Eh   ::
         :::::::::::::::::::::::::::::::::::::::::::::::::::::

           -------------------------------------------------
          | TOTAL ENERGY              -88.958875665120 Eh   |
          | TOTAL ENTHALPY            -88.484434018784 Eh   |
          | TOTAL FREE ENERGY         -88.570304011129 Eh   |
          | GRADIENT NORM               0.000067985183 Eh/α |
           -------------------------------------------------

 * finished run on 2025/07/18 at 16:20:45.600
