   * xtb version 6.7.1 (edcfbbe) compiled by 'albert@albert-system' on 2024-07-22

   ID    Z sym.   atoms
    1    6 C      1-7, 9, 10, 12-23, 25-35
    2    7 N      8, 11, 24
    3    1 H      36-58

          program call               : xtb data2507/gas/DPA-DPQ/DPA-DPQ.xyz --gfn 2 --ohess vtight --parallel 40 --molden --ceasefiles --namespace data2507/gas/DPA-DPQ/DPA-DPQ_gas_S0_preOpt
          :  Hamiltonian                  GFN2-xTB          :
 * total energy  :   -88.9922620 Eh     change       -0.1042622E-08 Eh
 * total energy  :   -89.0065653 Eh     change       -0.1430332E-01 Eh
 * total energy  :   -89.0120473 Eh     change       -0.5481953E-02 Eh
 * total energy  :   -89.0135197 Eh     change       -0.1472428E-02 Eh
 * total energy  :   -89.0142735 Eh     change       -0.7538531E-03 Eh
 * total energy  :   -89.0145098 Eh     change       -0.2362651E-03 Eh
 * total energy  :   -89.0147539 Eh     change       -0.2441188E-03 Eh
 * total energy  :   -89.0150430 Eh     change       -0.2890570E-03 Eh
 * total energy  :   -89.0153472 Eh     change       -0.3042261E-03 Eh
 * total energy  :   -89.0155953 Eh     change       -0.2480553E-03 Eh
 * total energy  :   -89.0165063 Eh     change       -0.1004769E-05 Eh
 * total energy  :   -89.0165072 Eh     change       -0.9641243E-06 Eh
 * total energy  :   -89.0165082 Eh     change       -0.9311189E-06 Eh
 * total energy  :   -89.0165091 Eh     change       -0.8845659E-06 Eh
 * total energy  :   -89.0165099 Eh     change       -0.8551653E-06 Eh
 * total energy  :   -89.0165107 Eh     change       -0.8119578E-06 Eh
 * total energy  :   -89.0165115 Eh     change       -0.7926587E-06 Eh
 * total energy  :   -89.0165123 Eh     change       -0.7660666E-06 Eh
 * total energy  :   -89.0165123 Eh     change       -0.8261395E-08 Eh
   *** GEOMETRY OPTIMIZATION CONVERGED AFTER 94 ITERATIONS ***

 final structure:
================
58
 xtb: 6.7.1 (edcfbbe)
C           -6.67200477027156       -2.42582263418373       -0.32771113883226
C           -6.21671349658124       -1.71851812341862        0.77262156325549
C           -4.91680966750656       -1.25078361139309        0.81070411443061
C           -4.05137287212602       -1.48697618490686       -0.25413176162486
C           -2.65950818011309       -1.00447990229104       -0.22140686421208
C           -1.63642606851162       -1.88749170829890       -0.47893339299528
C           -0.29752154393403       -1.47755377544556       -0.41064844495836
N            0.70044924676207       -2.35729042333500       -0.67338287446623
C            1.92151548067090       -1.93159303642116       -0.57721392174351
C            2.23476629388519       -0.58241618117484       -0.22523264621624
N            3.54011187077471       -0.15531461311198       -0.16184045566740
C            3.84761620349477        1.21659132654575       -0.26796801278141
C            4.82015279940686        1.77492742146736        0.55663551596732
C            5.14496341801008        3.11307443941689        0.43769110908787
C            4.50181939814789        3.90852773110206       -0.49541967385654
C            3.53106985827786        3.35500464423575       -1.31377428971445
C            3.20554339981027        2.01640810654375       -1.20790320447402
C            4.58297506838798       -1.05724285203580        0.11277912828925
C            5.79140178987684       -0.94648458617322       -0.57189326650487
C            6.82528212050435       -1.82115789911201       -0.29846759722304
C            6.66815122865085       -2.81601344722202        0.65292505820111
C            5.46968638378016       -2.92663061777666        1.33824587080430
C            4.43266369356717       -2.05089788780609        1.07776241564718
N            1.28065990491227        0.29574772618845        0.00216530812028
C            0.00515021854612       -0.13121302846575       -0.07552214079680
C           -1.05012578143984        0.76231246745617        0.17271218654163
C           -2.35891006704403        0.34693711416733        0.10197255114655
C           -3.43558090225213        1.32589355154554        0.33552211688108
C           -3.40996077983932        2.13393280623721        1.46864163216685
C           -4.41525373555143        3.05549814841273        1.69650186334411
C           -5.45292784722054        3.19031780801624        0.78980902598588
C           -5.47700219240722        2.40258152474143       -0.34913991756534
C           -4.47741092974861        1.47545040933901       -0.57582900872528
C           -4.51263285225492       -2.21300463378029       -1.34863419319622
C           -5.81553602439388       -2.67421071318538       -1.38685632541291
H           -7.69018375858646       -2.78483697974998       -0.35829501730408
H           -6.87811665266401       -1.53010302754519        1.60566065795200
H           -4.56331359583027       -0.70865197541464        1.67544166193250
H           -1.84266543616018       -2.92141452078666       -0.71114903264597
H            2.70534524417551       -2.63944289171549       -0.81323987717379
H            5.31728838946642        1.15729785965728        1.29048418313575
H            5.90033312894690        3.53695838035892        1.08289189446136
H            4.75521217184514        4.95422056251241       -0.58405999172528
H            3.02804985950145        3.96821436364565       -2.04678477518616
H            2.45358730951568        1.58781920107020       -1.85163359826130
H            5.90951427884776       -0.17177894012300       -1.31513724822813
H            7.75725077606285       -1.72907512847990       -0.83602446511430
H            7.47703865882890       -3.49928096297067        0.86204796766320
H            5.34320252426827       -3.69297900865423        2.08840818271326
H            3.50477633605590       -2.12620495902372        1.62608363485104
H           -0.80476323768228        1.78743666523719        0.40554037005551
H           -2.60560343476280        2.02089890196208        2.18153213152208
H           -4.38965213170562        3.66961012040446        2.58507160670028
H           -6.23906859328391        3.90895968424228        0.96883305619637
H           -6.27953763768334        2.51030155851386       -1.06409729455653
H           -4.49541253010608        0.86968757816906       -1.46985873434111
H           -3.84729246223536       -2.39751002907821       -2.18010342110961
H           -6.16426787308430       -3.22823681810699       -2.24639422043270

          :  Hamiltonian                  GFN2-xTB          :
         :: gradient norm              0.000069215538 Eh/a0 ::
         :: HOMO-LUMO gap              1.731013139974 eV    ::
         :: SCC energy               -90.676682719854 Eh    ::
         :: -> dispersion             -0.077701347383 Eh    ::
         :: repulsion energy           1.660170425993 Eh    ::

    * Orbital Energies and Occupations

         #    Occupation            Energy/Eh            Energy/eV
      -------------------------------------------------------------
         1        2.0000           -0.6765937             -18.4111
       ...           ...                  ...                  ...
        71        2.0000           -0.4196819             -11.4201
        72        2.0000           -0.4151828             -11.2977
        73        2.0000           -0.4137219             -11.2579
        74        2.0000           -0.4115469             -11.1988
        75        2.0000           -0.4081065             -11.1051
        76        2.0000           -0.4073651             -11.0850
        77        2.0000           -0.4044771             -11.0064
        78        2.0000           -0.4033737             -10.9764
        79        2.0000           -0.4015900             -10.9278
        80        2.0000           -0.3904921             -10.6258
        81        2.0000           -0.3860188             -10.5041
        82        2.0000           -0.3623655              -9.8605
        83        2.0000           -0.3460831              -9.4174 (HOMO)
        84                         -0.2824695              -7.6864 (LUMO)
        85                         -0.2500600              -6.8045
        86                         -0.2359243              -6.4198
        87                         -0.2330474              -6.3415
        88                         -0.2254339              -6.1344
        89                         -0.2243049              -6.1036
        90                         -0.2240463              -6.0966
        91                         -0.2216544              -6.0315
        92                         -0.2183584              -5.9418
        93                         -0.2017687              -5.4904
        94                         -0.1965069              -5.3472
       ...                                ...                  ...
       163                          0.7043841              19.1673
      -------------------------------------------------------------
                  HL-Gap            0.0636136 Eh            1.7310 eV

     #   Z          covCN         q      C6AA      α(0)
     1   6 C        2.920    -0.031    28.769     8.796
     2   6 C        2.919    -0.029    28.728     8.789
     3   6 C        2.924    -0.030    28.761     8.795
     4   6 C        2.979     0.014    27.695     8.632
     5   6 C        2.977     0.005    27.917     8.667
     6   6 C        2.923    -0.046    29.142     8.853
     7   6 C        2.973     0.067    26.494     8.443
     8   7 N        1.840    -0.223    26.717     7.660
     9   6 C        2.900     0.041    27.089     8.534
    10   6 C        2.901     0.144    24.876     8.178
    11   7 N        2.756    -0.072    22.640     7.067
    12   6 C        2.928     0.073    26.373     8.422
    13   6 C        2.923    -0.043    29.068     8.841
    14   6 C        2.920    -0.028    28.709     8.787
    15   6 C        2.919    -0.034    28.858     8.809
    16   6 C        2.921    -0.027    28.673     8.781
    17   6 C        2.922    -0.036    28.886     8.814
    18   6 C        2.926     0.064    26.571     8.453
    19   6 C        2.923    -0.043    29.073     8.842
    20   6 C        2.920    -0.027    28.686     8.783
    21   6 C        2.919    -0.034    28.855     8.809
    22   6 C        2.920    -0.027    28.682     8.782
    23   6 C        2.922    -0.044    29.090     8.845
    24   7 N        1.850    -0.271    27.892     7.827
    25   6 C        2.966     0.081    26.180     8.393
    26   6 C        2.925    -0.051    29.255     8.870
    27   6 C        2.977     0.009    27.813     8.651
    28   6 C        2.979     0.014    27.690     8.632
    29   6 C        2.925    -0.033    28.834     8.806
    30   6 C        2.919    -0.029    28.732     8.790
    31   6 C        2.920    -0.030    28.761     8.794
    32   6 C        2.919    -0.029    28.725     8.789
    33   6 C        2.924    -0.030    28.749     8.793
    34   6 C        2.925    -0.034    28.846     8.808
    35   6 C        2.919    -0.029    28.735     8.790
    36   1 H        0.926     0.030     2.585     2.514
    37   1 H        0.926     0.030     2.589     2.516
    38   1 H        0.926     0.029     2.600     2.522
    39   1 H        0.926     0.051     2.303     2.373
    40   1 H        0.925     0.035     2.518     2.481
    41   1 H        0.926     0.033     2.545     2.495
    42   1 H        0.926     0.034     2.523     2.484
    43   1 H        0.926     0.034     2.530     2.487
    44   1 H        0.926     0.036     2.497     2.471
    45   1 H        0.926     0.041     2.439     2.442
    46   1 H        0.926     0.037     2.494     2.470
    47   1 H        0.926     0.037     2.488     2.466
    48   1 H        0.926     0.036     2.501     2.473
    49   1 H        0.926     0.038     2.478     2.462
    50   1 H        0.926     0.034     2.524     2.484
    51   1 H        0.926     0.050     2.318     2.381
    52   1 H        0.926     0.032     2.554     2.499
    53   1 H        0.926     0.031     2.572     2.508
    54   1 H        0.926     0.030     2.580     2.512
    55   1 H        0.926     0.030     2.581     2.512
    56   1 H        0.926     0.030     2.589     2.516
    57   1 H        0.926     0.032     2.558     2.501
    58   1 H        0.926     0.031     2.576     2.510

molecular dipole:
                 x           y           z       tot (Debye)
 q only:        0.397       0.268       0.032
   full:        0.427       0.214       0.067       1.226

 projected vibrational frequencies (cm⁻¹)
eigval :       -0.00    -0.00    -0.00    -0.00     0.00     0.00
eigval :       14.30    20.74    27.55    44.38    49.46    52.56
eigval :       57.88    63.93    67.48    73.46    78.26    93.29
eigval :      138.93   163.39   172.20   196.68   220.82   229.45
eigval :      236.60   248.53   263.60   303.43   311.80   331.39
eigval :      350.77   370.02   373.59   375.53   377.05   382.51
eigval :      408.10   423.07   448.27   471.58   484.15   498.25
eigval :      510.38   534.00   556.26   574.51   579.67   585.28
eigval :      588.92   590.75   592.98   601.27   615.50   652.61
eigval :      660.13   662.30   669.56   678.41   693.07   708.91
eigval :      726.29   747.97   757.29   759.74   761.40   763.92
eigval :      836.18   846.64   870.75   874.04   877.01   877.47
eigval :      879.32   881.21   885.18   894.23   898.48   903.61
eigval :      905.31   908.13   925.60   928.64   928.82   929.30
eigval :      930.10   930.45   930.84   931.90   932.34   971.70
eigval :      979.48  1004.42  1006.27  1035.23  1069.25  1082.00
eigval :     1084.66  1084.85  1087.35  1120.75  1120.86  1121.87
eigval :     1124.45  1177.28  1180.25  1181.07  1182.23  1182.25
eigval :     1186.73  1194.30  1197.68  1200.30  1203.62  1208.32
eigval :     1250.36  1256.53  1272.23  1279.15  1281.44  1282.31
eigval :     1286.74  1298.83  1314.77  1318.57  1319.46  1320.89
eigval :     1326.47  1346.05  1400.11  1413.85  1425.57  1429.53
eigval :     1434.62  1438.02  1447.04  1467.48  1471.07  1473.91
eigval :     1481.87  1489.10  1516.66  1556.97  1579.86  1580.80
eigval :     1582.51  1585.90  1593.03  1593.72  1598.09  1599.86
eigval :     1601.73  3050.07  3070.78  3071.08  3074.16  3074.79
eigval :     3076.40  3078.52  3080.15  3080.74  3080.77  3081.24
eigval :     3086.59  3087.09  3087.25  3087.77  3092.22  3093.04
eigval :     3093.24  3093.47  3094.25  3095.41  3100.32  3104.19

   temp. (K)  partition function   enthalpy   heat capacity  entropy
                                   cal/mol     cal/K/mol   cal/K/mol   J/K/mol
 298.15  VIB  0.105E+13            15790.924    101.182     98.384
         ROT  0.342E+08              888.752      2.981     37.458
         INT  0.361E+20            16679.677    104.163    135.842
         TR   0.922E+28             1481.254      4.968     44.178
         TOT                       18160.9305   109.1315   180.0200   753.2036

       T/K    H(0)-H(T)+PV         H(T)/Eh          T*S/Eh         G(T)/Eh
   ------------------------------------------------------------------------
    298.15    0.289413E-01    0.476682E+00    0.855333E-01    0.391149E+00
   ------------------------------------------------------------------------

         :::::::::::::::::::::::::::::::::::::::::::::::::::::
         ::                  THERMODYNAMIC                  ::
         :::::::::::::::::::::::::::::::::::::::::::::::::::::
         :: total free energy         -88.625363565309 Eh   ::
         ::.................................................::
         :: total energy              -89.016512294390 Eh   ::
         :: zero point energy           0.447740742423 Eh   ::
         :: G(RRHO) w/o ZPVE           -0.056592013342 Eh   ::
         :: G(RRHO) contrib.            0.391148729081 Eh   ::
         :::::::::::::::::::::::::::::::::::::::::::::::::::::

           -------------------------------------------------
          | TOTAL ENERGY              -89.016512294390 Eh   |
          | TOTAL ENTHALPY            -88.539830267007 Eh   |
          | TOTAL FREE ENERGY         -88.625363565309 Eh   |
          | GRADIENT NORM               0.000069212752 Eh/α |
          | HOMO-LUMO GAP               1.731013250393 eV   |
           -------------------------------------------------

 * finished run on 2025/07/18 at 16:18:05.211
