   * xtb version 6.7.1 (edcfbbe) compiled by 'albert@albert-system' on 2024-07-22

   ID    Z sym.   atoms
    1    6 C      1-7, 9, 10, 12-23, 25-35
    2    7 N      8, 11, 24
    3    1 H      36-58

          program call               : xtb data2507/gas/DPA-DPQ/DPA-DPQ_gas_T1_crest.xyz --gfn 2 --spinpol --tblite --uhf 2 --ohess vtight --parallel 40 --molden --ceasefiles --namespace data2507/gas/DPA-DPQ/DPA-DPQ_gas_T1_finalOpt
 * total energy  :   -88.9588549 Eh     change       -0.1799441E-07 Eh
 * total energy  :   -88.9588943 Eh     change       -0.3933910E-04 Eh
 * total energy  :   -88.9589028 Eh     change       -0.8531457E-05 Eh
 * total energy  :   -88.9589047 Eh     change       -0.1887991E-05 Eh
 * total energy  :   -88.9589064 Eh     change       -0.1666188E-05 Eh
 * total energy  :   -88.9589076 Eh     change       -0.1199498E-05 Eh
 * total energy  :   -88.9589089 Eh     change       -0.1329461E-05 Eh
 * total energy  :   -88.9589097 Eh     change       -0.7652482E-06 Eh
 * total energy  :   -88.9589101 Eh     change       -0.3927468E-06 Eh
 * total energy  :   -88.9589104 Eh     change       -0.3303266E-06 Eh
 * total energy  :   -88.9589114 Eh     change       -0.3502627E-06 Eh
 * total energy  :   -88.9589118 Eh     change       -0.3169021E-06 Eh
 * total energy  :   -88.9589120 Eh     change       -0.2198264E-06 Eh
 * total energy  :   -88.9589121 Eh     change       -0.1704485E-06 Eh
 * total energy  :   -88.9589124 Eh     change       -0.2598723E-06 Eh
 * total energy  :   -88.9589126 Eh     change       -0.2342517E-06 Eh
 * total energy  :   -88.9589128 Eh     change       -0.1860275E-06 Eh
 * total energy  :   -88.9589130 Eh     change       -0.1256191E-06 Eh
 * total energy  :   -88.9589130 Eh     change       -0.7580806E-07 Eh
   *** GEOMETRY OPTIMIZATION CONVERGED AFTER 21 ITERATIONS ***

 final structure:
================
58
 xtb: 6.7.1 (edcfbbe)
C           -6.70889584420476       -2.43592916913452       -0.33017014234790
C           -6.27587651771831       -1.71487388601161        0.77047579424727
C           -4.98756987366028       -1.21771959560485        0.81454798451576
C           -4.10909450671243       -1.43519507893492       -0.24496894831652
C           -2.73165231167842       -0.92183319261263       -0.19900635919712
C           -1.68094410494888       -1.79043435017278       -0.49060363289221
C           -0.35410715703639       -1.39054855172595       -0.43216207872529
N            0.67015469317138       -2.19772050750098       -0.71985485279220
C            1.92238827648856       -1.78205168497373       -0.61853630772699
C            2.21633315865477       -0.50077295117015       -0.15810289187364
N            3.52246639297931       -0.05374784641952       -0.06027389357199
C            4.53699180151664       -0.94251343673181        0.31359082333532
C            4.30555629530342       -1.90389506508956        1.29790000661930
C            5.30702894785161       -2.78417858070558        1.65674182045358
C            6.54922668179879       -2.72080391121905        1.04498383569855
C            6.78345759305189       -1.76800962277850        0.06659894346620
C            5.78757881635055       -0.88509411747691       -0.30284962973196
C            3.81169070448088        1.27965052989356       -0.37389662962211
C            3.06148062427782        1.96517014545919       -1.32791661625113
C            3.33185639653211        3.29268195235850       -1.59995271766703
C            4.35410848920520        3.95143426014513       -0.93810884396631
C            5.10383999086070        3.27218616813072        0.00949928913679
C            4.83710153977445        1.94853826758025        0.29585234687850
N            1.21625748443293        0.33132238141305        0.15434514936773
C           -0.05563690911172       -0.03733255060750       -0.00653578226052
C           -1.11887121919785        0.81260740865539        0.26642780686682
C           -2.44676499195856        0.40156032653721        0.16396130351576
C           -3.51182247725286        1.38753313830680        0.40261885057435
C           -3.47161007642896        2.20824831035760        1.52733619024830
C           -4.46762096636534        3.13966292232921        1.75448515716719
C           -5.51350549041270        3.27331607915733        0.85698593152654
C           -5.55411799818055        2.47279148209953       -0.27283239164621
C           -4.56264922499410        1.53784787103524       -0.50004425460183
C           -4.54935112534996       -2.17445803876089       -1.34027364978142
C           -5.84067522485044       -2.66592876056737       -1.38410259717868
H           -7.71798139632125       -2.81962093131235       -0.36502758990621
H           -6.94597415588602       -1.54019917011807        1.59973852801477
H           -4.65107723468890       -0.66588421087072        1.67986696521706
H           -1.88776849007007       -2.81708287772874       -0.75113102040794
H            2.70861094207140       -2.44880860264319       -0.93384406768250
H            3.34079258449987       -1.94636883344387        1.78118253369117
H            5.11860447442303       -3.52078980083075        2.42334662171306
H            7.32927336022878       -3.41058791350302        1.32844084907432
H            7.74647960741720       -1.71706481540746       -0.41923505958106
H            5.96672570083691       -0.15029829648960       -1.07382978936024
H            2.27390384941977        1.45489943559654       -1.86042253160621
H            2.74355530985145        3.81288487625715       -2.34114824063461
H            4.56528552915888        4.98699529678651       -1.15704470320994
H            5.89700868853959        3.78031481655907        0.53775545447733
H            5.40964421779030        1.42854448697578        1.04955470312260
H           -0.88902431923326        1.83540870227300        0.52355339905193
H           -2.66358708724448        2.09631109730402        2.23630021763932
H           -4.42899609305938        3.76284251005724        2.63649921474732
H           -6.29220506257467        4.00025388625935        1.03553358624872
H           -6.36263601390058        2.57896299855602       -0.98154469412030
H           -4.59300872070239        0.92444377141165       -1.38851560333300
H           -3.87738726861292       -2.34434162338076       -2.16960426076194
H           -6.17198534691149       -3.22964119396748       -2.24445953766074

 projected vibrational frequencies (cm⁻¹)
eigval :       -0.00    -0.00     0.00     0.00     0.00     0.00
eigval :       13.28    20.44    27.73    45.41    48.02    53.58
eigval :       57.73    65.88    67.11    78.86    79.88    92.48
eigval :      141.60   162.70   172.59   194.18   220.99   231.72
eigval :      234.85   246.16   266.13   294.21   310.75   324.66
eigval :      350.44   354.47   373.14   376.21   376.74   383.31
eigval :      391.10   424.33   450.23   469.00   479.50   490.97
eigval :      514.73   519.63   540.14   553.54   573.72   584.30
eigval :      587.39   587.82   592.64   594.23   606.92   637.85
eigval :      652.35   657.62   663.21   665.23   677.62   682.59
eigval :      694.88   719.46   743.24   754.40   757.94   759.63
eigval :      760.93   803.36   824.58   827.25   839.49   866.17
eigval :      873.79   878.12   878.43   890.02   896.71   900.74
eigval :      902.76   907.48   920.46   924.42   926.72   928.28
eigval :      929.64   929.79   929.92   930.74   931.36   971.41
eigval :      975.87  1002.48  1004.42  1033.38  1073.30  1081.26
eigval :     1084.45  1084.93  1088.04  1121.08  1121.43  1121.80
eigval :     1125.63  1133.53  1179.60  1180.14  1182.05  1182.13
eigval :     1184.22  1194.16  1197.79  1200.53  1204.86  1209.81
eigval :     1246.27  1249.89  1260.90  1272.74  1276.26  1281.87
eigval :     1282.85  1289.82  1300.25  1314.26  1317.51  1320.47
eigval :     1322.07  1328.91  1357.22  1379.70  1392.08  1401.70
eigval :     1430.89  1432.05  1433.08  1443.70  1464.22  1466.55
eigval :     1476.64  1479.56  1491.34  1514.93  1518.94  1572.32
eigval :     1577.33  1579.25  1579.82  1586.20  1592.20  1597.47
eigval :     1598.54  3068.82  3068.89  3072.49  3072.93  3079.08
eigval :     3079.60  3079.85  3081.15  3082.55  3082.80  3085.63
eigval :     3086.39  3087.44  3090.07  3090.69  3091.32  3091.93
eigval :     3092.31  3092.64  3094.29  3097.11  3101.60  3102.14

   temp. (K)  partition function   enthalpy   heat capacity  entropy
                                   cal/mol     cal/K/mol   cal/K/mol   J/K/mol
 298.15  VIB  0.119E+13            15951.552    102.532     99.168
         ROT  0.345E+08              888.752      2.981     37.472
         INT  0.409E+20            16840.304    105.513    136.640
         TR   0.922E+28             1481.254      4.968     44.178
         TOT                       18321.5579   110.4812   180.8184   756.5441

       T/K    H(0)-H(T)+PV         H(T)/Eh          T*S/Eh         G(T)/Eh
   ------------------------------------------------------------------------
    298.15    0.291973E-01    0.474425E+00    0.859127E-01    0.388513E+00
   ------------------------------------------------------------------------

         :::::::::::::::::::::::::::::::::::::::::::::::::::::
         ::                  THERMODYNAMIC                  ::
         :::::::::::::::::::::::::::::::::::::::::::::::::::::
         :: total free energy         -88.570400518615 Eh   ::
         ::.................................................::
         :: total energy              -88.958913064998 Eh   ::
         :: zero point energy           0.445227935568 Eh   ::
         :: G(RRHO) w/o ZPVE           -0.056715389186 Eh   ::
         :: G(RRHO) contrib.            0.388512546383 Eh   ::
         :::::::::::::::::::::::::::::::::::::::::::::::::::::

           -------------------------------------------------
          | TOTAL ENERGY              -88.958913064998 Eh   |
          | TOTAL ENTHALPY            -88.484487868381 Eh   |
          | TOTAL FREE ENERGY         -88.570400518615 Eh   |
          | GRADIENT NORM               0.000034814061 Eh/α |
           -------------------------------------------------

 * finished run on 2025/07/18 at 16:23:36.667
