   * xtb version 6.7.1 (edcfbbe) compiled by 'albert@albert-system' on 2024-07-22

   ID    Z sym.   atoms
    1    6 C      1-8, 10-19, 23-39, 43-45, 47-58
    2    7 N      9, 20, 22, 40, 42, 46
    3   16 S      21, 41
    4    1 H      59-100

          program call               : xtb data2507/gas/BTZPP/BTZPP.xyz --gfn 2 --ohess vtight --parallel 40 --molden --ceasefiles --namespace data2507/gas/BTZPP/BTZPP_gas_S0_preOpt
          :  Hamiltonian                  GFN2-xTB          :
 * total energy  :  -152.5429643 Eh     change       -0.4063480E-08 Eh
 * total energy  :  -152.5684906 Eh     change       -0.2552627E-01 Eh
 * total energy  :  -152.5759473 Eh     change       -0.7456734E-02 Eh
 * total energy  :  -152.5785943 Eh     change       -0.2646949E-02 Eh
 * total energy  :  -152.5808923 Eh     change       -0.2298027E-02 Eh
 * total energy  :  -152.5820153 Eh     change       -0.1123024E-02 Eh
 * total energy  :  -152.5827038 Eh     change       -0.6884391E-03 Eh
 * total energy  :  -152.5832821 Eh     change       -0.5783100E-03 Eh
 * total energy  :  -152.5838175 Eh     change       -0.5354174E-03 Eh
 * total energy  :  -152.5843223 Eh     change       -0.5048408E-03 Eh
 * total energy  :  -152.5874968 Eh     change       -0.7013137E-06 Eh
 * total energy  :  -152.5874973 Eh     change       -0.5037384E-06 Eh
 * total energy  :  -152.5874976 Eh     change       -0.3614884E-06 Eh
 * total energy  :  -152.5874979 Eh     change       -0.2519668E-06 Eh
 * total energy  :  -152.5874981 Eh     change       -0.2094350E-06 Eh
 * total energy  :  -152.5874983 Eh     change       -0.1882686E-06 Eh
 * total energy  :  -152.5874984 Eh     change       -0.1565285E-06 Eh
 * total energy  :  -152.5874985 Eh     change       -0.1088501E-06 Eh
 * total energy  :  -152.5874986 Eh     change       -0.7475663E-07 Eh
   *** GEOMETRY OPTIMIZATION CONVERGED AFTER 66 ITERATIONS ***

 final structure:
================
100
 xtb: 6.7.1 (edcfbbe)
C           -6.58158146151522        4.58174542334268       -0.30605601168570
C           -5.17141526537855        5.07718283675814        0.04484632135776
C           -4.79685950278728        6.18762825219086       -0.94042104359744
C           -5.16583515113707        5.67186892122410        1.46018757544961
C           -4.20924123203950        3.90113673860428       -0.00354527625443
C           -3.11004441503915        3.85474398396002       -0.85221343930252
C           -2.26508622939281        2.76012129176850       -0.87750699542666
C           -2.49574661870848        1.67298064853629       -0.04450975365793
N           -1.62449966961970        0.57814279217869       -0.07094697128032
C           -1.94800761335315       -0.76286255408187        0.07494765678249
C           -3.30486332559479       -1.26964793742904        0.00148927446086
C           -3.68041214396726       -2.37759307390132        0.76485239278907
C           -4.95776831805911       -2.88875878517525        0.69464250607462
C           -5.91446792299621       -2.30830767202421       -0.13882675220042
C           -7.28110216782202       -2.82579818507546       -0.19706763097389
C           -8.36772372309512       -2.00117142090407       -0.39889363199436
C           -9.68827959203183       -2.47833385547418       -0.46337823296399
C           -9.98502882325376       -3.80694266964268       -0.33286466652347
C           -8.91652457258956       -4.69326783938489       -0.12580640588726
N           -8.98567608727381       -6.01792202339525        0.01850740553775
S           -7.49840791264959       -6.59051594701597        0.22096569050607
N           -6.69292148405583       -5.20225168240307        0.14153872719792
C           -7.56113843704615       -4.20838912497456       -0.04929495866791
C           -5.53324269731562       -1.21537941638515       -0.92001738160264
C           -4.25393187236839       -0.70942943206893       -0.85807969857496
C           -0.79154491844504       -1.52036171318273        0.18018857078556
C            0.27553347336855       -0.61490450053108        0.10069719465366
C           -0.25823493202862        0.67183199739585       -0.06351977604135
C            0.80897134522674        1.57680804459625       -0.14393336763653
C            1.96553336728191        0.81892403979201       -0.03950827129598
C            3.32139634005417        1.32986165746746        0.03014544663535
C            4.27635834654267        0.77500561022764        0.88620887973791
C            5.54891734284086        1.29806058094465        0.95448785239608
C            5.92008818712006        2.39407264106120        0.17348897616269
C            7.27215970308081        2.94668897128977        0.25432102135544
C            7.98656162639670        2.96939186377103        1.43326630617249
C            9.28640312475265        3.49597600679386        1.52941397706092
C            9.93664987383507        4.02151721377977        0.44715292131756
C            9.25688081298872        4.02240622065640       -0.78092003094131
N            9.70886329824956        4.47591688104514       -1.95155880053488
S            8.57147795673789        4.25006821209720       -3.06329005418040
N            7.45224952173518        3.57392556834755       -2.12917408489926
C            7.92031435286990        3.49237378799928       -0.88321048375288
C            4.96446715667830        2.95354410818962       -0.67528625603056
C            3.68977011530454        2.43531919680770       -0.74019807918369
N            1.64184964796043       -0.52132172971243        0.10814189941767
C            2.51048166393693       -1.61880342034647        0.08043756149340
C            3.59006176515226       -1.66655735023534       -0.79317232332577
C            4.42792432290881       -2.76608649152619       -0.80672346615301
C            4.21244758355322       -3.85517094299389        0.02984384820163
C            5.11168307231452       -5.08094369885801        0.04474250533951
C            4.27666259037174       -6.32042713565774       -0.30637369815263
C            5.71461605949620       -5.24003246373039        1.44782200539426
C            6.26214581171782       -4.98073762322197       -0.96034343491708
C            3.11448010694932       -3.79931972063716        0.88553723543100
C            2.27538916511144       -2.70457896363128        0.91728456685035
C           -3.57909127744832        1.71396595398326        0.82827393399461
C           -4.41894114614048        2.80773352017118        0.83495361740190
H           -7.28469010842401        5.41186417638784       -0.29196758414712
H           -6.92578698086813        3.83214355582619        0.40102182923214
H           -6.58795872153409        4.14072094097281       -1.30078513431451
H           -5.51879065852660        6.99818352626895       -0.86378443440630
H           -3.81284284370082        6.59343083057411       -0.71748624295689
H           -4.80972985220278        5.82322194570548       -1.96503994837318
H           -5.83599337280458        6.52749385764342        1.50957310956701
H           -4.16358823307355        6.00245874072726        1.72480757163753
H           -5.48970010614567        4.94333692921646        2.19812694296194
H           -2.89526414814514        4.67389228821379       -1.51869700681486
H           -1.42632170502547        2.73861079754605       -1.55684298476007
H           -2.95927708211984       -2.82534353471786        1.43227088378404
H           -5.23020008818989       -3.73941331579446        1.29884467600136
H           -8.20554149070929       -0.93752437756249       -0.49168942624754
H          -10.48516411260548       -1.76574471168203       -0.61843382701668
H          -10.99319290719431       -4.18441846937572       -0.38246888296743
H           -6.24032609009849       -0.77834020078563       -1.60990364656340
H           -3.97809595424940        0.11716013768308       -1.49613653558737
H           -0.75182612020926       -2.58902907509174        0.25159849176151
H            0.76916289145226        2.64544301435301       -0.21634082291036
H            4.01347716715363       -0.06575116793478        1.51112677205071
H            6.27448033089172        0.83634180218086        1.60823791561821
H            7.52411637849844        2.58755909477595        2.33130225436300
H            9.77594751895962        3.48317883634628        2.49220697207401
H           10.93325287934191        4.42686460085419        0.50898812068223
H            5.23095742118193        3.80273334784086       -1.28422067547949
H            2.96447622222692        2.87656508019296       -1.40747254062010
H            3.77411671289102       -0.84096281427564       -1.46393969035190
H            5.25548055383729       -2.75834297021972       -1.49659773850015
H            3.82473743272778       -6.20273777006942       -1.28908702285113
H            3.48200815385011       -6.48219063477547        0.41649084972546
H            4.90869247547741       -7.20583807915709       -0.32067728329711
H            6.37543878146370       -6.10382410260068        1.47592344761892
H            4.94160976026700       -5.37889124948509        2.19851191254825
H            6.29116603940916       -4.35561197878395        1.71116526522467
H            6.90171758093658       -4.12908744804996       -0.74041399237604
H            6.87100828271139       -5.88091688266493       -0.90454195838704
H            5.88680257002597       -4.89236203193938       -1.97719111440373
H            2.90482668561562       -4.62259811757169        1.55159868363376
H            1.43919704366753       -2.67750833115003        1.59954841922185
H           -3.75881588148297        0.88795741112091        1.49965264113633
H           -5.25228264667893        2.80415175791300        1.52097684215748

          :  Hamiltonian                  GFN2-xTB          :
         :: gradient norm              0.000049123112 Eh/a0 ::
         :: HOMO-LUMO gap              1.099260156923 eV    ::
         :: SCC energy              -155.155046524457 Eh    ::
         :: -> dispersion             -0.137576534658 Eh    ::
         :: repulsion energy           2.567547910264 Eh    ::

    * Orbital Energies and Occupations

         #    Occupation            Energy/Eh            Energy/eV
      -------------------------------------------------------------
         1        2.0000           -0.7567026             -20.5909
       ...           ...                  ...                  ...
       130        2.0000           -0.4055333             -11.0351
       131        2.0000           -0.4050658             -11.0224
       132        2.0000           -0.4046170             -11.0102
       133        2.0000           -0.4032184             -10.9721
       134        2.0000           -0.4020799             -10.9412
       135        2.0000           -0.4010244             -10.9124
       136        2.0000           -0.4002157             -10.8904
       137        2.0000           -0.3987467             -10.8505
       138        2.0000           -0.3862133             -10.5094
       139        2.0000           -0.3848808             -10.4731
       140        2.0000           -0.3767770             -10.2526
       141        2.0000           -0.3561775              -9.6921
       142        2.0000           -0.3419261              -9.3043 (HOMO)
       143                         -0.3015290              -8.2050 (LUMO)
       144                         -0.3006809              -8.1819
       145                         -0.2544533              -6.9240
       146                         -0.2399211              -6.5286
       147                         -0.2283182              -6.2129
       148                         -0.2248399              -6.1182
       149                         -0.2241059              -6.0982
       150                         -0.2222959              -6.0490
       151                         -0.2170804              -5.9071
       152                         -0.2168921              -5.9019
       153                         -0.2159585              -5.8765
       ...                                ...                  ...
       284                          0.7350609              20.0020
      -------------------------------------------------------------
                  HL-Gap            0.0403971 Eh            1.0993 eV

     #   Z          covCN         q      C6AA      α(0)
     1   6 C        3.762    -0.106    22.562     6.771
     2   6 C        3.903     0.026    20.084     6.370
     3   6 C        3.761    -0.108    22.612     6.779
     4   6 C        3.762    -0.106    22.571     6.772
     5   6 C        2.973     0.005    27.907     8.665
     6   6 C        2.925    -0.039    28.977     8.828
     7   6 C        2.922    -0.047    29.177     8.858
     8   6 C        2.914     0.062    26.613     8.459
     9   7 N        2.818    -0.028    21.781     6.932
    10   6 C        3.113     0.023    27.329     8.564
    11   6 C        2.971     0.010    27.787     8.647
    12   6 C        2.924    -0.037    28.915     8.818
    13   6 C        2.922    -0.030    28.759     8.794
    14   6 C        2.975     0.010    27.798     8.648
    15   6 C        2.964     0.001    27.996     8.679
    16   6 C        2.926    -0.039    28.982     8.828
    17   6 C        2.919    -0.030    28.739     8.791
    18   6 C        2.907    -0.045    29.124     8.849
    19   6 C        3.354     0.075    23.647     7.652
    20   7 N        1.852    -0.271    27.879     7.826
    21  16 S        2.679     0.321   128.637    19.089
    22   7 N        1.853    -0.267    27.783     7.812
    23   6 C        3.346     0.072    23.850     7.707
    24   6 C        2.923    -0.035    28.861     8.810
    25   6 C        2.922    -0.035    28.875     8.812
    26   6 C        2.999    -0.082    30.048     8.992
    27   6 C        3.228     0.010    26.991     8.439
    28   6 C        3.227     0.010    27.002     8.442
    29   6 C        3.000    -0.083    30.059     8.994
    30   6 C        3.113     0.024    27.326     8.563
    31   6 C        2.971     0.010    27.787     8.647
    32   6 C        2.922    -0.035    28.880     8.813
    33   6 C        2.923    -0.035    28.860     8.810
    34   6 C        2.975     0.010    27.795     8.648
    35   6 C        2.964     0.001    27.994     8.678
    36   6 C        2.925    -0.039    28.977     8.828
    37   6 C        2.919    -0.029    28.736     8.791
    38   6 C        2.907    -0.045    29.123     8.849
    39   6 C        3.354     0.075    23.649     7.652
    40   7 N        1.852    -0.271    27.877     7.825
    41  16 S        2.679     0.322   128.628    19.088
    42   7 N        1.853    -0.267    27.788     7.813
    43   6 C        3.347     0.072    23.842     7.704
    44   6 C        2.922    -0.030    28.751     8.793
    45   6 C        2.925    -0.037    28.912     8.818
    46   7 N        2.818    -0.028    21.776     6.931
    47   6 C        2.914     0.062    26.620     8.460
    48   6 C        2.921    -0.045    29.112     8.848
    49   6 C        2.926    -0.038    28.956     8.825
    50   6 C        2.973     0.005    27.902     8.664
    51   6 C        3.903     0.026    20.084     6.370
    52   6 C        3.762    -0.106    22.572     6.773
    53   6 C        3.762    -0.106    22.565     6.772
    54   6 C        3.761    -0.108    22.612     6.779
    55   6 C        2.928    -0.035    28.872     8.812
    56   6 C        2.922    -0.047    29.169     8.857
    57   6 C        2.920    -0.045    29.109     8.848
    58   6 C        2.928    -0.034    28.858     8.810
    59   1 H        0.925     0.038     2.477     2.461
    60   1 H        0.925     0.036     2.497     2.471
    61   1 H        0.925     0.034     2.534     2.490
    62   1 H        0.925     0.037     2.489     2.467
    63   1 H        0.925     0.036     2.497     2.471
    64   1 H        0.925     0.036     2.500     2.473
    65   1 H        0.925     0.038     2.476     2.461
    66   1 H        0.925     0.034     2.525     2.485
    67   1 H        0.925     0.037     2.494     2.470
    68   1 H        0.926     0.040     2.443     2.444
    69   1 H        0.926     0.039     2.457     2.451
    70   1 H        0.926     0.035     2.520     2.483
    71   1 H        0.926     0.048     2.350     2.397
    72   1 H        0.926     0.040     2.449     2.447
    73   1 H        0.926     0.038     2.470     2.458
    74   1 H        0.926     0.046     2.369     2.407
    75   1 H        0.926     0.030     2.585     2.514
    76   1 H        0.926     0.029     2.600     2.522
    77   1 H        0.926     0.027     2.623     2.533
    78   1 H        0.926     0.026     2.639     2.540
    79   1 H        0.926     0.029     2.599     2.521
    80   1 H        0.926     0.030     2.589     2.516
    81   1 H        0.926     0.040     2.446     2.446
    82   1 H        0.926     0.039     2.466     2.456
    83   1 H        0.926     0.046     2.367     2.406
    84   1 H        0.926     0.047     2.360     2.402
    85   1 H        0.926     0.035     2.516     2.480
    86   1 H        0.926     0.036     2.503     2.474
    87   1 H        0.926     0.041     2.441     2.443
    88   1 H        0.925     0.035     2.523     2.484
    89   1 H        0.925     0.037     2.490     2.468
    90   1 H        0.925     0.038     2.477     2.461
    91   1 H        0.925     0.038     2.476     2.461
    92   1 H        0.925     0.037     2.494     2.469
    93   1 H        0.925     0.034     2.534     2.489
    94   1 H        0.925     0.036     2.501     2.473
    95   1 H        0.925     0.037     2.489     2.467
    96   1 H        0.925     0.036     2.498     2.471
    97   1 H        0.926     0.034     2.535     2.490
    98   1 H        0.926     0.039     2.462     2.454
    99   1 H        0.926     0.035     2.520     2.482
   100   1 H        0.926     0.033     2.545     2.495

molecular dipole:
                 x           y           z       tot (Debye)
 q only:       -0.018       0.111       0.143
   full:       -0.121       0.328       0.407       1.365

 projected vibrational frequencies (cm⁻¹)
eigval :       -0.00    -0.00    -0.00     0.00     0.00     0.00
eigval :        7.03    11.54    12.26    14.40    18.16    19.46
eigval :       21.18    25.37    27.94    31.46    44.73    52.53
eigval :       58.40    67.95    69.96    73.85    81.42    82.57
eigval :       93.13   100.57   108.54   117.02   123.59   152.23
eigval :      155.09   167.95   171.72   173.05   178.85   181.04
eigval :      189.79   199.70   203.20   218.28   221.61   222.39
eigval :      232.57   235.99   247.62   262.90   265.19   283.51
eigval :      285.50   295.50   310.71   315.94   316.03   322.57
eigval :      334.27   341.37   350.30   358.52   365.77   367.81
eigval :      375.41   376.18   378.51   386.87   388.05   392.24
eigval :      395.58   423.79   428.65   429.82   438.73   448.31
eigval :      453.26   458.64   461.49   468.69   471.46   485.72
eigval :      500.40   513.71   519.68   520.13   536.56   538.77
eigval :      545.21   549.74   581.99   585.30   586.08   587.66
eigval :      594.83   597.85   602.02   604.15   608.39   610.92
eigval :      623.52   625.37   640.92   647.64   658.15   674.13
eigval :      691.49   692.33   694.77   713.27   727.53   732.21
eigval :      732.79   733.76   741.62   769.59   783.93   791.01
eigval :      791.46   792.31   809.32   816.49   817.10   820.68
eigval :      821.30   840.26   840.62   864.53   865.12   870.11
eigval :      870.96   871.47   874.47   879.25   882.50   883.19
eigval :      883.38   886.38   897.85   900.86   913.17   913.70
eigval :      915.10   916.00   919.08   919.14   925.12   925.43
eigval :      928.00   928.63   931.82   951.13   960.64   960.69
eigval :      961.07   962.76   963.40   963.66   964.17   981.55
eigval :     1008.75  1017.65  1028.10  1034.82  1035.48  1035.73
eigval :     1035.82  1041.46  1088.68  1090.11  1091.45  1101.46
eigval :     1140.49  1141.27  1142.92  1143.66  1147.10  1148.49
eigval :     1149.13  1150.83  1165.29  1173.89  1179.50  1180.11
eigval :     1203.10  1209.00  1209.89  1213.72  1220.39  1228.04
eigval :     1228.08  1234.37  1234.46  1272.82  1273.55  1276.03
eigval :     1277.78  1280.99  1281.63  1282.78  1286.44  1303.86
eigval :     1307.82  1308.77  1309.12  1311.04  1311.58  1320.71
eigval :     1320.82  1325.05  1325.32  1344.55  1345.70  1384.33
eigval :     1384.95  1389.88  1393.20  1400.79  1401.18  1405.98
eigval :     1406.14  1410.65  1411.21  1416.01  1416.21  1420.70
eigval :     1429.70  1429.79  1458.15  1471.28  1483.17  1491.77
eigval :     1491.89  1492.59  1493.19  1494.42  1494.44  1496.72
eigval :     1500.65  1503.40  1503.53  1507.53  1507.76  1514.53
eigval :     1514.73  1519.66  1519.70  1525.32  1530.28  1531.45
eigval :     1537.94  1549.69  1551.38  1570.35  1571.20  1581.40
eigval :     1581.58  1590.41  1593.11  1597.34  1604.91  1605.63
eigval :     3023.18  3023.26  3024.70  3024.95  3027.75  3028.07
eigval :     3031.35  3031.54  3032.06  3032.27  3036.51  3036.85
eigval :     3039.41  3039.47  3047.31  3047.36  3050.98  3051.07
eigval :     3075.15  3075.41  3080.25  3080.76  3083.26  3083.85
eigval :     3085.40  3085.64  3088.90  3089.10  3091.51  3091.69
eigval :     3092.46  3093.00  3096.40  3096.70  3108.75  3109.09
eigval :     3111.91  3111.96  3115.44  3117.97  3166.76  3167.59

   temp. (K)  partition function   enthalpy   heat capacity  entropy
                                   cal/mol     cal/K/mol   cal/K/mol   J/K/mol
 298.15  VIB  0.679E+25            30192.154    184.223    189.674
         ROT  0.257E+09              888.752      2.981     41.461
         INT  0.174E+34            31080.907    187.204    231.135
         TR   0.215E+29             1481.254      4.968     45.862
         TOT                       32562.1607   192.1723   276.9971  1158.9557

       T/K    H(0)-H(T)+PV         H(T)/Eh          T*S/Eh         G(T)/Eh
   ------------------------------------------------------------------------
    298.15    0.518911E-01    0.833123E+00    0.131610E+00    0.701513E+00
   ------------------------------------------------------------------------

         :::::::::::::::::::::::::::::::::::::::::::::::::::::
         ::                  THERMODYNAMIC                  ::
         :::::::::::::::::::::::::::::::::::::::::::::::::::::
         :: total free energy        -151.885985856068 Eh   ::
         ::.................................................::
         :: total energy             -152.587498614200 Eh   ::
         :: zero point energy           0.781231888915 Eh   ::
         :: G(RRHO) w/o ZPVE           -0.079719130783 Eh   ::
         :: G(RRHO) contrib.            0.701512758132 Eh   ::
         :::::::::::::::::::::::::::::::::::::::::::::::::::::

           -------------------------------------------------
          | TOTAL ENERGY             -152.587498614200 Eh   |
          | TOTAL ENTHALPY           -151.754375619154 Eh   |
          | TOTAL FREE ENERGY        -151.885985856068 Eh   |
          | GRADIENT NORM               0.000049242126 Eh/α |
          | HOMO-LUMO GAP               1.099260161288 eV   |
           -------------------------------------------------

 * finished run on 2025/07/20 at 01:32:52.157
