   * xtb version 6.7.1 (edcfbbe) compiled by 'albert@albert-system' on 2024-07-22

   ID    Z sym.   atoms
    1    6 C      1-8, 10-19, 23-39, 43-45, 47-58
    2    7 N      9, 20, 22, 40, 42, 46
    3   16 S      21, 41
    4    1 H      59-100

          program call               : xtb data2507/gas/BTZPP/BTZPP_gas_S0_finalOpt.xtbopt.xyz --gfn 2 --spinpol --tblite --uhf 2 --ohess vtight --parallel 40 --molden --ceasefiles --namespace data2507/gas/BTZPP/BTZPP_gas_T1_preOpt
 * total energy  :  -152.5242224 Eh     change       -0.4811696E-07 Eh
 * total energy  :  -152.5276508 Eh     change       -0.3428386E-02 Eh
 * total energy  :  -152.5290918 Eh     change       -0.1441009E-02 Eh
 * total energy  :  -152.5294143 Eh     change       -0.3224520E-03 Eh
 * total energy  :  -152.5298176 Eh     change       -0.4033529E-03 Eh
 * total energy  :  -152.5300579 Eh     change       -0.2402567E-03 Eh
 * total energy  :  -152.5302359 Eh     change       -0.1780046E-03 Eh
 * total energy  :  -152.5303489 Eh     change       -0.1130032E-03 Eh
 * total energy  :  -152.5304082 Eh     change       -0.5934254E-04 Eh
 * total energy  :  -152.5304496 Eh     change       -0.4134635E-04 Eh
 * total energy  :  -152.5308009 Eh     change       -0.5021433E-06 Eh
 * total energy  :  -152.5308013 Eh     change       -0.4113840E-06 Eh
 * total energy  :  -152.5308017 Eh     change       -0.3680661E-06 Eh
 * total energy  :  -152.5308023 Eh     change       -0.6015192E-06 Eh
 * total energy  :  -152.5308029 Eh     change       -0.6035015E-06 Eh
 * total energy  :  -152.5308035 Eh     change       -0.6171254E-06 Eh
 * total energy  :  -152.5308040 Eh     change       -0.4786765E-06 Eh
 * total energy  :  -152.5308043 Eh     change       -0.3912314E-06 Eh
 * total energy  :  -152.5308044 Eh     change       -0.3643791E-07 Eh
   *** GEOMETRY OPTIMIZATION CONVERGED AFTER 68 ITERATIONS ***

 final structure:
================
100
 xtb: 6.7.1 (edcfbbe)
C           -6.43213645548117        4.73349522048855        0.19331343492138
C           -4.99633485322264        5.21070536176248       -0.06851114840644
C           -4.90491713185028        5.85318671411424       -1.45977574912186
C           -4.64802662453280        6.27732768917624        0.97319486979865
C           -4.06785113044668        4.00941411846363       -0.01012197107388
C           -4.25182775514169        2.95771764216088       -0.90684073157905
C           -3.45582702987034        1.83251790867995       -0.87913096083064
C           -2.45032145391996        1.71849419969727        0.07534570226288
N           -1.63452503654257        0.57394166836131        0.13359474256937
C           -2.01741473796620       -0.74650564420070       -0.02403620875180
C           -3.37115403195040       -1.20067962312871        0.02333102382178
C           -4.37557228332463       -0.51315402931893        0.73344555856089
C           -5.67052555377763       -0.95582402375905        0.73533359583560
C           -6.05295603120116       -2.11773347773188        0.03978120561872
C           -7.42818010597092       -2.55716093713606        0.01840382818325
C           -7.77744322744093       -3.89484201514425       -0.19515487045293
C           -9.09475480248474       -4.33776669070752       -0.22241308030114
C          -10.15729850893024       -3.47327061175274       -0.05503413044532
C           -9.87062001244292       -2.12105454385099        0.15805034946500
N          -10.75704420941695       -1.13706022474560        0.32700509045737
S           -9.95196222165122        0.25250045796656        0.52539524116874
N           -8.44049778253884       -0.33720362771830        0.40630614336741
C           -8.50727487607212       -1.65225391584276        0.20989257039733
C           -5.03901290253520       -2.82933001002446       -0.62989595022928
C           -3.74221876764175       -2.38883548061264       -0.63586727865281
C           -0.86676899605741       -1.56195376218904       -0.13639227314448
C            0.21878779706420       -0.71646280317343       -0.02710654466736
C           -0.26522287783906        0.61047811254627        0.14531377829485
C            0.81992001391545        1.45650200680974        0.25227942619990
C            1.97103280522815        0.64139983577537        0.13910756310783
C            3.32278076365190        1.09935950523536        0.08289605394232
C            3.69086205090036        2.29677955373036        0.72742071998076
C            4.98319521759907        2.74881096752796        0.70315165530367
C            5.99652075233356        2.04053469051418        0.02852715684426
C            7.36569434408157        2.49783147768202        0.02342767652925
C            7.69972823968189        3.84278920123066        0.21762040940891
C            9.01049715424017        4.30466966066006        0.21718359622189
C           10.08248110355470        3.45367557050965        0.03944486869963
C            9.81155601478353        2.09552599859856       -0.15525793104267
N           10.70914352527166        1.12284430267332       -0.33060873779944
S            9.92108637443960       -0.28013085062650       -0.50157434726960
N            8.40343011643520        0.28904064117045       -0.36126508519672
C            8.45442443913012        1.60663428454676       -0.17836225128855
C            5.61797251512534        0.86517853387125       -0.64674284413819
C            4.32729774444588        0.41081093598184       -0.62644525673806
N            1.58839217922754       -0.67960730788848       -0.01628208832853
C            2.40232476283915       -1.82489206621412        0.05093379244772
C            2.18029668420142       -2.88131587748610       -0.82043315563692
C            2.97309493917104       -4.01379766431802       -0.75882891359976
C            4.00520064074616       -4.12524345341109        0.16481039783254
C            4.92199071177058       -5.33445612952042        0.24203833383595
C            6.36290800883572       -4.87601710336886       -0.02484548526695
C            4.56406908902644       -6.41318505660902       -0.78380459139258
C            4.82228337521490       -5.95494553484383        1.64273297887320
C            4.19749350999359       -3.06263599643370        1.04678957928549
C            3.40875715212563       -1.93273897601927        1.00519825445580
C           -2.23384895544940        2.76601040495247        0.95870372136895
C           -3.03401197034743        3.89400963608316        0.91109617200293
H           -7.11698728006110        5.57813202183320        0.16734521798904
H           -6.50016586805171        4.26390538079221        1.17224587265217
H           -6.75344546182840        4.01068431276444       -0.55102440865000
H           -5.54985022586929        6.72764803437673       -1.50931843610327
H           -3.88303211973374        6.16635602863022       -1.66413897421252
H           -5.21215062248734        5.16139753489831       -2.23875304011716
H           -5.34331390549653        7.10930572120310        0.88430049860221
H           -3.64283388079839        6.66318364209364        0.81899464621089
H           -4.72903110169968        5.88098413298125        1.98263040771426
H           -5.03282397497123        3.00960539666487       -1.64896584328168
H           -3.61715306605076        1.03455908650672       -1.58792827360142
H           -4.11510872628338        0.35702532878501        1.31601671198253
H           -6.42011328709901       -0.41250008896902        1.28680427614601
H           -6.99198128088887       -4.62660740601799       -0.30714895283471
H           -9.28772013911359       -5.38934686267590       -0.37750399842606
H          -11.18112474690047       -3.80848039736198       -0.08301672162899
H           -5.29078833569187       -3.71592348554771       -1.19158372345541
H           -2.99673429319709       -2.93273563121123       -1.19647014647807
H           -0.87290369706655       -2.62961594342631       -0.22317295730454
H            0.82497660852116        2.52425891225127        0.33769508090455
H            2.94657107829353        2.83999256291190        1.29023096865024
H            5.23260139143768        3.64333466628993        1.25317512837310
H            6.90601840442356        4.56455029478200        0.33593703642552
H            9.19095918525696        5.36043249984205        0.35829353780798
H           11.10166488637064        3.80376838080758        0.04573848406691
H            6.36721651921075        0.32167672509389       -1.19854305967677
H            4.06944567527776       -0.46941207490747       -1.19495085458927
H            1.39719605945411       -2.80648655310308       -1.56017424991124
H            2.77358628529710       -4.80848833384133       -1.45847946578996
H            6.69110376104480       -4.14667387779155        0.71006543609037
H            6.43679067405781       -4.42059091184928       -1.01003165368011
H            7.03878246342975       -5.72740210856028        0.01337604921010
H            5.25014391977900       -7.25115240793322       -0.68072020852163
H            4.65111807639687       -6.03338262953877       -1.79907341900044
H            3.55450345038181       -6.78575546831629       -0.62557710061671
H            3.79713426748174       -6.25525565217064        1.85004519355970
H            5.45878151244910       -6.83463874090384        1.70661745848629
H            5.13481158474961       -5.25440185337795        2.41172075928079
H            4.97866163434285       -3.11002188458173        1.78906486124646
H            3.57569922469091       -1.12697504269599        1.70380254208877
H           -1.45010575678564        2.68700533822389        1.69738424183322
H           -2.83946505664166        4.68140342506166        1.62033077824586

 projected vibrational frequencies (cm⁻¹)
eigval :       -0.00    -0.00     0.00     0.00     0.00     0.00
eigval :       -0.86     9.55    11.67    12.63    14.77    16.86
eigval :       22.11    25.33    26.33    30.63    42.96    45.44
eigval :       52.28    61.97    69.20    75.57    75.97    80.06
eigval :       97.45    97.86   109.66   114.24   134.95   138.72
eigval :      159.13   164.29   166.80   171.04   180.26   184.27
eigval :      198.42   203.10   204.36   212.42   219.59   222.63
eigval :      223.37   232.76   248.77   257.28   263.14   270.60
eigval :      283.49   298.91   306.24   315.57   315.87   317.88
eigval :      325.39   341.24   352.62   357.79   364.73   366.11
eigval :      367.09   377.10   380.69   386.73   389.30   392.01
eigval :      399.52   419.00   420.11   422.51   432.52   441.64
eigval :      443.38   451.47   457.00   457.29   463.73   474.41
eigval :      487.77   499.99   500.21   508.15   526.75   528.04
eigval :      537.48   546.81   572.34   573.20   582.14   583.20
eigval :      589.04   593.75   598.65   600.32   602.99   610.25
eigval :      620.48   620.74   631.01   652.01   652.29   670.15
eigval :      687.52   688.10   692.49   712.59   719.00   720.35
eigval :      723.56   726.30   737.21   758.64   768.39   768.92
eigval :      777.67   778.78   784.89   798.37   814.05   815.70
eigval :      816.13   819.07   820.69   828.31   843.86   847.44
eigval :      854.38   855.62   856.10   864.24   869.14   869.45
eigval :      871.40   874.19   881.68   887.37   904.91   905.09
eigval :      912.45   913.14   914.33   914.69   920.54   920.57
eigval :      923.28   927.79   928.03   940.71   942.33   961.00
eigval :      961.01   962.48   962.84   963.68   963.71   979.02
eigval :      996.50  1005.28  1018.13  1032.86  1035.04  1035.17
eigval :     1035.72  1035.73  1055.78  1078.10  1087.99  1097.11
eigval :     1102.19  1133.16  1135.28  1141.44  1142.41  1147.25
eigval :     1148.65  1149.76  1151.09  1162.45  1180.92  1181.39
eigval :     1187.34  1196.21  1204.00  1209.10  1217.64  1223.38
eigval :     1225.89  1227.76  1227.78  1233.64  1233.68  1266.90
eigval :     1274.32  1276.15  1277.31  1278.55  1285.34  1287.81
eigval :     1292.45  1295.38  1303.00  1309.18  1309.43  1320.87
eigval :     1321.19  1330.29  1330.48  1333.71  1335.47  1349.26
eigval :     1352.80  1356.84  1389.18  1395.10  1398.30  1400.30
eigval :     1402.57  1407.02  1407.05  1410.17  1412.16  1425.92
eigval :     1429.99  1430.00  1433.61  1439.14  1447.74  1458.57
eigval :     1476.46  1484.13  1488.83  1489.24  1490.14  1490.86
eigval :     1490.90  1491.09  1492.96  1492.99  1497.82  1501.86
eigval :     1502.02  1505.78  1505.88  1510.88  1514.79  1514.80
eigval :     1518.81  1518.84  1524.48  1531.19  1559.87  1568.92
eigval :     1569.20  1574.01  1577.35  1588.67  1601.68  1602.11
eigval :     3025.66  3025.66  3027.29  3027.32  3029.27  3029.27
eigval :     3032.91  3032.96  3034.48  3034.52  3037.34  3037.35
eigval :     3041.14  3041.18  3050.70  3050.77  3054.31  3054.43
eigval :     3076.80  3076.86  3081.63  3081.84  3087.02  3087.38
eigval :     3089.60  3089.69  3091.49  3091.64  3094.48  3094.62
eigval :     3096.98  3097.36  3102.10  3102.28  3109.82  3110.22
eigval :     3118.45  3118.47  3118.69  3118.93  3175.99  3176.23

   temp. (K)  partition function   enthalpy   heat capacity  entropy
                                   cal/mol     cal/K/mol   cal/K/mol   J/K/mol
 298.15  VIB  0.912E+24            29928.296    184.735    186.526
         ROT  0.236E+09              888.752      2.981     41.294
         INT  0.215E+33            30817.048    187.716    227.820
         TR   0.215E+29             1481.254      4.968     45.862
         TOT                       32298.3019   192.6837   273.6815  1145.0834

       T/K    H(0)-H(T)+PV         H(T)/Eh          T*S/Eh         G(T)/Eh
   ------------------------------------------------------------------------
    298.15    0.514706E-01    0.828535E+00    0.130035E+00    0.698500E+00
   ------------------------------------------------------------------------

         :::::::::::::::::::::::::::::::::::::::::::::::::::::
         ::                  THERMODYNAMIC                  ::
         :::::::::::::::::::::::::::::::::::::::::::::::::::::
         :: total free energy        -151.832304493422 Eh   ::
         ::.................................................::
         :: total energy             -152.530804253587 Eh   ::
         :: zero point energy           0.777064047230 Eh   ::
         :: G(RRHO) w/o ZPVE           -0.078564287065 Eh   ::
         :: G(RRHO) contrib.            0.698499760165 Eh   ::
         :::::::::::::::::::::::::::::::::::::::::::::::::::::

           -------------------------------------------------
          | TOTAL ENERGY             -152.530804253587 Eh   |
          | TOTAL ENTHALPY           -151.702269586057 Eh   |
          | TOTAL FREE ENERGY        -151.832304493422 Eh   |
          | GRADIENT NORM               0.000085198593 Eh/α |
           -------------------------------------------------

 * finished run on 2025/07/20 at 01:42:41.400
