   * xtb version 6.7.1 (edcfbbe) compiled by 'albert@albert-system' on 2024-07-22

   ID    Z sym.   atoms
    1    6 C      1-8, 10-19, 23-39, 43-45, 47-58
    2    7 N      9, 20, 22, 40, 42, 46
    3   16 S      21, 41
    4    1 H      59-100

          program call               : xtb data2507/gas/BTZPP/BTZPP_gas_S0_crest.xyz --gfn 2 --ohess vtight --parallel 40 --molden --ceasefiles --namespace data2507/gas/BTZPP/BTZPP_gas_S0_finalOpt
          :  Hamiltonian                  GFN2-xTB          :
 * total energy  :  -152.5882479 Eh     change       -0.5173661E-08 Eh
 * total energy  :  -152.5882497 Eh     change       -0.1774008E-05 Eh
 * total energy  :  -152.5882522 Eh     change       -0.2447532E-05 Eh
 * total energy  :  -152.5882541 Eh     change       -0.1933835E-05 Eh
 * total energy  :  -152.5882565 Eh     change       -0.2435577E-05 Eh
 * total energy  :  -152.5882602 Eh     change       -0.3687244E-05 Eh
 * total energy  :  -152.5882645 Eh     change       -0.4293621E-05 Eh
 * total energy  :  -152.5882688 Eh     change       -0.4324577E-05 Eh
 * total energy  :  -152.5882739 Eh     change       -0.5071158E-05 Eh
 * total energy  :  -152.5882805 Eh     change       -0.6568954E-05 Eh
 * total energy  :  -152.5883334 Eh     change       -0.1337116E-05 Eh
 * total energy  :  -152.5883344 Eh     change       -0.1060886E-05 Eh
 * total energy  :  -152.5883353 Eh     change       -0.8839020E-06 Eh
 * total energy  :  -152.5883362 Eh     change       -0.8895672E-06 Eh
 * total energy  :  -152.5883372 Eh     change       -0.9605811E-06 Eh
 * total energy  :  -152.5883381 Eh     change       -0.9865169E-06 Eh
 * total energy  :  -152.5883390 Eh     change       -0.8853506E-06 Eh
 * total energy  :  -152.5883399 Eh     change       -0.8439285E-06 Eh
 * total energy  :  -152.5883399 Eh     change       -0.4552106E-08 Eh
   *** GEOMETRY OPTIMIZATION CONVERGED AFTER 44 ITERATIONS ***

 final structure:
================
100
 xtb: 6.7.1 (edcfbbe)
C           -6.61797624426151        4.34573693626007        0.40323213586836
C           -5.24575664723635        4.94042624000516        0.05307383716421
C           -5.29689584084645        5.58758859230883       -1.33784567348260
C           -4.92228861020744        6.03316429048520        1.07558217921107
C           -4.22043169706575        3.81842908413688        0.04923722044699
C           -4.37895471075566        2.75213229595098       -0.83401570129827
C           -3.50756614712889        1.68432699936712       -0.84534215931907
C           -2.44804889213426        1.63953028956938        0.05626235025595
N           -1.59524668662419        0.52975906964152        0.10872969180186
C           -1.96710732424236       -0.80262041140354        0.00727452190981
C           -3.35607333682704       -1.22254489304251        0.04065750226291
C           -4.28593750089723       -0.58558260201051        0.86734132629299
C           -5.61691425253356       -0.93387565001435        0.83052039559765
C           -6.06684807738973       -1.94916276035514       -0.01382416274154
C           -7.49071177190428       -2.27306364945546       -0.09518425330746
C           -7.95618752592600       -3.56002402084499       -0.25267931665518
C           -9.32550617553024       -3.86807728300708       -0.34039757161063
C          -10.29132382682261       -2.90126799147282       -0.28322431076705
C           -9.87170464180037       -1.56996140922256       -0.13273412027041
N          -10.64083726842375       -0.48108280425653       -0.07302687912471
S           -9.69411700030832        0.80793947863283        0.08361890728238
N           -8.27029677785003        0.06305430406012        0.08790269397805
C           -8.47049656304636       -1.25000777666422       -0.03162629965456
C           -5.12888329037759       -2.63331143101703       -0.78767304623509
C           -3.79802748755244       -2.27405032211754       -0.76407440597948
C           -0.84048743043267       -1.60718876585503       -0.04532495640372
C            0.25892278073371       -0.73923830844784        0.02479716425212
C           -0.22828422101524        0.57276373721393        0.12813751869309
C            0.87023173945743        1.44099090343704        0.19292527773375
C            1.99851797146961        0.63727111326925        0.13816740205372
C            3.37774021319690        1.08052727288586        0.06685991234883
C            3.79790128453273        2.19227579940982        0.80046005419748
C            5.10519058386689        2.62436447406109        0.74337847897734
C            6.04535549739510        1.95760743105819       -0.04363143967751
C            7.43960928206451        2.39734594347878       -0.08205341855576
C            7.79799979588670        3.72658448013389       -0.01802153163472
C            9.13567989599107        4.15802889488836       -0.05292706007612
C           10.17858300280532        3.27816482846314       -0.14690898423548
C            9.87113286742106        1.90985389949763       -0.20876400364539
N           10.73035525788054        0.89204836849927       -0.28866975057021
S            9.89723195033426       -0.48160818110931       -0.31884755612601
N            8.41476429596181        0.13314994811947       -0.23655432894153
C            8.50131307700584        1.46273492991767       -0.18327138998814
C            5.62101544937209        0.86135244595023       -0.79515770255759
C            4.31185480763482        0.43763902617854       -0.75044933607188
N            1.62715933652613       -0.69578096216318        0.04079075551002
C            2.46406269103364       -1.81483409549982        0.12710470257337
C            2.22475981617477       -2.92415609091643       -0.67303146897364
C            3.05130342935624       -4.03107369113412       -0.60111697363379
C            4.13998986282448       -4.06666738844623        0.26140927250728
C            5.09433662464028       -5.24669537320328        0.34706568721983
C            6.50635504701479       -4.76679612195455       -0.01856859419155
C            4.71416164420739       -6.38428292960532       -0.60458395058127
C            5.08603995691331       -5.79940368218703        1.77927643293463
C            4.35199807670340       -2.95443068466486        1.07404106029273
C            3.52895891276093       -1.84965667934393        1.02268338465091
C           -2.24879152503183        2.71493622717377        0.91118320365596
C           -3.12365564237649        3.78688554231935        0.90169127084990
H           -7.37410444238546        5.12803018959219        0.41318006294974
H           -6.58575493977174        3.88321243070783        1.38741552066668
H           -6.91773350898711        3.58784626597871       -0.31493485972347
H           -6.01173217531055        6.40775398216949       -1.34290783905728
H           -4.31841949049512        5.98097210418781       -1.60582731231323
H           -5.59628702419180        4.87184136734386       -2.09803747353746
H           -5.68995215714533        6.80343908334378        1.03767642067467
H           -3.96547281123838        6.50226333134420        0.85795594874303
H           -4.90150423503277        5.63069465552583        2.08565662529114
H           -5.20191581662417        2.74390802689261       -1.53171396139683
H           -3.65187455971721        0.87503530830984       -1.54472969254262
H           -3.95849218607224        0.18867464431362        1.54477025205103
H           -6.32257798241997       -0.41937151158664        1.46310655772694
H           -7.24486434700850       -4.37187495163577       -0.28909362518723
H           -9.61297252098402       -4.90309691341080       -0.45385206310424
H          -11.34278481527489       -3.12773118822927       -0.35094721362645
H           -5.45593447600802       -3.42269445913825       -1.44902131776597
H           -3.08974426781795       -2.78553622205650       -1.39922050374172
H           -0.84072672757707       -2.67853924093291       -0.08080493803654
H            0.86703572835389        2.51242637022597        0.22485126121713
H            3.09019538854032        2.70113080073846        1.43820004577541
H            5.41355217531289        3.46664955314828        1.34574971939770
H            7.02115346902496        4.47462954565705        0.03871905481824
H            9.33479679273332        5.21870269345814       -0.00684310986722
H           11.20718340037388        3.59858049166384       -0.17379737805410
H            6.32799548388727        0.34776077430213       -1.42703697197703
H            4.00334054662468       -0.39539401976250       -1.36411398746749
H            1.39695510125181       -2.90955611906080       -1.36605481586267
H            2.83251228692569       -4.86715604244184       -1.24503852297062
H            6.84881136295921       -3.98912003074514        0.65814563028406
H            6.51591802751713       -4.36424688445663       -1.02927684843829
H            7.20842107952913       -5.59659182721711        0.02985741914072
H            5.43063387765382       -7.19683675856351       -0.50205657976819
H            4.73133580584397       -6.05140567501360       -1.63976152154045
H            3.72690706416763       -6.77648357081247       -0.37136139472289
H            4.08119782712599       -6.11206270875455        2.05590737247420
H            5.74766325158409       -6.65999532185740        1.85228658960970
H            5.41953328764832       -5.05312215691085        2.49466907926603
H            5.17591765128297       -2.94196826438023        1.77075445275578
H            3.71139755323335       -1.00771168235496        1.67295457314940
H           -1.41860784782351        2.69723955967546        1.60160274043988
H           -2.93955781370393        4.59500280508365        1.59065730060353

          :  Hamiltonian                  GFN2-xTB          :
         :: gradient norm              0.000048826167 Eh/a0 ::
         :: HOMO-LUMO gap              1.078038924688 eV    ::
         :: SCC energy              -155.156942321594 Eh    ::
         :: -> dispersion             -0.139873695723 Eh    ::
         :: repulsion energy           2.568602449403 Eh    ::

    * Orbital Energies and Occupations

         #    Occupation            Energy/Eh            Energy/eV
      -------------------------------------------------------------
         1        2.0000           -0.7572516             -20.6059
       ...           ...                  ...                  ...
       130        2.0000           -0.4054243             -11.0322
       131        2.0000           -0.4042210             -10.9994
       132        2.0000           -0.4032543             -10.9731
       133        2.0000           -0.4025344             -10.9535
       134        2.0000           -0.4011948             -10.9171
       135        2.0000           -0.4007688             -10.9055
       136        2.0000           -0.3989547             -10.8561
       137        2.0000           -0.3980763             -10.8322
       138        2.0000           -0.3852607             -10.4835
       139        2.0000           -0.3846583             -10.4671
       140        2.0000           -0.3767037             -10.2506
       141        2.0000           -0.3546662              -9.6510
       142        2.0000           -0.3414906              -9.2924 (HOMO)
       143                         -0.3018734              -8.2144 (LUMO)
       144                         -0.3008705              -8.1871
       145                         -0.2532827              -6.8922
       146                         -0.2394591              -6.5160
       147                         -0.2268925              -6.1741
       148                         -0.2239305              -6.0935
       149                         -0.2231074              -6.0711
       150                         -0.2207739              -6.0076
       151                         -0.2165773              -5.8934
       152                         -0.2160134              -5.8780
       153                         -0.2157598              -5.8711
       ...                                ...                  ...
       284                          0.7343349              19.9823
      -------------------------------------------------------------
                  HL-Gap            0.0396172 Eh            1.0780 eV

     #   Z          covCN         q      C6AA      α(0)
     1   6 C        3.762    -0.108    22.605     6.777
     2   6 C        3.903     0.026    20.079     6.370
     3   6 C        3.761    -0.106    22.579     6.774
     4   6 C        3.761    -0.108    22.612     6.779
     5   6 C        2.973     0.006    27.880     8.661
     6   6 C        2.928    -0.033    28.823     8.805
     7   6 C        2.921    -0.043    29.071     8.842
     8   6 C        2.913     0.061    26.626     8.461
     9   7 N        2.819    -0.028    21.782     6.932
    10   6 C        3.116     0.023    27.330     8.563
    11   6 C        2.971     0.010    27.781     8.646
    12   6 C        2.923    -0.033    28.834     8.806
    13   6 C        2.923    -0.029    28.725     8.789
    14   6 C        2.976     0.010    27.792     8.648
    15   6 C        2.965     0.001    27.992     8.678
    16   6 C        2.924    -0.039    28.971     8.827
    17   6 C        2.919    -0.029    28.733     8.790
    18   6 C        2.907    -0.045    29.125     8.849
    19   6 C        3.352     0.075    23.677     7.661
    20   7 N        1.852    -0.271    27.894     7.828
    21  16 S        2.680     0.321   128.631    19.089
    22   7 N        1.853    -0.268    27.802     7.815
    23   6 C        3.349     0.072    23.786     7.688
    24   6 C        2.922    -0.035    28.860     8.810
    25   6 C        2.924    -0.037    28.931     8.821
    26   6 C        2.998    -0.083    30.067     8.995
    27   6 C        3.228     0.010    27.000     8.440
    28   6 C        3.226     0.010    27.010     8.443
    29   6 C        2.998    -0.083    30.059     8.994
    30   6 C        3.114     0.023    27.335     8.565
    31   6 C        2.971     0.010    27.783     8.646
    32   6 C        2.924    -0.038    28.942     8.822
    33   6 C        2.922    -0.035    28.862     8.810
    34   6 C        2.976     0.010    27.798     8.648
    35   6 C        2.965     0.001    27.994     8.678
    36   6 C        2.925    -0.039    28.976     8.828
    37   6 C        2.919    -0.029    28.735     8.790
    38   6 C        2.907    -0.045    29.127     8.849
    39   6 C        3.353     0.075    23.665     7.657
    40   7 N        1.852    -0.271    27.887     7.827
    41  16 S        2.680     0.320   128.672    19.092
    42   7 N        1.853    -0.267    27.792     7.813
    43   6 C        3.348     0.072    23.808     7.694
    44   6 C        2.923    -0.030    28.737     8.791
    45   6 C        2.923    -0.034    28.847     8.808
    46   7 N        2.818    -0.028    21.779     6.931
    47   6 C        2.914     0.062    26.621     8.461
    48   6 C        2.922    -0.048    29.181     8.859
    49   6 C        2.925    -0.039    28.980     8.828
    50   6 C        2.973     0.006    27.892     8.663
    51   6 C        3.903     0.026    20.082     6.370
    52   6 C        3.762    -0.107    22.590     6.775
    53   6 C        3.761    -0.108    22.610     6.778
    54   6 C        3.762    -0.106    22.575     6.773
    55   6 C        2.928    -0.033    28.831     8.806
    56   6 C        2.920    -0.044    29.085     8.844
    57   6 C        2.922    -0.047    29.171     8.857
    58   6 C        2.925    -0.039    28.980     8.828
    59   1 H        0.925     0.037     2.485     2.465
    60   1 H        0.925     0.035     2.515     2.480
    61   1 H        0.925     0.040     2.453     2.449
    62   1 H        0.925     0.038     2.479     2.462
    63   1 H        0.925     0.034     2.530     2.487
    64   1 H        0.925     0.037     2.488     2.467
    65   1 H        0.925     0.037     2.491     2.468
    66   1 H        0.925     0.036     2.504     2.475
    67   1 H        0.925     0.036     2.499     2.472
    68   1 H        0.926     0.036     2.507     2.476
    69   1 H        0.926     0.035     2.518     2.481
    70   1 H        0.926     0.031     2.571     2.507
    71   1 H        0.926     0.043     2.404     2.425
    72   1 H        0.926     0.040     2.444     2.445
    73   1 H        0.926     0.039     2.462     2.454
    74   1 H        0.926     0.046     2.367     2.406
    75   1 H        0.926     0.031     2.570     2.507
    76   1 H        0.926     0.033     2.539     2.492
    77   1 H        0.926     0.026     2.651     2.546
    78   1 H        0.926     0.026     2.651     2.546
    79   1 H        0.926     0.033     2.543     2.494
    80   1 H        0.926     0.031     2.573     2.508
    81   1 H        0.926     0.040     2.445     2.445
    82   1 H        0.926     0.039     2.465     2.455
    83   1 H        0.926     0.046     2.369     2.407
    84   1 H        0.926     0.044     2.392     2.419
    85   1 H        0.926     0.031     2.572     2.508
    86   1 H        0.926     0.038     2.473     2.459
    87   1 H        0.926     0.040     2.451     2.448
    88   1 H        0.925     0.039     2.465     2.455
    89   1 H        0.925     0.035     2.518     2.481
    90   1 H        0.925     0.037     2.483     2.464
    91   1 H        0.925     0.037     2.492     2.469
    92   1 H        0.925     0.036     2.501     2.473
    93   1 H        0.925     0.036     2.505     2.475
    94   1 H        0.925     0.034     2.532     2.488
    95   1 H        0.925     0.038     2.480     2.463
    96   1 H        0.925     0.037     2.489     2.467
    97   1 H        0.926     0.035     2.516     2.480
    98   1 H        0.926     0.035     2.515     2.480
    99   1 H        0.926     0.038     2.476     2.461
   100   1 H        0.926     0.040     2.448     2.447

molecular dipole:
                 x           y           z       tot (Debye)
 q only:       -0.080      -0.046       0.051
   full:       -0.113      -0.047       0.039       0.326

 projected vibrational frequencies (cm⁻¹)
eigval :       -0.00    -0.00    -0.00     0.00     0.00     0.00
eigval :        1.74     7.56    10.48    12.60    17.00    18.20
eigval :       23.18    26.75    28.21    30.42    43.28    51.49
eigval :       59.87    63.46    71.71    74.68    78.46    84.39
eigval :       95.27    99.18   109.64   115.77   130.10   147.56
eigval :      158.77   164.35   169.02   171.57   178.42   183.72
eigval :      198.52   200.53   201.93   211.31   220.73   222.05
eigval :      226.89   236.41   250.74   264.18   265.66   281.71
eigval :      285.48   302.44   305.73   314.44   315.18   323.03
eigval :      339.52   340.30   352.08   357.74   362.47   366.53
eigval :      373.52   377.15   379.23   388.64   390.02   392.72
eigval :      396.14   421.85   429.50   432.60   436.98   448.15
eigval :      456.17   457.64   463.24   465.49   471.22   483.39
eigval :      505.73   513.08   519.90   519.95   535.25   538.59
eigval :      544.83   549.34   581.12   583.41   585.04   588.61
eigval :      594.54   601.47   601.78   603.54   606.48   612.13
eigval :      629.12   629.37   637.48   647.28   654.42   673.00
eigval :      691.49   692.05   695.00   714.53   727.43   732.35
eigval :      732.89   733.86   741.58   769.65   782.65   790.30
eigval :      791.80   792.21   809.55   815.91   816.81   820.12
eigval :      820.84   840.21   840.47   864.07   864.50   869.44
eigval :      870.01   870.54   874.00   878.90   882.41   882.94
eigval :      883.17   885.74   897.73   900.65   912.79   913.12
eigval :      915.75   915.84   919.48   919.67   924.06   924.35
eigval :      927.79   928.09   932.02   950.52   960.60   960.66
eigval :      960.86   962.44   963.08   963.24   963.96   981.51
eigval :     1008.51  1017.34  1027.75  1034.82  1035.28  1035.96
eigval :     1036.00  1040.52  1087.50  1088.80  1090.64  1101.03
eigval :     1141.08  1142.08  1142.92  1143.72  1145.75  1147.02
eigval :     1148.93  1150.63  1164.82  1173.40  1179.47  1180.00
eigval :     1201.68  1208.14  1208.54  1212.71  1219.03  1227.59
eigval :     1227.89  1233.85  1233.99  1274.39  1275.21  1275.75
eigval :     1276.05  1280.30  1281.45  1282.60  1286.77  1303.62
eigval :     1307.14  1308.89  1309.30  1310.35  1310.73  1321.20
eigval :     1321.43  1324.68  1325.10  1343.83  1344.96  1380.04
eigval :     1383.78  1394.08  1394.79  1400.81  1401.03  1406.17
eigval :     1406.27  1410.44  1411.09  1414.52  1415.26  1419.31
eigval :     1429.63  1429.71  1459.86  1471.53  1483.07  1491.09
eigval :     1491.39  1492.43  1492.76  1493.92  1494.06  1496.82
eigval :     1500.68  1502.78  1503.18  1507.38  1507.57  1514.56
eigval :     1514.73  1519.48  1519.58  1526.34  1530.33  1533.83
eigval :     1542.32  1549.50  1550.97  1571.09  1571.44  1582.18
eigval :     1582.96  1591.84  1593.34  1598.57  1604.99  1605.69
eigval :     3022.91  3023.01  3024.25  3024.32  3027.96  3028.10
eigval :     3031.26  3031.39  3032.24  3032.51  3036.45  3036.57
eigval :     3039.15  3039.32  3049.29  3049.83  3052.92  3053.40
eigval :     3073.56  3073.91  3080.49  3080.52  3086.32  3086.52
eigval :     3087.14  3087.69  3088.15  3088.20  3088.45  3089.93
eigval :     3091.72  3092.17  3099.02  3099.78  3107.84  3108.34
eigval :     3111.66  3111.72  3113.58  3114.14  3165.44  3165.84

   temp. (K)  partition function   enthalpy   heat capacity  entropy
                                   cal/mol     cal/K/mol   cal/K/mol   J/K/mol
 298.15  VIB  0.576E+26            30214.288    184.188    191.771
         ROT  0.227E+09              888.752      2.981     41.221
         INT  0.131E+35            31103.040    187.169    232.992
         TR   0.215E+29             1481.254      4.968     45.862
         TOT                       32584.2938   192.1367   278.8537  1166.7237

       T/K    H(0)-H(T)+PV         H(T)/Eh          T*S/Eh         G(T)/Eh
   ------------------------------------------------------------------------
    298.15    0.519264E-01    0.833075E+00    0.132492E+00    0.700582E+00
   ------------------------------------------------------------------------

         :::::::::::::::::::::::::::::::::::::::::::::::::::::
         ::                  THERMODYNAMIC                  ::
         :::::::::::::::::::::::::::::::::::::::::::::::::::::
         :: total free energy        -151.887757410404 Eh   ::
         ::.................................................::
         :: total energy             -152.588339872188 Eh   ::
         :: zero point energy           0.781148457269 Eh   ::
         :: G(RRHO) w/o ZPVE           -0.080565995485 Eh   ::
         :: G(RRHO) contrib.            0.700582461784 Eh   ::
         :::::::::::::::::::::::::::::::::::::::::::::::::::::

           -------------------------------------------------
          | TOTAL ENERGY             -152.588339872188 Eh   |
          | TOTAL ENTHALPY           -151.755265037499 Eh   |
          | TOTAL FREE ENERGY        -151.887757410404 Eh   |
          | GRADIENT NORM               0.000048841118 Eh/α |
          | HOMO-LUMO GAP               1.078039436591 eV   |
           -------------------------------------------------

 * finished run on 2025/07/20 at 01:42:15.153
