   * xtb version 6.7.1 (edcfbbe) compiled by 'albert@albert-system' on 2024-07-22

   ID    Z sym.   atoms
    1    6 C      1-8, 10-19, 23-39, 43-45, 47-58
    2    7 N      9, 20, 22, 40, 42, 46
    3   16 S      21, 41
    4    1 H      59-100

          program call               : xtb data2507/gas/BTZPP/BTZPP_gas_T1_crest.xyz --gfn 2 --spinpol --tblite --uhf 2 --ohess vtight --parallel 40 --molden --ceasefiles --namespace data2507/gas/BTZPP/BTZPP_gas_T1_finalOpt
 * total energy  :  -152.5310403 Eh     change        0.4475680E-08 Eh
 * total energy  :  -152.5310422 Eh     change       -0.1912163E-05 Eh
 * total energy  :  -152.5310439 Eh     change       -0.1687289E-05 Eh
 * total energy  :  -152.5310459 Eh     change       -0.1988822E-05 Eh
 * total energy  :  -152.5310478 Eh     change       -0.1867298E-05 Eh
 * total energy  :  -152.5310493 Eh     change       -0.1545730E-05 Eh
 * total energy  :  -152.5310508 Eh     change       -0.1421280E-05 Eh
 * total energy  :  -152.5310523 Eh     change       -0.1504301E-05 Eh
 * total energy  :  -152.5310535 Eh     change       -0.1234344E-05 Eh
 * total energy  :  -152.5310543 Eh     change       -0.7741124E-06 Eh
 * total energy  :  -152.5310665 Eh     change       -0.2181239E-06 Eh
 * total energy  :  -152.5310668 Eh     change       -0.2877204E-06 Eh
 * total energy  :  -152.5310673 Eh     change       -0.4800482E-06 Eh
 * total energy  :  -152.5310676 Eh     change       -0.3067107E-06 Eh
 * total energy  :  -152.5310679 Eh     change       -0.3199537E-06 Eh
 * total energy  :  -152.5310683 Eh     change       -0.4338868E-06 Eh
 * total energy  :  -152.5310686 Eh     change       -0.2192774E-06 Eh
 * total energy  :  -152.5310690 Eh     change       -0.4355880E-06 Eh
 * total energy  :  -152.5310691 Eh     change       -0.6153860E-07 Eh
   *** GEOMETRY OPTIMIZATION CONVERGED AFTER 44 ITERATIONS ***

 final structure:
================
100
 xtb: 6.7.1 (edcfbbe)
C           -4.68915353560475        5.83781156162381       -2.14448342041380
C           -4.80365678678856        5.36406736548365       -0.68866123748594
C           -4.41717355609431        6.53077565516397        0.22434159776282
C           -6.25572541755445        4.97221862932923       -0.37963459859788
C           -3.91797428913724        4.14567597505735       -0.48913217441212
C           -4.13935030883075        3.00457336489294       -1.25917394251975
C           -3.37957642612110        1.86480020126073       -1.10339523652007
C           -2.37371633478815        1.82860209793729       -0.14315190952077
N           -1.58845415076740        0.67624329131999        0.04084627576199
C           -2.00307727360405       -0.64385945169510        0.02346644053098
C           -3.36689154890054       -1.05936355069403        0.11473339553557
C           -4.35464302133923       -0.28046115720285        0.74991043128979
C           -5.65757460017562       -0.69573954767788        0.80318019503977
C           -6.06563700464902       -1.91730044128799        0.23586501342671
C           -7.44804778318862       -2.33247482880812        0.26977152093751
C           -7.82106397825341       -3.67886263942189        0.19498681962991
C           -9.14530161523004       -4.10018153122622        0.22468659870097
C          -10.19228519764614       -3.20567550031365        0.31464159009298
C           -9.88189051657731       -1.84394389494357        0.38796300640235
N          -10.75090793741553       -0.83338660353969        0.46579999015578
S           -9.92226237214596        0.55545588603377        0.51566013407367
N           -8.42163850745902       -0.06825566436432        0.44179815119920
C           -8.51085842188816       -1.39506663992800        0.37917462741164
C           -5.06931856182055       -2.71325200741870       -0.36172843685561
C           -3.76452507091125       -2.30113423930818       -0.41821347996941
C           -0.87237626974459       -1.49409488713084        0.00942094547887
C            0.23297127756501       -0.66836633931405        0.04761705053645
C           -0.21846258741435        0.68089054047067        0.04765182982824
C            0.88685228194552        1.50671963468702        0.01168860900065
C            2.01761507576199        0.65647690023793        0.02737756339129
C            3.38093855595092        1.07206546867533        0.12315313752797
C            3.77998185335955        2.31497877971859       -0.40630297424140
C            5.08414124395501        2.72797519268234       -0.34368038784388
C            6.07870852128833        1.93193518188973        0.25705656841460
C            7.46021502369553        2.34862860734196        0.29845130721174
C            7.83189789553749        3.69580035679082        0.22585678310670
C            9.15522579981804        4.11884882394393        0.26218164680181
C           10.20306387212696        3.22559443063744        0.35707461305868
C            9.89417377003009        1.86350587995035        0.42910563448528
N           10.76430623851890        0.85426728898080        0.51157087494541
S            9.93741262976760       -0.53591806525361        0.55787899154865
N            8.43612981993986        0.08581250441199        0.47620447403163
C            8.52379548686530        1.41267024323088        0.41356665418267
C            5.66919041595222        0.70868823010511        0.81999887843654
C            4.36689932849435        0.29250153714728        0.76051105457990
N            1.60297545846894       -0.66369434714694        0.04307120731673
C            2.38890343173618       -1.81549990588409       -0.14141441414169
C            3.39676718589627       -1.84944037353087       -1.09965310369756
C            4.15787773783394       -2.98830190147105       -1.25553351217530
C            3.93578922701234       -4.13077839477684       -0.48774158742714
C            4.82386869198676       -5.34760105771202       -0.68617430968763
C            6.27360705238031       -4.95432375497600       -0.36806160267204
C            4.71821464549657       -5.81769496602711       -2.14383299417371
C            4.43394669494183       -6.51736418668786        0.22144613615102
C            2.90188742759386       -4.08967588332248        0.43975494965278
C            2.13647105613027       -2.95039057494665        0.61566667452969
C           -2.12212226646481        2.96204340646687        0.61638666190762
C           -2.88623544832736        4.10222652534925        0.44065743640196
H           -5.02279935382534        5.07263681686863       -2.83945431797340
H           -3.65632621042438        6.08671495630381       -2.37988693432291
H           -5.30064591453338        6.72430871308532       -2.29701153966856
H           -3.39900874653203        6.86059490165127        0.03036603908890
H           -5.08256790301840        7.37096977123950        0.03766650231005
H           -4.51155997568400        6.25658954966070        1.27243024381262
H           -6.34113710009081        4.62351154937751        0.64727163100141
H           -6.60238204129405        4.17907653722501       -1.03576591600312
H           -6.90973622907427        5.83186380224644       -0.50773383311372
H           -4.92087154157110        2.99657845049606       -2.00255716859429
H           -3.56862724505718        0.99705322817833       -1.71694641564431
H           -4.07468151824381        0.64177777377201        1.23541585171542
H           -6.39386400636446       -0.08308045700865        1.29688147799767
H           -7.04886441713970       -4.43155962118881        0.14959207714951
H           -9.35635514991741       -5.15865384067950        0.17766277436292
H          -11.22148954553693       -3.52477541692039        0.33045165503591
H           -5.34078906219419       -3.64805400548793       -0.82792892839150
H           -3.03240015510985       -2.91407330037687       -0.92248527923429
H           -0.90466300742900       -2.56469110982353        0.02113006564457
H            0.91903234743607        2.57730822001246        0.02401922184028
H            3.04954753691720        2.92810368999878       -0.91279789520623
H            5.35681144074824        3.66364196684525       -0.80742271135555
H            7.05886569016671        4.44741230566683        0.17694344053383
H            9.36521361477073        5.17759102857905        0.21643921091746
H           11.23174759529622        3.54611105119540        0.37765973185907
H            6.40395070997610        0.09570898619139        1.31557917241427
H            4.08567135957088       -0.63086196875411        1.24312572379342
H            3.58639454523983       -0.98056401238285       -1.71142881099320
H            4.94113998269525       -2.97842691041159       -1.99705795482040
H            6.35266427706787       -4.60760847747938        0.66003174268259
H            6.62268555663537       -4.15924013257491       -1.02057402148744
H            6.92963294075939       -5.81271183454867       -0.49422010089165
H            5.33178729384955       -6.70296858664646       -2.29512564907012
H            5.05481304876551       -5.05041640621293       -2.83503663109567
H            3.68708930104656       -6.06741418980151       -2.38572231468367
H            5.10038520860557       -7.35675129997560        0.03486560532893
H            4.52385083159497       -6.24659068510082        1.27080867740915
H            3.41668984393491       -6.84680408395406        0.02210223145031
H            2.67940413530928       -4.94690699839283        1.05334215205215
H            1.35102682566093       -2.93315173097956        1.35664735955058
H           -1.33823365102073        2.94301193144893        1.35897356207587
H           -2.66440305439639        4.95828985075594        1.05610966354275

 projected vibrational frequencies (cm⁻¹)
eigval :       -0.00    -0.00    -0.00     0.00     0.00     0.00
eigval :        6.48     9.08    11.84    13.09    13.83    18.15
eigval :       19.53    25.53    26.45    34.56    40.85    48.51
eigval :       57.39    65.88    68.87    70.39    80.03    83.06
eigval :       87.30   105.53   109.10   110.38   133.22   139.22
eigval :      158.81   163.46   168.30   171.71   182.86   185.59
eigval :      194.63   195.36   205.10   214.57   220.35   221.55
eigval :      226.49   239.40   241.19   256.17   258.47   283.82
eigval :      285.18   297.74   299.17   315.58   315.82   318.44
eigval :      325.46   347.65   354.42   357.24   364.51   367.23
eigval :      373.41   373.98   380.86   382.44   387.17   389.71
eigval :      399.44   416.59   421.71   422.09   435.23   440.61
eigval :      443.03   451.56   455.85   458.75   459.85   481.63
eigval :      484.29   499.59   500.11   508.56   526.89   528.48
eigval :      536.63   547.43   571.26   574.14   581.97   583.25
eigval :      588.84   595.98   596.70   600.06   602.22   609.25
eigval :      618.15   624.33   630.55   650.53   653.63   669.89
eigval :      687.85   687.93   692.44   712.60   719.22   720.35
eigval :      723.30   726.28   736.97   757.88   768.60   768.80
eigval :      777.86   778.02   784.11   797.68   814.29   816.14
eigval :      816.32   819.98   820.67   828.30   844.16   848.89
eigval :      854.56   855.51   855.86   864.55   869.37   869.77
eigval :      871.43   874.55   881.68   887.39   904.94   905.05
eigval :      913.04   913.61   915.04   915.19   920.70   920.79
eigval :      923.34   927.98   928.23   940.86   942.33   960.97
eigval :      960.98   962.48   962.86   963.69   963.69   979.12
eigval :      996.39  1005.34  1018.24  1033.11  1035.05  1035.21
eigval :     1035.71  1035.72  1057.19  1078.56  1088.42  1097.14
eigval :     1102.57  1133.03  1135.28  1141.53  1142.43  1147.38
eigval :     1148.67  1150.23  1151.26  1162.39  1181.26  1181.39
eigval :     1186.83  1195.59  1204.34  1209.21  1217.34  1223.53
eigval :     1226.74  1227.76  1227.80  1233.66  1233.68  1266.92
eigval :     1274.35  1275.94  1277.58  1278.46  1285.26  1287.88
eigval :     1292.51  1295.43  1303.01  1309.19  1309.39  1320.82
eigval :     1321.13  1330.36  1330.45  1334.30  1337.29  1349.24
eigval :     1352.77  1356.88  1389.41  1395.34  1398.60  1400.40
eigval :     1402.92  1406.96  1406.99  1410.26  1412.22  1426.13
eigval :     1429.96  1429.97  1433.69  1439.21  1447.73  1458.57
eigval :     1476.31  1484.36  1488.82  1489.18  1490.13  1490.85
eigval :     1490.92  1490.99  1492.97  1492.99  1497.78  1501.87
eigval :     1502.03  1505.78  1505.88  1510.73  1514.77  1514.77
eigval :     1518.81  1518.84  1524.39  1531.11  1559.34  1568.60
eigval :     1569.14  1573.65  1577.15  1587.71  1601.55  1601.91
eigval :     3025.65  3025.66  3027.26  3027.29  3029.30  3029.31
eigval :     3032.97  3032.99  3034.53  3034.57  3037.40  3037.44
eigval :     3041.20  3041.24  3050.62  3050.64  3054.20  3054.27
eigval :     3076.83  3076.87  3081.35  3081.38  3086.54  3086.64
eigval :     3089.49  3089.55  3091.46  3091.51  3093.74  3093.84
eigval :     3097.19  3097.42  3102.03  3102.07  3110.24  3110.26
eigval :     3118.56  3118.58  3118.83  3118.87  3176.71  3176.85

   temp. (K)  partition function   enthalpy   heat capacity  entropy
                                   cal/mol     cal/K/mol   cal/K/mol   J/K/mol
 298.15  VIB  0.266E+26            30500.752    185.900    192.145
         ROT  0.118E+09              888.752      2.981     39.920
         INT  0.314E+34            31389.504    188.880    232.065
         TR   0.215E+29             1481.254      4.968     45.862
         TOT                       32870.7583   193.8486   277.9266  1162.8448

       T/K    H(0)-H(T)+PV         H(T)/Eh          T*S/Eh         G(T)/Eh
   ------------------------------------------------------------------------
    298.15    0.523829E-01    0.829497E+00    0.132052E+00    0.697445E+00
   ------------------------------------------------------------------------

         :::::::::::::::::::::::::::::::::::::::::::::::::::::
         ::                  THERMODYNAMIC                  ::
         :::::::::::::::::::::::::::::::::::::::::::::::::::::
         :: total free energy        -151.833623957785 Eh   ::
         ::.................................................::
         :: total energy             -152.531068958133 Eh   ::
         :: zero point energy           0.777113995480 Eh   ::
         :: G(RRHO) w/o ZPVE           -0.079668995132 Eh   ::
         :: G(RRHO) contrib.            0.697445000348 Eh   ::
         :::::::::::::::::::::::::::::::::::::::::::::::::::::

           -------------------------------------------------
          | TOTAL ENERGY             -152.531068958133 Eh   |
          | TOTAL ENTHALPY           -151.701572074969 Eh   |
          | TOTAL FREE ENERGY        -151.833623957785 Eh   |
          | GRADIENT NORM               0.000134646291 Eh/α |
           -------------------------------------------------

 * finished run on 2025/07/20 at 01:57:44.120
