   * xtb version 6.7.1 (edcfbbe) compiled by 'albert@albert-system' on 2024-07-22

   ID    Z sym.   atoms
    1    6 C      1, 2, 4-36, 40-45, 49-53
    2    7 N      3
    3   16 S      37, 46
    4    8 O      38, 39, 47, 48
    5    1 H      54-86

          program call               : xtb data2507/toluene/ECDPTT/ECDPTT_toluene_T1_crest.xyz --gfn 2 --uhf 2 --gbsa toluene --ohess vtight --parallel 40 --molden --ceasefiles --namespace data2507/toluene/ECDPTT/ECDPTT_toluene_T1_finalOpt
      * Solvation model:               GBSA
        Solvent                        toluene
        Solvent mass                       9.2140E+01 g/mol
          :  Hamiltonian                  GFN2-xTB          :
 * total energy  :  -140.9857272 Eh     change       -0.1392578E-08 Eh
 * total energy  :  -140.9860631 Eh     change       -0.3359555E-03 Eh
 * total energy  :  -140.9863194 Eh     change       -0.2562161E-03 Eh
 * total energy  :  -140.9863469 Eh     change       -0.2757030E-04 Eh
 * total energy  :  -140.9863818 Eh     change       -0.3487250E-04 Eh
 * total energy  :  -140.9863898 Eh     change       -0.7968758E-05 Eh
 * total energy  :  -140.9863968 Eh     change       -0.6991585E-05 Eh
 * total energy  :  -140.9864040 Eh     change       -0.7218549E-05 Eh
 * total energy  :  -140.9864117 Eh     change       -0.7684524E-05 Eh
 * total energy  :  -140.9864165 Eh     change       -0.4803375E-05 Eh
 * total energy  :  -140.9865223 Eh     change       -0.1209234E-05 Eh
 * total energy  :  -140.9865233 Eh     change       -0.1010259E-05 Eh
 * total energy  :  -140.9865243 Eh     change       -0.9829748E-06 Eh
 * total energy  :  -140.9865252 Eh     change       -0.9531972E-06 Eh
 * total energy  :  -140.9865262 Eh     change       -0.9841272E-06 Eh
 * total energy  :  -140.9865271 Eh     change       -0.9048827E-06 Eh
 * total energy  :  -140.9865279 Eh     change       -0.7614260E-06 Eh
 * total energy  :  -140.9865285 Eh     change       -0.6459553E-06 Eh
 * total energy  :  -140.9865286 Eh     change       -0.1022940E-07 Eh
   *** GEOMETRY OPTIMIZATION CONVERGED AFTER 44 ITERATIONS ***

 final structure:
================
86
 xtb: 6.7.1 (edcfbbe)
C           -6.81463043950221       -5.30387859912754        0.18268691383484
C           -7.11757594427764       -4.26977594399018       -0.90163062048867
N           -6.94027083242861       -2.92450116115295       -0.41879580468533
C           -7.90292427136245       -2.17350193524713        0.22277848290655
C           -9.22755342146587       -2.48034661282464        0.50023670923566
C           -9.98901309778099       -1.52607799255311        1.15060372784298
C           -9.45369871778609       -0.29412284631220        1.51831758143680
C           -8.13338905493092        0.01664647429737        1.24927871292733
C           -7.35005877215975       -0.92721149056631        0.60188111342845
C           -5.97610573921230       -0.94952765743292        0.17477210925588
C           -4.94503230036132       -0.04184042764212        0.26790954813606
C           -3.67881664515557       -0.37095487519791       -0.25072534113653
C           -2.60461464447679        0.57774033636301       -0.19172515367756
C           -2.93293103888923        1.99855755252625       -0.17044636548427
C           -2.22842969607984        2.87219559656794        0.72187512440989
C           -2.03210812669014        4.23422849888317        0.41710397986730
C           -1.32547812126764        5.05593331906826        1.26703984930139
C           -0.79416240983369        4.55819576846442        2.44980816093412
C           -0.97263183498510        3.21765475424838        2.76771096905065
C           -1.67023178143170        2.38615197319664        1.92118240860691
C           -3.96390611374033        2.48025521741569       -1.04297050634894
C           -4.25016774892544        1.82049048858808       -2.25502134487306
C           -5.27183860901049        2.24879509783942       -3.07249587178780
C           -6.05120188955838        3.34058928114325       -2.71300556412269
C           -5.79188096499081        4.00086440171706       -1.51859731737790
C           -4.76710303109074        3.58601466241644       -0.69770871522612
C           -1.23967376887407        0.17939085041028       -0.14912065913976
C           -0.20872692013570        1.04714691681809       -0.58257719877586
C            1.11035731567220        0.69623710845304       -0.49052419998117
C            1.50317943552764       -0.54687820157364        0.03855539656117
C            2.90055273216089       -0.91742680730068        0.14103980836314
C            3.31308244310213       -2.26306889667186        0.06488597911326
C            4.64088248884519       -2.61489175995807        0.16492072555688
C            5.60661522503346       -1.63494254667756        0.36470998738875
C            5.21761893419279       -0.30421775358860        0.43602342297541
C            3.89747218946947        0.05786744398582        0.31768612569408
S            6.46878475392729        0.95021197312234        0.66270364753348
O            5.92951193802712        2.22137905077306        0.22801132095608
O            6.97809175860750        0.91658326205427        2.01164926508145
C            7.76919239803516        0.47969238928815       -0.47942801811783
C            8.37313202757137        1.42895566894843       -1.28468345457352
C            9.37160507131831        1.03959499998534       -2.16539837177950
C            9.75048343458075       -0.29330355879468       -2.24496087124091
C            9.13297398994767       -1.24283008524186       -1.44466683622404
C            8.14630528247585       -0.84774949819592       -0.55814293158432
S            7.32770131186015       -2.05203960060701        0.48906416887478
O            7.52807401935489       -3.36322708980065       -0.09149148771246
O            7.79714483927908       -1.89180217821987        1.84449406190720
C            0.48469337641090       -1.41288360158779        0.47652993399896
C           -0.83641492952029       -1.06505113687432        0.39128842681788
C           -3.51007797792310       -1.63278427456708       -0.87492475183851
C           -4.53123844099440       -2.54352899817453       -0.98137829989527
C           -5.77644720077793       -2.21312030647032       -0.44557266820051
H           -7.47342369079672       -5.16190047598560        1.03627518192802
H           -6.96142934050926       -6.30639551825868       -0.20981465922775
H           -5.78572898509685       -5.20712817961082        0.52137686301629
H           -6.45519562770517       -4.42003692841507       -1.75775565153363
H           -8.14909337148855       -4.37881430613850       -1.24598505115806
H           -9.66050224080261       -3.42953951252611        0.22410342956188
H          -11.02279780223076       -1.74124165676433        1.37860837089361
H          -10.08174169896956        0.42531073049033        2.02284068724594
H           -7.71795574327684        0.97138028096468        1.53490903484535
H           -5.09485394591219        0.90374605563603        0.76495538636151
H           -2.40179079241220        4.62331507471199       -0.52036864797431
H           -1.17519189816189        6.09381840376121        1.00546958301882
H           -0.24090330429224        5.20605687710071        3.11334017077107
H           -0.56205351253872        2.82437447682523        3.68680086498303
H           -1.81942049254388        1.35075512425473        2.18887144964852
H           -3.63435564832598        0.98642937288663       -2.55647622950523
H           -5.46515605207539        1.73349425071698       -4.00254384938927
H           -6.85487066285080        3.67136357920965       -3.35386694057819
H           -6.40437840441546        4.84176479452392       -1.22541850312553
H           -4.60393780570767        4.07995095234603        0.24914104029711
H           -0.47723270580865        1.99214435061431       -1.03058662323434
H            1.86344682417990        1.37158507407652       -0.86770941380570
H            2.57774268043354       -3.03316881157268       -0.10580083829221
H            4.96646340025581       -3.64025859194948        0.08524905654641
H            3.65550105855685        1.10638754173613        0.38828858742977
H            8.04200624674092        2.45268496474241       -1.20742414584259
H            9.85004570676876        1.77707712384936       -2.79082398586720
H           10.52489899265640       -0.59590241092930       -2.93252381387129
H            9.39121035055064       -2.28917976847801       -1.49016596870581
H            0.75237441556742       -2.35094863493035        0.93888957410504
H           -1.58670096597305       -1.72521912679482        0.80050602192782
H           -2.55606039941784       -1.85826170703276       -1.32674034197433
H           -4.36683578810877       -3.48679186890356       -1.47966390143446

          :  Hamiltonian                  GFN2-xTB          :
         :: gradient norm              0.000071281727 Eh/a0 ::
         :: HOMO-LUMO gap              0.424947791367 eV    ::
         :: SCC energy              -143.334804923328 Eh    ::
         :: -> dispersion             -0.128566161165 Eh    ::
         :: -> Gsolv                  -0.075656542891 Eh    ::
         :: repulsion energy           2.348276370513 Eh    ::

    * Orbital Energies and Occupations

         #    Occupation            Energy/Eh            Energy/eV
      -------------------------------------------------------------
         1        2.0000           -0.7883929             -21.4533
       ...           ...                  ...                  ...
       118        2.0000           -0.4179864             -11.3740
       119        2.0000           -0.4167476             -11.3403
       120        2.0000           -0.4143440             -11.2749
       121        2.0000           -0.4093201             -11.1382
       122        2.0000           -0.4087826             -11.1235
       123        2.0000           -0.4070912             -11.0775
       124        2.0000           -0.4045900             -11.0095
       125        2.0000           -0.4003717             -10.8947
       126        2.0000           -0.3992084             -10.8630
       127        2.0000           -0.3853720             -10.4865
       128        2.0000           -0.3738842             -10.1739
       129        1.0000           -0.3429611              -9.3324
       130        0.9997           -0.3006717              -8.1817 (HOMO)
       131        0.0003           -0.2850546              -7.7567 (LUMO)
       132                         -0.2687141              -7.3121
       133                         -0.2667418              -7.2584
       134                         -0.2564760              -6.9791
       135                         -0.2497009              -6.7947
       136                         -0.2316088              -6.3024
       137                         -0.2268129              -6.1719
       138                         -0.2238042              -6.0900
       139                         -0.2220922              -6.0434
       140                         -0.2194783              -5.9723
       141                         -0.2116032              -5.7580
       ...                                ...                  ...
       255                          1.2109844              32.9526
      -------------------------------------------------------------
                  HL-Gap            0.0156171 Eh            0.4250 eV

     #   Z          covCN         q      C6AA      α(0)
     1   6 C        3.752    -0.112    22.708     6.796
     2   6 C        3.739    -0.001    20.676     6.488
     3   7 N        2.796    -0.025    21.735     6.924
     4   6 C        3.083     0.044    26.915     8.505
     5   6 C        2.910    -0.049    29.217     8.863
     6   6 C        2.923    -0.033    28.826     8.805
     7   6 C        2.920    -0.039    28.981     8.828
     8   6 C        2.912    -0.031    28.782     8.797
     9   6 C        3.067    -0.017    28.356     8.732
    10   6 C        3.063    -0.014    28.307     8.725
    11   6 C        2.916    -0.033    28.812     8.802
    12   6 C        2.972     0.011    27.769     8.644
    13   6 C        2.970     0.000    28.017     8.682
    14   6 C        2.970    -0.004    28.132     8.700
    15   6 C        2.971     0.017    27.629     8.622
    16   6 C        2.922    -0.034    28.841     8.807
    17   6 C        2.915    -0.030    28.740     8.791
    18   6 C        2.919    -0.030    28.756     8.794
    19   6 C        2.915    -0.029    28.731     8.790
    20   6 C        2.923    -0.033    28.814     8.803
    21   6 C        2.972     0.017    27.630     8.622
    22   6 C        2.923    -0.033    28.821     8.804
    23   6 C        2.915    -0.029    28.727     8.789
    24   6 C        2.919    -0.030    28.757     8.794
    25   6 C        2.915    -0.029    28.733     8.790
    26   6 C        2.922    -0.033    28.831     8.805
    27   6 C        2.971     0.013    27.729     8.638
    28   6 C        2.919    -0.033    28.818     8.803
    29   6 C        2.918    -0.035    28.860     8.810
    30   6 C        2.974     0.004    27.930     8.669
    31   6 C        2.973     0.023    27.499     8.602
    32   6 C        2.923    -0.032    28.795     8.800
    33   6 C        2.948    -0.022    28.553     8.764
    34   6 C        3.008    -0.100    30.502     9.060
    35   6 C        3.006    -0.086    30.141     9.006
    36   6 C        2.963    -0.029    28.725     8.791
    37  16 S        3.874     0.962   107.737    17.470
    38   8 O        0.860    -0.560    25.163     6.726
    39   8 O        0.860    -0.577    25.549     6.777
    40   6 C        3.007    -0.081    30.020     8.988
    41   6 C        2.952    -0.016    28.420     8.744
    42   6 C        2.920    -0.015    28.385     8.737
    43   6 C        2.920    -0.014    28.373     8.735
    44   6 C        2.952    -0.017    28.421     8.744
    45   6 C        3.007    -0.081    30.010     8.986
    46  16 S        3.867     0.956   107.910    17.484
    47   8 O        0.860    -0.561    25.175     6.727
    48   8 O        0.860    -0.579    25.615     6.786
    49   6 C        2.918    -0.035    28.883     8.813
    50   6 C        2.918    -0.035    28.876     8.812
    51   6 C        2.924    -0.036    28.900     8.816
    52   6 C        2.906    -0.049    29.210     8.862
    53   6 C        3.080     0.048    26.832     8.492
    54   1 H        0.925     0.049     2.329     2.386
    55   1 H        0.925     0.054     2.266     2.354
    56   1 H        0.925     0.050     2.325     2.384
    57   1 H        0.924     0.059     2.214     2.327
    58   1 H        0.924     0.058     2.219     2.330
    59   1 H        0.926     0.037     2.486     2.465
    60   1 H        0.926     0.034     2.535     2.490
    61   1 H        0.926     0.031     2.576     2.510
    62   1 H        0.926     0.033     2.541     2.493
    63   1 H        0.926     0.037     2.490     2.467
    64   1 H        0.926     0.038     2.478     2.462
    65   1 H        0.926     0.033     2.549     2.497
    66   1 H        0.926     0.031     2.577     2.510
    67   1 H        0.926     0.030     2.586     2.515
    68   1 H        0.926     0.033     2.546     2.495
    69   1 H        0.926     0.033     2.542     2.493
    70   1 H        0.926     0.032     2.558     2.501
    71   1 H        0.926     0.032     2.556     2.500
    72   1 H        0.926     0.033     2.550     2.497
    73   1 H        0.926     0.036     2.503     2.474
    74   1 H        0.926     0.035     2.515     2.480
    75   1 H        0.926     0.034     2.535     2.490
    76   1 H        0.926     0.079     1.993     2.208
    77   1 H        0.926     0.069     2.092     2.262
    78   1 H        0.926     0.070     2.088     2.259
    79   1 H        0.926     0.080     1.980     2.200
    80   1 H        0.926     0.089     1.885     2.147
    81   1 H        0.926     0.089     1.885     2.147
    82   1 H        0.926     0.080     1.981     2.201
    83   1 H        0.926     0.041     2.437     2.441
    84   1 H        0.926     0.044     2.394     2.419
    85   1 H        0.926     0.045     2.382     2.413
    86   1 H        0.926     0.042     2.428     2.437

molecular dipole:
                 x           y           z       tot (Debye)
 q only:       -6.476      -0.954      -3.713
   full:       -6.200      -0.906      -3.398      18.118

 projected vibrational frequencies (cm⁻¹)
eigval :       -0.00    -0.00    -0.00     0.00     0.00     0.00
eigval :        8.94    11.15    13.87    16.94    19.65    23.40
eigval :       34.76    38.92    47.98    53.62    54.77    65.91
eigval :       73.95    83.47    86.03    91.97    96.41   100.15
eigval :      106.06   114.00   122.44   126.85   147.83   158.31
eigval :      168.35   171.65   177.82   185.60   207.81   212.12
eigval :      216.71   234.09   243.26   248.57   254.99   266.38
eigval :      268.83   283.55   290.24   294.79   306.74   315.28
eigval :      324.88   329.16   339.48   358.64   368.47   384.31
eigval :      385.14   386.79   393.67   399.35   406.33   418.78
eigval :      420.83   425.45   437.00   449.82   451.66   460.34
eigval :      470.80   474.55   502.39   510.56   512.30   519.86
eigval :      533.12   540.42   549.54   560.13   568.14   570.26
eigval :      581.23   583.02   586.52   590.72   598.90   602.41
eigval :      626.83   635.67   646.00   656.63   658.11   662.13
eigval :      671.13   674.11   681.38   682.90   693.67   708.57
eigval :      709.11   727.19   745.27   748.48   770.29   772.27
eigval :      777.08   801.08   803.30   805.85   820.72   827.21
eigval :      848.37   853.09   856.22   863.66   866.62   867.08
eigval :      876.22   880.48   887.79   893.17   898.17   902.73
eigval :      907.14   909.24   912.50   919.64   920.28   920.96
eigval :      921.73   922.23   925.51   926.84   937.98   938.90
eigval :      952.05   971.67   975.63   977.78   989.97   997.78
eigval :     1007.23  1017.69  1058.70  1065.55  1066.89  1071.41
eigval :     1079.08  1079.28  1081.12  1085.67  1087.64  1110.11
eigval :     1121.73  1125.14  1130.60  1133.18  1135.15  1139.54
eigval :     1145.93  1153.16  1161.07  1166.65  1170.29  1177.89
eigval :     1178.57  1181.66  1190.62  1193.42  1199.08  1203.36
eigval :     1207.16  1209.38  1214.34  1216.01  1229.71  1240.22
eigval :     1252.27  1269.93  1273.70  1274.41  1283.19  1289.25
eigval :     1305.12  1313.41  1315.13  1316.25  1318.48  1320.58
eigval :     1323.50  1327.68  1330.43  1342.89  1344.06  1366.66
eigval :     1373.02  1393.01  1401.77  1402.38  1415.13  1419.05
eigval :     1421.54  1426.40  1427.69  1432.84  1433.49  1437.24
eigval :     1451.70  1457.40  1460.55  1471.38  1478.38  1481.38
eigval :     1482.40  1491.62  1494.14  1535.82  1537.89  1539.92
eigval :     1543.60  1552.21  1565.75  1571.10  1574.68  1579.86
eigval :     1582.59  1590.65  1606.40  2968.87  2978.03  3040.52
eigval :     3044.87  3050.96  3066.58  3068.34  3069.49  3070.29
eigval :     3074.45  3077.75  3079.99  3080.18  3080.66  3082.68
eigval :     3082.90  3085.79  3086.58  3087.62  3089.74  3091.72
eigval :     3092.67  3093.09  3094.27  3094.98  3095.56  3098.52
eigval :     3099.76  3100.96  3106.69  3107.10  3108.03  3109.79

   temp. (K)  partition function   enthalpy   heat capacity  entropy
                                   cal/mol     cal/K/mol   cal/K/mol   J/K/mol
 298.15  VIB  0.238E+22            26700.092    164.271    167.804
         ROT  0.154E+09              888.752      2.981     40.444
         INT  0.366E+30            27588.844    167.252    208.248
         TR   0.190E+29             1481.254      4.968     45.614
         TOT                       29070.0984   172.2198   253.8620  1062.1585

       T/K    H(0)-H(T)+PV         H(T)/Eh          T*S/Eh         G(T)/Eh
   ------------------------------------------------------------------------
    298.15    0.463262E-01    0.690955E+00    0.120618E+00    0.570337E+00
   ------------------------------------------------------------------------

         :::::::::::::::::::::::::::::::::::::::::::::::::::::
         ::                  THERMODYNAMIC                  ::
         :::::::::::::::::::::::::::::::::::::::::::::::::::::
         :: total free energy        -140.416191976995 Eh   ::
         ::.................................................::
         :: total energy             -140.986528555295 Eh   ::
         :: zero point energy           0.644628441344 Eh   ::
         :: G(RRHO) w/o ZPVE           -0.074291863044 Eh   ::
         :: G(RRHO) contrib.            0.570336578300 Eh   ::
         :::::::::::::::::::::::::::::::::::::::::::::::::::::

           -------------------------------------------------
          | TOTAL ENERGY             -140.986528555295 Eh   |
          | TOTAL ENTHALPY           -140.295573963367 Eh   |
          | TOTAL FREE ENERGY        -140.416191976995 Eh   |
          | GRADIENT NORM               0.000071274389 Eh/α |
          | HOMO-LUMO GAP               0.424962424553 eV   |
           -------------------------------------------------

 * finished run on 2025/09/13 at 13:53:16.984
