   * xtb version 6.7.1 (edcfbbe) compiled by 'albert@albert-system' on 2024-07-22

   ID    Z sym.   atoms
    1    6 C      1, 2, 4-36, 40-45, 49-53
    2    7 N      3
    3   16 S      37, 46
    4    8 O      38, 39, 47, 48
    5    1 H      54-86

          program call               : xtb data2507/toluene/ECDPTT/ECDPTT.xyz --gfn 2 --gbsa toluene --ohess vtight --parallel 40 --molden --ceasefiles --namespace data2507/toluene/ECDPTT/ECDPTT_toluene_S0_preOpt
      * Solvation model:               GBSA
        Solvent                        toluene
        Solvent mass                       9.2140E+01 g/mol
          :  Hamiltonian                  GFN2-xTB          :
 * total energy  :  -141.0198588 Eh     change       -0.2428663E-08 Eh
 * total energy  :  -141.0336278 Eh     change       -0.1376907E-01 Eh
 * total energy  :  -141.0380701 Eh     change       -0.4442236E-02 Eh
 * total energy  :  -141.0395459 Eh     change       -0.1475856E-02 Eh
 * total energy  :  -141.0406749 Eh     change       -0.1129020E-02 Eh
 * total energy  :  -141.0413257 Eh     change       -0.6507141E-03 Eh
 * total energy  :  -141.0419695 Eh     change       -0.6438616E-03 Eh
 * total energy  :  -141.0426844 Eh     change       -0.7148368E-03 Eh
 * total energy  :  -141.0434728 Eh     change       -0.7884247E-03 Eh
 * total energy  :  -141.0442779 Eh     change       -0.8050841E-03 Eh
 * total energy  :  -141.0484731 Eh     change       -0.3044964E-05 Eh
 * total energy  :  -141.0484756 Eh     change       -0.2548841E-05 Eh
 * total energy  :  -141.0484775 Eh     change       -0.1878491E-05 Eh
 * total energy  :  -141.0484794 Eh     change       -0.1864846E-05 Eh
 * total energy  :  -141.0484814 Eh     change       -0.2023801E-05 Eh
 * total energy  :  -141.0484828 Eh     change       -0.1453961E-05 Eh
 * total energy  :  -141.0484839 Eh     change       -0.1041346E-05 Eh
 * total energy  :  -141.0484848 Eh     change       -0.9510128E-06 Eh
 * total energy  :  -141.0484849 Eh     change       -0.7150965E-07 Eh
   *** GEOMETRY OPTIMIZATION CONVERGED AFTER 68 ITERATIONS ***

 final structure:
================
86
 xtb: 6.7.1 (edcfbbe)
C           -8.14403865339010       -2.04964185610696       -0.34021406590949
C           -7.05085654520609       -2.64143871492512       -1.23006674202251
N           -5.76166055819789       -2.60917092675313       -0.58954345910519
C           -5.23100482128889       -3.59851573832840        0.20425308817858
C           -5.74570756444472       -4.84569408079787        0.53400448940740
C           -4.99063752038015       -5.66272231531220        1.35346791143345
C           -3.74896894479855       -5.25865788488496        1.84113142457749
C           -3.23068183182875       -4.01952966061377        1.52106114117597
C           -3.97175066815402       -3.17973740986532        0.69971874740357
C           -3.75535794011861       -1.85773035250256        0.18411518317223
C           -2.72676830125382       -0.93860420697257        0.32012149399667
C           -2.83627299998428        0.29863318220983       -0.30313279835278
C           -1.75257049541947        1.28717613069232       -0.17088577766669
C           -1.98780728223140        2.59644107230677        0.07917783840193
C           -0.92930179050501        3.61753726073535       -0.00379595389347
C           -0.05593161919335        3.66006510419811       -1.08968022638583
C            0.92257506016016        4.63312720554497       -1.16641174635574
C            1.04461108399240        5.58084325277267       -0.16279615456214
C            0.17198923073142        5.55721957492950        0.91306588869902
C           -0.81190610305580        4.58901520533638        0.98916480525970
C           -3.32144614708262        3.10494671355507        0.44212923087571
C           -3.80878704551636        4.27392270488938       -0.14058429187354
C           -5.05285747837908        4.76748604690193        0.20599074555343
C           -5.82395463532852        4.11053321972248        1.15095134489611
C           -5.33969937251386        2.95940890795082        1.75180579659805
C           -4.09959067632998        2.45968745903968        1.40221688629022
C           -0.39162294156090        0.75596906121608       -0.33761303589576
C           -0.11049761928267       -0.15278384923296       -1.35827617575543
C            1.16236914714828       -0.65745328122057       -1.52567227002351
C            2.19839477985583       -0.27123021380852       -0.67441273480227
C            3.56036168348219       -0.77778128316389       -0.87081540442545
C            3.79416262942429       -2.09841963841580       -1.26530816114969
C            5.08173615914539       -2.56957415882954       -1.45234957730819
C            6.15786980989721       -1.72001994492659       -1.25786996791734
C            5.94007669026657       -0.41253592452182       -0.86577591785533
C            4.66071315796885        0.06080553742184       -0.66488641342468
S            7.34495434062367        0.66774809299904       -0.59970966697576
O            7.92696767300630        1.03666121520721       -1.86435857664305
O            6.92437096563602        1.75948117417226        0.24849560363390
C            8.50349091421025       -0.34451634269792        0.32350383912077
C            9.16148978179370        0.17471365666144        1.42429548541406
C           10.05117618255744       -0.62631324597295        2.12599016870620
C           10.26831927858066       -1.93840549887847        1.73211494597608
C            9.59653814155178       -2.45792224807521        0.63463371309004
C            8.71888407548011       -1.65171561308712       -0.06820712088659
S            7.83430591449507       -2.29847443914708       -1.48930167045293
O            8.38576536661733       -1.73543556566046       -2.69509479630620
O            7.83513427019031       -3.74098064727025       -1.40396981201171
C            1.91174174548971        0.61531315973397        0.36503253049716
C            0.63750224918913        1.11331022528172        0.53456722274536
C           -3.96503633443264        0.58560563690205       -1.08522960929025
C           -4.99374831026789       -0.31813553101453       -1.24276814192964
C           -4.89401889618660       -1.54558451607305       -0.59861136598216
H           -7.91499663649775       -1.01386490483867       -0.09981631614938
H           -9.10201374072815       -2.08764583424036       -0.85203085408100
H           -8.21971694895259       -2.61055067698155        0.58861050658888
H           -7.28777850161042       -3.68002513956293       -1.47478739282366
H           -6.98517691586228       -2.07940940770275       -2.16589302674734
H           -6.70711055163659       -5.17563200874419        0.17000448973537
H           -5.37167428650478       -6.63711069557573        1.62412603865632
H           -3.18961405507443       -5.92711819156585        2.47961368342034
H           -2.26949909197461       -3.70537739622190        1.90057650616704
H           -1.85879443107299       -1.17173823479422        0.91965287590343
H           -0.15650061906240        2.93205443722670       -1.88144756060999
H            1.59241533988487        4.65470918062101       -2.01431441608077
H            1.81283198683665        6.33808922846174       -0.22236009636864
H            0.25822463267121        6.29780100472252        1.69541141137587
H           -1.49053637653381        4.57157327202692        1.83060946371368
H           -3.20926744470116        4.78779888179294       -0.87920113205447
H           -5.42183293218738        5.66947646260656       -0.26143526190614
H           -6.79540399180995        4.49743656137133        1.42263198780804
H           -5.93149441528055        2.45019288924700        2.49914488314155
H           -3.72085740073309        1.56883538992962        1.88133711382332
H           -0.89962249726576       -0.44706141495384       -2.03511584043076
H            1.36561945261093       -1.33086292015859       -2.34454189804950
H            2.95923656370155       -2.76724123719749       -1.40532189300051
H            5.27878494702458       -3.59080409496105       -1.73841839639947
H            4.53768954444976        1.08847725833029       -0.36098569471405
H            8.95684128909108        1.19394369037195        1.71199581790444
H           10.56994869557456       -0.22476396313367        2.98250283583632
H           10.95721629583078       -2.56183145339017        2.28051583537498
H            9.72868255620493       -3.47828769299883        0.31082901864122
H            2.69054067253720        0.89440136380978        1.05859727429681
H            0.42899206714051        1.78360739457996        1.35469125873924
H           -4.01979448562813        1.54054015968359       -1.58650800363552
H           -5.84835595558373       -0.06653661915509       -1.85234010797914

          :  Hamiltonian                  GFN2-xTB          :
         :: gradient norm              0.000188542869 Eh/a0 ::
         :: HOMO-LUMO gap              1.591446731201 eV    ::
         :: SCC energy              -143.416278446230 Eh    ::
         :: -> dispersion             -0.128673816722 Eh    ::
         :: -> Gsolv                  -0.071722366768 Eh    ::
         :: repulsion energy           2.367793543809 Eh    ::

    * Orbital Energies and Occupations

         #    Occupation            Energy/Eh            Energy/eV
      -------------------------------------------------------------
         1        2.0000           -0.7960128             -21.6606
       ...           ...                  ...                  ...
       117        2.0000           -0.4179663             -11.3734
       118        2.0000           -0.4164427             -11.3320
       119        2.0000           -0.4151678             -11.2973
       120        2.0000           -0.4133536             -11.2479
       121        2.0000           -0.4072894             -11.0829
       122        2.0000           -0.4065265             -11.0621
       123        2.0000           -0.4046562             -11.0113
       124        2.0000           -0.4012803             -10.9194
       125        2.0000           -0.4009088             -10.9093
       126        2.0000           -0.3979776             -10.8295
       127        2.0000           -0.3777712             -10.2797
       128        2.0000           -0.3699879             -10.0679
       129        2.0000           -0.3534656              -9.6183 (HOMO)
       130                         -0.2949812              -8.0268 (LUMO)
       131                         -0.2800542              -7.6207
       132                         -0.2737049              -7.4479
       133                         -0.2677792              -7.2866
       134                         -0.2586894              -7.0393
       135                         -0.2421986              -6.5906
       136                         -0.2295315              -6.2459
       137                         -0.2265926              -6.1659
       138                         -0.2224260              -6.0525
       139                         -0.2211704              -6.0184
       140                         -0.2190897              -5.9617
       ...                                ...                  ...
       255                          1.2136853              33.0261
      -------------------------------------------------------------
                  HL-Gap            0.0584844 Eh            1.5914 eV

     #   Z          covCN         q      C6AA      α(0)
     1   6 C        3.752    -0.111    22.677     6.791
     2   6 C        3.738     0.003    20.609     6.478
     3   7 N        2.796    -0.047    22.142     6.989
     4   6 C        3.082     0.045    26.896     8.502
     5   6 C        2.909    -0.054    29.335     8.881
     6   6 C        2.923    -0.036    28.901     8.816
     7   6 C        2.920    -0.045    29.108     8.847
     8   6 C        2.912    -0.035    28.879     8.812
     9   6 C        3.070    -0.020    28.444     8.745
    10   6 C        3.067    -0.021    28.457     8.747
    11   6 C        2.917    -0.038    28.949     8.823
    12   6 C        2.978     0.001    28.005     8.681
    13   6 C        2.967    -0.004    28.129     8.700
    14   6 C        2.967    -0.006    28.168     8.706
    15   6 C        2.978     0.015    27.681     8.630
    16   6 C        2.924    -0.034    28.843     8.807
    17   6 C        2.918    -0.031    28.773     8.796
    18   6 C        2.920    -0.032    28.804     8.801
    19   6 C        2.918    -0.031    28.766     8.795
    20   6 C        2.925    -0.033    28.824     8.804
    21   6 C        2.978     0.016    27.647     8.625
    22   6 C        2.925    -0.033    28.820     8.804
    23   6 C        2.918    -0.031    28.771     8.796
    24   6 C        2.920    -0.032    28.805     8.801
    25   6 C        2.918    -0.031    28.763     8.795
    26   6 C        2.924    -0.032    28.802     8.801
    27   6 C        2.978     0.022    27.513     8.604
    28   6 C        2.923    -0.030    28.751     8.793
    29   6 C        2.922    -0.032    28.792     8.799
    30   6 C        2.977     0.008    27.828     8.653
    31   6 C        2.976     0.035    27.204     8.556
    32   6 C        2.924    -0.023    28.571     8.766
    33   6 C        2.950    -0.017    28.432     8.746
    34   6 C        3.007    -0.088    30.185     9.012
    35   6 C        3.006    -0.083    30.055     8.993
    36   6 C        2.962    -0.024    28.609     8.773
    37  16 S        3.865     0.975   107.365    17.440
    38   8 O        0.860    -0.571    25.414     6.759
    39   8 O        0.860    -0.554    25.019     6.706
    40   6 C        3.006    -0.081    30.011     8.986
    41   6 C        2.952    -0.015    28.381     8.738
    42   6 C        2.920    -0.012    28.314     8.726
    43   6 C        2.920    -0.012    28.312     8.726
    44   6 C        2.952    -0.015    28.380     8.738
    45   6 C        3.007    -0.081    30.005     8.985
    46  16 S        3.861     0.973   107.415    17.444
    47   8 O        0.860    -0.572    25.430     6.761
    48   8 O        0.860    -0.554    25.017     6.706
    49   6 C        2.922    -0.032    28.794     8.800
    50   6 C        2.922    -0.030    28.747     8.792
    51   6 C        2.927    -0.037    28.932     8.821
    52   6 C        2.908    -0.053    29.328     8.880
    53   6 C        3.083     0.045    26.901     8.503
    54   1 H        0.925     0.047     2.357     2.401
    55   1 H        0.925     0.050     2.315     2.380
    56   1 H        0.925     0.046     2.366     2.405
    57   1 H        0.924     0.053     2.287     2.365
    58   1 H        0.924     0.052     2.296     2.370
    59   1 H        0.926     0.028     2.608     2.525
    60   1 H        0.926     0.026     2.637     2.540
    61   1 H        0.926     0.024     2.674     2.557
    62   1 H        0.926     0.028     2.620     2.531
    63   1 H        0.926     0.028     2.617     2.530
    64   1 H        0.926     0.029     2.599     2.521
    65   1 H        0.926     0.029     2.607     2.525
    66   1 H        0.926     0.029     2.596     2.519
    67   1 H        0.926     0.031     2.576     2.510
    68   1 H        0.926     0.029     2.595     2.519
    69   1 H        0.925     0.027     2.626     2.534
    70   1 H        0.926     0.030     2.592     2.518
    71   1 H        0.926     0.030     2.582     2.513
    72   1 H        0.926     0.030     2.580     2.512
    73   1 H        0.926     0.031     2.577     2.510
    74   1 H        0.926     0.042     2.420     2.433
    75   1 H        0.926     0.046     2.370     2.407
    76   1 H        0.926     0.090     1.881     2.145
    77   1 H        0.926     0.081     1.965     2.192
    78   1 H        0.926     0.081     1.973     2.196
    79   1 H        0.926     0.084     1.936     2.176
    80   1 H        0.926     0.093     1.847     2.125
    81   1 H        0.926     0.093     1.847     2.125
    82   1 H        0.926     0.084     1.936     2.176
    83   1 H        0.926     0.042     2.421     2.433
    84   1 H        0.926     0.041     2.442     2.444
    85   1 H        0.926     0.028     2.622     2.532
    86   1 H        0.926     0.030     2.582     2.513

molecular dipole:
                 x           y           z       tot (Debye)
 q only:       -3.331      -1.025       2.750
   full:       -3.136      -0.912       2.422      10.334

 projected vibrational frequencies (cm⁻¹)
eigval :       -0.00    -0.00    -0.00     0.00     0.00     0.00
eigval :        8.42    12.65    16.99    19.19    21.52    26.33
eigval :       36.03    43.62    49.22    54.36    54.76    60.45
eigval :       65.95    79.90    81.64    84.32    94.49    97.48
eigval :      106.14   114.88   121.25   124.54   135.72   155.69
eigval :      160.90   167.22   177.34   195.84   201.43   206.17
eigval :      218.37   226.25   236.04   244.19   254.65   264.06
eigval :      269.97   279.85   280.36   296.93   301.36   316.43
eigval :      322.13   326.95   343.34   368.00   373.48   376.04
eigval :      377.25   391.44   397.88   401.48   416.57   423.51
eigval :      425.58   430.10   439.24   452.52   456.79   472.72
eigval :      476.70   494.19   505.74   515.01   520.91   532.64
eigval :      537.17   546.11   552.30   563.38   567.84   579.92
eigval :      584.56   587.65   592.01   598.26   604.17   610.52
eigval :      628.91   646.02   650.92   667.00   672.22   674.67
eigval :      678.70   679.84   684.09   686.39   705.83   709.53
eigval :      709.79   730.58   748.41   758.06   768.24   770.25
eigval :      778.59   802.91   805.47   817.62   818.42   843.09
eigval :      862.16   863.79   871.76   873.40   874.25   876.71
eigval :      879.32   894.77   898.61   898.75   900.06   902.68
eigval :      908.34   910.42   918.31   921.82   923.32   925.98
eigval :      926.76   928.13   929.31   929.76   931.02   934.33
eigval :      956.68   976.04   981.58   983.41  1002.46  1011.01
eigval :     1014.28  1033.38  1065.95  1067.80  1071.70  1072.38
eigval :     1082.11  1084.31  1086.98  1090.50  1092.39  1119.67
eigval :     1121.93  1132.59  1135.30  1139.45  1141.96  1145.57
eigval :     1149.39  1156.03  1160.72  1167.96  1173.30  1179.63
eigval :     1179.90  1183.98  1195.98  1198.85  1200.39  1202.38
eigval :     1206.76  1213.31  1213.79  1216.73  1232.41  1238.75
eigval :     1249.58  1267.09  1271.60  1278.83  1283.16  1287.14
eigval :     1296.80  1306.91  1313.53  1314.76  1315.40  1317.52
eigval :     1319.28  1323.39  1325.32  1348.57  1367.09  1372.69
eigval :     1377.05  1401.65  1402.85  1403.06  1422.54  1423.91
eigval :     1428.11  1429.03  1437.16  1443.02  1465.62  1466.57
eigval :     1472.86  1476.60  1483.45  1486.46  1488.99  1496.44
eigval :     1539.64  1551.73  1556.57  1563.74  1564.21  1575.86
eigval :     1576.95  1579.69  1582.16  1583.24  1592.21  1593.00
eigval :     1597.71  1606.75  1616.73  2960.32  2973.26  3038.28
eigval :     3042.77  3047.12  3064.80  3065.50  3066.73  3067.45
eigval :     3067.72  3073.08  3074.03  3074.71  3077.09  3078.52
eigval :     3079.17  3080.99  3081.06  3082.79  3084.62  3088.27
eigval :     3088.67  3090.04  3091.77  3092.14  3096.24  3097.19
eigval :     3099.35  3102.46  3106.41  3108.08  3108.40  3111.32

   temp. (K)  partition function   enthalpy   heat capacity  entropy
                                   cal/mol     cal/K/mol   cal/K/mol   J/K/mol
 298.15  VIB  0.174E+22            26631.778    163.247    167.729
         ROT  0.158E+09              888.752      2.981     40.497
         INT  0.275E+30            27520.531    166.227    208.226
         TR   0.190E+29             1481.254      4.968     45.614
         TOT                       29001.7845   171.1956   253.8398  1062.0655

       T/K    H(0)-H(T)+PV         H(T)/Eh          T*S/Eh         G(T)/Eh
   ------------------------------------------------------------------------
    298.15    0.462173E-01    0.693287E+00    0.120607E+00    0.572679E+00
   ------------------------------------------------------------------------

         :::::::::::::::::::::::::::::::::::::::::::::::::::::
         ::                  THERMODYNAMIC                  ::
         :::::::::::::::::::::::::::::::::::::::::::::::::::::
         :: total free energy        -140.475805710450 Eh   ::
         ::.................................................::
         :: total energy             -141.048484901326 Eh   ::
         :: zero point energy           0.647069363041 Eh   ::
         :: G(RRHO) w/o ZPVE           -0.074390172164 Eh   ::
         :: G(RRHO) contrib.            0.572679190876 Eh   ::
         :::::::::::::::::::::::::::::::::::::::::::::::::::::

           -------------------------------------------------
          | TOTAL ENERGY             -141.048484901326 Eh   |
          | TOTAL ENTHALPY           -140.355198252894 Eh   |
          | TOTAL FREE ENERGY        -140.475805710450 Eh   |
          | GRADIENT NORM               0.000188475726 Eh/α |
          | HOMO-LUMO GAP               1.591442501697 eV   |
           -------------------------------------------------

 * finished run on 2025/09/13 at 13:30:35.411
