   * xtb version 6.7.1 (edcfbbe) compiled by 'albert@albert-system' on 2024-07-22

   ID    Z sym.   atoms
    1    6 C      1, 2, 4-36, 40-45, 49-53
    2    7 N      3
    3   16 S      37, 46
    4    8 O      38, 39, 47, 48
    5    1 H      54-86

          program call               : xtb data2507/toluene/ECDPTT/ECDPTT_toluene_S0_finalOpt.xtbopt.xyz --gfn 2 --uhf 2 --gbsa toluene --ohess vtight --parallel 40 --molden --ceasefiles --namespace data2507/toluene/ECDPTT/ECDPTT_toluene_T1_preOpt
      * Solvation model:               GBSA
        Solvent                        toluene
        Solvent mass                       9.2140E+01 g/mol
          :  Hamiltonian                  GFN2-xTB          :
 * total energy  :  -140.9687410 Eh     change       -0.9678729E-09 Eh
 * total energy  :  -140.9750733 Eh     change       -0.6332307E-02 Eh
 * total energy  :  -140.9779587 Eh     change       -0.2885468E-02 Eh
 * total energy  :  -140.9789376 Eh     change       -0.9788712E-03 Eh
 * total energy  :  -140.9800818 Eh     change       -0.1144163E-02 Eh
 * total energy  :  -140.9809480 Eh     change       -0.8662077E-03 Eh
 * total energy  :  -140.9815937 Eh     change       -0.6457136E-03 Eh
 * total energy  :  -140.9819793 Eh     change       -0.3856408E-03 Eh
 * total energy  :  -140.9822502 Eh     change       -0.2709091E-03 Eh
 * total energy  :  -140.9824747 Eh     change       -0.2244725E-03 Eh
 * total energy  :  -140.9864563 Eh     change       -0.2935386E-05 Eh
 * total energy  :  -140.9864586 Eh     change       -0.2280638E-05 Eh
 * total energy  :  -140.9864608 Eh     change       -0.2219796E-05 Eh
 * total energy  :  -140.9864629 Eh     change       -0.2048219E-05 Eh
 * total energy  :  -140.9864644 Eh     change       -0.1561901E-05 Eh
 * total energy  :  -140.9864659 Eh     change       -0.1407165E-05 Eh
 * total energy  :  -140.9864673 Eh     change       -0.1403144E-05 Eh
 * total energy  :  -140.9864688 Eh     change       -0.1515254E-05 Eh
 * total energy  :  -140.9864688 Eh     change       -0.6278088E-07 Eh
   *** GEOMETRY OPTIMIZATION CONVERGED AFTER 68 ITERATIONS ***

 final structure:
================
86
 xtb: 6.7.1 (edcfbbe)
C           -7.43573523768059       -4.41825131929133       -2.14150810938899
C           -6.93754332690353       -4.45031873934867       -0.69664428278760
N           -6.77777643972430       -3.12374027009972       -0.15857560173625
C           -7.76920890868090       -2.38478916936279        0.45248979935951
C           -9.08448655975705       -2.72686990383584        0.73306510202132
C           -9.87553358059369       -1.78528421264638        1.36639070166481
C           -9.37886380934895       -0.53099462863478        1.71200395128344
C           -8.06940193066225       -0.18310810661121        1.43521273058048
C           -7.25680476717798       -1.11361893343697        0.80491748686261
C           -5.88682827400210       -1.09538409310649        0.36498509794768
C           -4.89009284643299       -0.14724816244558        0.42433604251364
C           -3.62290759084072       -0.43624018875013       -0.11526412218547
C           -2.58230880497199        0.55216650090767       -0.10491201793151
C           -2.95176986703881        1.95932585663562       -0.12055871110604
C           -2.21281533110746        2.89685695414433        0.67564961545550
C           -2.07716268000942        4.24366242036424        0.28331951990192
C           -1.33723545354456        5.12977288518491        1.03439717385827
C           -0.71238843795389        4.71329182767816        2.20278031821045
C           -0.83302735643158        3.38988363389755        2.60770177294465
C           -1.56391828758984        2.49445353070759        1.85994277851353
C           -4.06029668135672        2.37758901538163       -0.92983559968509
C           -4.41617646229955        1.67026918856871       -2.09559798254005
C           -5.51510353987269        2.03630100188643       -2.84016605611317
C           -6.30317430214010        3.11160335984007       -2.45149739620863
C           -5.97252051904233        3.82100241049532       -1.30365518611278
C           -4.87105302278375        3.46853435188915       -0.55636627346227
C           -1.20656271439414        0.18777478718333       -0.07617156565107
C           -0.20231059959667        1.04975219610909       -0.57739250986357
C            1.12478077509512        0.72669372938849       -0.49755785922520
C            1.55326119601170       -0.47826765273407        0.08971223883287
C            2.95830260791508       -0.82041945421620        0.17819079862836
C            3.38995038441116       -2.16293194027634        0.18071538293908
C            4.72481068038089       -2.48924579642463        0.26529101529789
C            5.68122308822169       -1.48513473653330        0.36776132239447
C            5.27384050836344       -0.15758547398734        0.36030581890439
C            3.94538769964455        0.17767184617735        0.25885754730364
S            6.51318217538686        1.12515671270786        0.45046830131119
O            5.93805814087563        2.35490464736856       -0.05301852075985
O            7.07425045999233        1.19622720321131        1.77739082766384
C            7.77331392267385        0.58892223009693       -0.70788338377005
C            8.32505467527720        1.48251649668742       -1.60864675953062
C            9.28571197959585        1.03995194477038       -2.50608955147817
C            9.67742407427327       -0.29174031482761       -2.50814018292685
C            9.11255722342949       -1.18604318619358       -1.61139669903973
C            8.16561267712472       -0.73671791377875       -0.70745636036941
S            7.41065484620839       -1.86848219927624        0.46036569704609
O            7.61208201139093       -3.21746645043195       -0.02618943810225
O            7.92640625789750       -1.59851589628189        1.78124257759878
C            0.56018176444107       -1.33756597035806        0.59543537619510
C           -0.76855321740975       -1.01986309855242        0.51778723670074
C           -3.41614830660567       -1.70244018056139       -0.71903080165521
C           -4.40253397864348       -2.65370903614602       -0.79114589491783
C           -5.64900154446414       -2.36209567369250       -0.23552611677852
H           -6.72932777143825       -3.88570694635267       -2.77402283382722
H           -7.54764149206813       -5.43177072427067       -2.51689557377441
H           -8.39786583511018       -3.91478107647758       -2.19982077706087
H           -7.64679401726229       -4.99408072497923       -0.06748528730149
H           -5.97385789429766       -4.96286287212740       -0.64369760768459
H           -9.48974466736678       -3.69097997762525        0.46680744038677
H          -10.90324298713292       -2.02712697464078        1.59498744958572
H          -10.02965586612214        0.17794548883571        2.20232583238297
H           -7.68499251997812        0.79030735975627        1.70045539779243
H           -5.06728392084169        0.80015972554506        0.90860482994500
H           -2.52242646693954        4.56912924919301       -0.64557661793684
H           -1.23418744797536        6.15426272481415        0.70583217101352
H           -0.13214168509009        5.41089161309404        2.78820574669030
H           -0.35139499007685        3.06058116734170        3.51738200487317
H           -1.66852031406609        1.47395780112884        2.19695521032842
H           -3.79495274663404        0.84979005885870       -2.42214282684354
H           -5.76274799647071        1.48491209043024       -3.73596738744254
H           -7.16748932487053        3.39295299433682       -3.03442360414070
H           -6.58941496402510        4.65050144204346       -0.98804719443537
H           -4.64908071286043        4.00012895961339        0.35757878789123
H           -0.49797561276462        1.96412063590373       -1.06965344395395
H            1.85610481481589        1.39365747099891       -0.92851124558757
H            2.66274018585628       -2.95321426773834        0.08401319906097
H            5.06392946034652       -3.51314343985314        0.24593705486764
H            3.69009972238879        1.22537701466175        0.26532225054148
H            7.98368549718127        2.50564380823892       -1.59068189412281
H            9.72363042241346        1.73429643803924       -3.20610122685883
H           10.42028780863938       -0.63650721465736       -3.21046360047083
H            9.38128967987138       -2.23062282626648       -1.59444077966128
H            0.85408815005787       -2.24445437850905        1.10170393852266
H           -1.49849798217926       -1.67283223212872        0.97312489062975
H           -2.46268011025946       -1.89758420405145       -1.18607795107476
H           -4.21340970497175       -3.59482270706514       -1.28441362303559

          :  Hamiltonian                  GFN2-xTB          :
         :: gradient norm              0.000183342703 Eh/a0 ::
         :: HOMO-LUMO gap              0.410593699268 eV    ::
         :: SCC energy              -143.334560058112 Eh    ::
         :: -> dispersion             -0.128868702873 Eh    ::
         :: -> Gsolv                  -0.076015189254 Eh    ::
         :: repulsion energy           2.348091207320 Eh    ::

    * Orbital Energies and Occupations

         #    Occupation            Energy/Eh            Energy/eV
      -------------------------------------------------------------
         1        2.0000           -0.7878373             -21.4381
       ...           ...                  ...                  ...
       118        2.0000           -0.4181954             -11.3797
       119        2.0000           -0.4168951             -11.3443
       120        2.0000           -0.4146459             -11.2831
       121        2.0000           -0.4096183             -11.1463
       122        2.0000           -0.4083072             -11.1106
       123        2.0000           -0.4072822             -11.0827
       124        2.0000           -0.4047555             -11.0140
       125        2.0000           -0.4002687             -10.8919
       126        2.0000           -0.3992122             -10.8631
       127        2.0000           -0.3856897             -10.4952
       128        2.0000           -0.3742053             -10.1826
       129        1.0000           -0.3443459              -9.3701
       130        0.9996           -0.2997930              -8.1578 (HOMO)
       131        0.0004           -0.2847051              -7.7472 (LUMO)
       132                         -0.2683280              -7.3016
       133                         -0.2662578              -7.2452
       134                         -0.2557946              -6.9605
       135                         -0.2500809              -6.8050
       136                         -0.2319103              -6.3106
       137                         -0.2269289              -6.1750
       138                         -0.2243464              -6.1048
       139                         -0.2223738              -6.0511
       140                         -0.2192135              -5.9651
       141                         -0.2118201              -5.7639
       ...                                ...                  ...
       255                          1.2108425              32.9487
      -------------------------------------------------------------
                  HL-Gap            0.0150878 Eh            0.4106 eV

     #   Z          covCN         q      C6AA      α(0)
     1   6 C        3.752    -0.112    22.709     6.796
     2   6 C        3.739    -0.001    20.681     6.489
     3   7 N        2.796    -0.024    21.718     6.922
     4   6 C        3.083     0.044    26.916     8.505
     5   6 C        2.910    -0.049    29.211     8.862
     6   6 C        2.923    -0.033    28.823     8.804
     7   6 C        2.920    -0.039    28.976     8.827
     8   6 C        2.912    -0.031    28.778     8.797
     9   6 C        3.067    -0.016    28.352     8.731
    10   6 C        3.063    -0.014    28.304     8.724
    11   6 C        2.915    -0.032    28.802     8.800
    12   6 C        2.973     0.011    27.757     8.642
    13   6 C        2.969     0.000    28.014     8.682
    14   6 C        2.970    -0.004    28.126     8.699
    15   6 C        2.971     0.017    27.623     8.621
    16   6 C        2.922    -0.033    28.833     8.806
    17   6 C        2.915    -0.030    28.738     8.791
    18   6 C        2.919    -0.030    28.748     8.792
    19   6 C        2.915    -0.029    28.728     8.789
    20   6 C        2.923    -0.032    28.804     8.801
    21   6 C        2.972     0.017    27.624     8.621
    22   6 C        2.923    -0.033    28.812     8.802
    23   6 C        2.915    -0.029    28.723     8.788
    24   6 C        2.919    -0.030    28.750     8.793
    25   6 C        2.915    -0.029    28.731     8.790
    26   6 C        2.922    -0.033    28.824     8.804
    27   6 C        2.971     0.012    27.735     8.639
    28   6 C        2.919    -0.033    28.811     8.802
    29   6 C        2.918    -0.035    28.863     8.810
    30   6 C        2.973     0.004    27.926     8.668
    31   6 C        2.973     0.022    27.518     8.605
    32   6 C        2.923    -0.032    28.808     8.802
    33   6 C        2.948    -0.022    28.562     8.766
    34   6 C        3.008    -0.101    30.523     9.063
    35   6 C        3.006    -0.086    30.148     9.007
    36   6 C        2.963    -0.029    28.728     8.792
    37  16 S        3.875     0.961   107.767    17.472
    38   8 O        0.860    -0.561    25.175     6.727
    39   8 O        0.860    -0.577    25.550     6.777
    40   6 C        3.008    -0.082    30.024     8.988
    41   6 C        2.952    -0.017    28.423     8.744
    42   6 C        2.920    -0.015    28.392     8.738
    43   6 C        2.920    -0.015    28.380     8.736
    44   6 C        2.951    -0.017    28.427     8.745
    45   6 C        3.007    -0.081    30.018     8.987
    46  16 S        3.869     0.955   107.947    17.487
    47   8 O        0.860    -0.561    25.184     6.728
    48   8 O        0.860    -0.580    25.624     6.787
    49   6 C        2.918    -0.036    28.890     8.814
    50   6 C        2.918    -0.035    28.868     8.811
    51   6 C        2.925    -0.036    28.891     8.815
    52   6 C        2.906    -0.049    29.207     8.862
    53   6 C        3.080     0.048    26.828     8.492
    54   1 H        0.925     0.050     2.321     2.383
    55   1 H        0.925     0.055     2.264     2.353
    56   1 H        0.925     0.050     2.325     2.384
    57   1 H        0.924     0.058     2.218     2.329
    58   1 H        0.924     0.059     2.212     2.326
    59   1 H        0.926     0.038     2.481     2.463
    60   1 H        0.926     0.034     2.531     2.488
    61   1 H        0.926     0.031     2.572     2.508
    62   1 H        0.926     0.033     2.538     2.491
    63   1 H        0.926     0.037     2.483     2.464
    64   1 H        0.926     0.038     2.476     2.460
    65   1 H        0.926     0.033     2.544     2.494
    66   1 H        0.926     0.031     2.573     2.509
    67   1 H        0.926     0.030     2.585     2.514
    68   1 H        0.926     0.033     2.541     2.493
    69   1 H        0.926     0.033     2.537     2.491
    70   1 H        0.926     0.032     2.552     2.498
    71   1 H        0.926     0.033     2.550     2.497
    72   1 H        0.926     0.033     2.547     2.496
    73   1 H        0.926     0.036     2.504     2.475
    74   1 H        0.926     0.035     2.515     2.480
    75   1 H        0.926     0.034     2.537     2.491
    76   1 H        0.926     0.078     1.999     2.211
    77   1 H        0.926     0.069     2.099     2.266
    78   1 H        0.926     0.069     2.093     2.262
    79   1 H        0.926     0.080     1.984     2.202
    80   1 H        0.926     0.089     1.889     2.149
    81   1 H        0.926     0.089     1.889     2.149
    82   1 H        0.926     0.080     1.984     2.203
    83   1 H        0.926     0.041     2.438     2.442
    84   1 H        0.926     0.044     2.401     2.423
    85   1 H        0.926     0.045     2.382     2.414
    86   1 H        0.926     0.042     2.420     2.433

molecular dipole:
                 x           y           z       tot (Debye)
 q only:       -6.880      -1.246      -3.744
   full:       -6.574      -1.183      -3.407      19.058

 projected vibrational frequencies (cm⁻¹)
eigval :       -0.00    -0.00    -0.00    -0.00    -0.00     0.00
eigval :        4.35    12.43    12.82    17.15    19.68    22.27
eigval :       34.89    47.60    49.06    55.51    58.85    66.25
eigval :       74.63    76.24    85.70    93.53    97.72   101.14
eigval :      107.38   115.00   122.90   127.20   147.44   159.32
eigval :      170.81   173.19   175.75   194.40   199.04   208.06
eigval :      219.33   235.72   241.88   253.77   256.13   268.70
eigval :      270.63   284.58   289.09   295.56   307.32   316.85
eigval :      325.05   326.54   332.28   359.96   369.65   384.75
eigval :      386.35   390.38   392.87   398.26   405.76   415.22
eigval :      420.88   429.93   437.66   449.56   452.01   461.51
eigval :      469.30   473.93   501.92   510.15   512.03   519.84
eigval :      533.96   540.13   549.21   560.73   567.37   568.91
eigval :      581.61   583.06   586.69   591.32   599.04   602.11
eigval :      626.82   635.70   645.76   656.94   659.42   662.31
eigval :      671.04   673.43   681.48   682.88   693.58   708.35
eigval :      709.64   727.21   745.29   749.26   768.80   770.42
eigval :      773.47   800.79   804.22   807.54   822.05   828.48
eigval :      849.66   854.17   858.46   861.39   865.21   868.75
eigval :      879.87   882.58   886.74   888.32   898.11   898.88
eigval :      908.65   909.22   912.74   916.76   920.23   921.71
eigval :      922.19   922.78   923.73   926.28   937.35   937.71
eigval :      952.01   971.61   975.51   977.54   989.87   998.20
eigval :     1006.93  1017.96  1057.90  1065.20  1065.83  1071.51
eigval :     1078.91  1079.26  1080.45  1086.04  1087.09  1110.78
eigval :     1120.90  1124.91  1129.79  1132.27  1134.01  1138.35
eigval :     1146.76  1152.58  1161.35  1165.13  1170.56  1176.86
eigval :     1178.65  1181.66  1189.92  1192.17  1198.61  1202.63
eigval :     1207.61  1208.55  1214.10  1216.04  1229.45  1239.87
eigval :     1252.07  1270.73  1273.68  1274.26  1282.62  1288.44
eigval :     1304.91  1313.31  1314.93  1316.16  1318.53  1320.40
eigval :     1323.12  1327.53  1331.18  1343.08  1344.08  1366.75
eigval :     1372.99  1394.62  1401.86  1403.56  1414.03  1418.68
eigval :     1420.29  1426.37  1427.16  1432.66  1434.16  1437.17
eigval :     1451.27  1457.49  1462.15  1471.11  1476.06  1481.34
eigval :     1482.91  1492.31  1492.86  1535.88  1537.54  1539.56
eigval :     1543.11  1551.05  1565.28  1569.65  1574.14  1579.62
eigval :     1582.76  1590.53  1606.13  2968.89  2978.23  3041.26
eigval :     3046.42  3050.09  3067.33  3068.54  3069.20  3070.52
eigval :     3074.79  3077.92  3080.21  3080.38  3080.84  3082.27
eigval :     3084.08  3086.25  3086.63  3087.98  3090.71  3092.11
eigval :     3093.16  3093.64  3094.64  3094.72  3096.16  3098.40
eigval :     3100.70  3100.80  3106.63  3107.33  3108.29  3109.60

   temp. (K)  partition function   enthalpy   heat capacity  entropy
                                   cal/mol     cal/K/mol   cal/K/mol   J/K/mol
 298.15  VIB  0.356E+22            26678.404    164.547    168.362
         ROT  0.153E+09              888.752      2.981     40.437
         INT  0.546E+30            27567.157    167.528    208.799
         TR   0.190E+29             1481.254      4.968     45.614
         TOT                       29048.4106   172.4962   254.4130  1064.4642

       T/K    H(0)-H(T)+PV         H(T)/Eh          T*S/Eh         G(T)/Eh
   ------------------------------------------------------------------------
    298.15    0.462916E-01    0.690927E+00    0.120880E+00    0.570047E+00
   ------------------------------------------------------------------------

         :::::::::::::::::::::::::::::::::::::::::::::::::::::
         ::                  THERMODYNAMIC                  ::
         :::::::::::::::::::::::::::::::::::::::::::::::::::::
         :: total free energy        -140.416421454841 Eh   ::
         ::.................................................::
         :: total energy             -140.986468855538 Eh   ::
         :: zero point energy           0.644635655684 Eh   ::
         :: G(RRHO) w/o ZPVE           -0.074588254986 Eh   ::
         :: G(RRHO) contrib.            0.570047400698 Eh   ::
         :::::::::::::::::::::::::::::::::::::::::::::::::::::

           -------------------------------------------------
          | TOTAL ENERGY             -140.986468855538 Eh   |
          | TOTAL ENTHALPY           -140.295541610996 Eh   |
          | TOTAL FREE ENERGY        -140.416421454841 Eh   |
          | GRADIENT NORM               0.000183150605 Eh/α |
          | HOMO-LUMO GAP               0.410560943025 eV   |
           -------------------------------------------------

 * finished run on 2025/09/13 at 13:42:57.531
