   * xtb version 6.7.1 (edcfbbe) compiled by 'albert@albert-system' on 2024-07-22

   ID    Z sym.   atoms
    1    6 C      1, 2, 4-36, 40-45, 49-53
    2    7 N      3
    3   16 S      37, 46
    4    8 O      38, 39, 47, 48
    5    1 H      54-86

          program call               : xtb data2507/toluene/ECDPTT/ECDPTT_toluene_S0_crest.xyz --gfn 2 --gbsa toluene --ohess vtight --parallel 40 --molden --ceasefiles --namespace data2507/toluene/ECDPTT/ECDPTT_toluene_S0_finalOpt
      * Solvation model:               GBSA
        Solvent                        toluene
        Solvent mass                       9.2140E+01 g/mol
          :  Hamiltonian                  GFN2-xTB          :
 * total energy  :  -141.0479566 Eh     change       -0.1683304E-08 Eh
 * total energy  :  -141.0482176 Eh     change       -0.2609542E-03 Eh
 * total energy  :  -141.0484098 Eh     change       -0.1921934E-03 Eh
 * total energy  :  -141.0484330 Eh     change       -0.2326343E-04 Eh
 * total energy  :  -141.0484638 Eh     change       -0.3082763E-04 Eh
 * total energy  :  -141.0484714 Eh     change       -0.7510400E-05 Eh
 * total energy  :  -141.0484779 Eh     change       -0.6514313E-05 Eh
 * total energy  :  -141.0484856 Eh     change       -0.7762863E-05 Eh
 * total energy  :  -141.0484936 Eh     change       -0.7999722E-05 Eh
 * total energy  :  -141.0484976 Eh     change       -0.3961464E-05 Eh
 * total energy  :  -141.0485538 Eh     change       -0.5844051E-06 Eh
 * total energy  :  -141.0485543 Eh     change       -0.5356054E-06 Eh
 * total energy  :  -141.0485548 Eh     change       -0.4910954E-06 Eh
 * total energy  :  -141.0485553 Eh     change       -0.5500572E-06 Eh
 * total energy  :  -141.0485560 Eh     change       -0.6592296E-06 Eh
 * total energy  :  -141.0485567 Eh     change       -0.6663568E-06 Eh
 * total energy  :  -141.0485572 Eh     change       -0.5118295E-06 Eh
 * total energy  :  -141.0485575 Eh     change       -0.3527900E-06 Eh
 * total energy  :  -141.0485575 Eh     change       -0.6437489E-08 Eh
   *** GEOMETRY OPTIMIZATION CONVERGED AFTER 44 ITERATIONS ***

 final structure:
================
86
 xtb: 6.7.1 (edcfbbe)
C           -7.13124042969136       -4.28233405080031       -2.63093784336978
C           -6.50589030117752       -4.49094366097086       -1.25163888352948
N           -6.43903676278837       -3.26418841703149       -0.50041051659650
C           -7.42602957837286       -2.76963827070655        0.31969976330432
C           -8.65836074701697       -3.31465341397735        0.65635135247017
C           -9.46800946460522       -2.60162782499485        1.51978862831347
C           -9.07332468328640       -1.37028739032541        2.04023470217772
C           -7.85076266228052       -0.81999610329816        1.70971361246758
C           -7.01781714164668       -1.52025927377613        0.84714121228556
C           -5.72107719954011       -1.25358722388839        0.29309249820450
C           -4.82868340409581       -0.20335783474800        0.42979930495807
C           -3.63345765355746       -0.23256474255594       -0.27887031923436
C           -2.65987944712844        0.86542622558479       -0.15821019513830
C           -3.03074202266408        2.16742613727802       -0.16352069320238
C           -2.09770880014056        3.25683454858453        0.17073273724142
C           -2.06383195775679        4.41389013841738       -0.60637235296302
C           -1.19928930580927        5.44631729265075       -0.29361335085101
C           -0.36570410260575        5.34753728993359        0.80865445622076
C           -0.40715099369672        4.21114683354073        1.60057428878861
C           -1.26576169317127        3.17465377715166        1.28651881133041
C           -4.40140248848428        2.59794327066108       -0.49089018466427
C           -5.06281935657102        2.09950041123221       -1.61226055174029
C           -6.34208511261963        2.52246710916561       -1.91821694639419
C           -6.98270702511971        3.44981007536746       -1.11181704319900
C           -6.32827005482729        3.96410027207370       -0.00468599935293
C           -5.04527667074668        3.54801683434835        0.29986465124229
C           -1.25455624276584        0.45329523876552       -0.02457170071143
C           -0.24289642956592        1.07895435654058       -0.75437958522663
C            1.06992632668329        0.67655906906226       -0.63025296219498
C            1.41482464955692       -0.37946590152520        0.21464011003780
C            2.81195554053097       -0.80612641288877        0.34393231709862
C            3.14740057608898       -2.16023573487940        0.43382699199021
C            4.46698778473171       -2.56223920422086        0.54144391070378
C            5.47244905828923       -1.61079159357873        0.57800209766821
C            5.15362671832114       -0.26850213151005        0.49282281754762
C            3.84202302512739        0.13937931811195        0.36890422183062
S            6.46976348770620        0.94740368136383        0.52717818614426
O            5.97215430326862        2.17198024344302       -0.05659354425848
O            7.00435744779910        1.05291215296818        1.86029177471690
C            7.71922402333949        0.27150247846114       -0.56898751704800
C            8.35158383089919        1.08514016218040       -1.49226424708695
C            9.31498293138541        0.54268805492732       -2.33079014408826
C            9.63115442120610       -0.80546715539599       -2.24967260864060
C            8.98596327556836       -1.61940593862064       -1.32939138214981
C            8.03445066660981       -1.07111615745342       -0.48783849459440
S            7.18748352543337       -2.10005017385807        0.71386385818575
O            7.30283416459271       -3.47721915516183        0.29150260993237
O            7.68070730335206       -1.80000739103392        2.03355560892876
C            0.40165167794616       -1.02235470440273        0.92659942597785
C           -0.90989355811911       -0.61146115402249        0.80882567878955
C           -3.33974203585621       -1.33417396342123       -1.09715185845560
C           -4.21190394512991       -2.39251026005784       -1.24292860923889
C           -5.41259371774210       -2.35382341077377       -0.54458750246773
H           -6.54662294089442       -3.56833025908171       -3.20645321020764
H           -7.16498240604613       -5.22480296556722       -3.17105196352043
H           -8.14381346998168       -3.89788190541964       -2.53223905457990
H           -7.09356404321519       -5.21355821727230       -0.67925325710953
H           -5.49185557597238       -4.88604095489929       -1.35637669996096
H           -8.98603606227000       -4.26320356863334        0.25816999097906
H          -10.43157729094807       -3.00575265350061        1.79565714330938
H           -9.73722560108910       -0.84274468614470        2.70979940889647
H           -7.54502771732662        0.13630065764966        2.10829475631913
H           -5.05603322777941        0.62254753097316        1.08629219200535
H           -2.71187871300286        4.49285543422058       -1.46817173430579
H           -1.17665865948300        6.33331567434193       -0.91066387936351
H            0.30896333453123        6.15500120864606        1.05344678569865
H            0.23084057230715        4.13458292497774        2.46957907537807
H           -1.30498644460163        2.29714680639857        1.91538977059032
H           -4.56329291568784        1.38264811229747       -2.24735992728699
H           -6.84291197287396        2.12839578393348       -2.79095977638666
H           -7.98561520491825        3.77426834877594       -1.34860657008785
H           -6.81939864895709        4.69315018098811        0.62418607753512
H           -4.53801807223922        3.94849823334089        1.16680420936806
H           -0.49507801482814        1.88218683681207       -1.43011603475673
H            1.83589581131809        1.16335883391202       -1.21495496395208
H            2.36705957285781       -2.90421605186487        0.39428351507444
H            4.74361743221353       -3.60378684198570        0.58834890577739
H            3.63888967511245        1.19683862207464        0.30424557308880
H            8.06994310368897        2.12531487664744       -1.53870105209455
H            9.81417238579876        1.17419737599604       -3.04909724775756
H           10.37723724864139       -1.22749163868137       -2.90482736976845
H            9.19616672852613       -2.67432728730373       -1.24917363683373
H            0.64984736453999       -1.82886717104020        1.59994718120876
H           -1.68294791149897       -1.10761624542349        1.37777973936988
H           -2.40568589910954       -1.34092641337378       -1.64087868861529
H           -3.95964127257810       -3.21968416024714       -1.88906419207854

          :  Hamiltonian                  GFN2-xTB          :
         :: gradient norm              0.000057261237 Eh/a0 ::
         :: HOMO-LUMO gap              1.578267814207 eV    ::
         :: SCC energy              -143.416422606993 Eh    ::
         :: -> dispersion             -0.129015168077 Eh    ::
         :: -> Gsolv                  -0.071938248098 Eh    ::
         :: repulsion energy           2.367865074358 Eh    ::

    * Orbital Energies and Occupations

         #    Occupation            Energy/Eh            Energy/eV
      -------------------------------------------------------------
         1        2.0000           -0.7961770             -21.6651
       ...           ...                  ...                  ...
       117        2.0000           -0.4175911             -11.3632
       118        2.0000           -0.4168908             -11.3442
       119        2.0000           -0.4162876             -11.3278
       120        2.0000           -0.4132025             -11.2438
       121        2.0000           -0.4073967             -11.0858
       122        2.0000           -0.4061895             -11.0530
       123        2.0000           -0.4053929             -11.0313
       124        2.0000           -0.4009489             -10.9104
       125        2.0000           -0.3993718             -10.8675
       126        2.0000           -0.3979215             -10.8280
       127        2.0000           -0.3771417             -10.2625
       128        2.0000           -0.3704841             -10.0814
       129        2.0000           -0.3529975              -9.6055 (HOMO)
       130                         -0.2949972              -8.0273 (LUMO)
       131                         -0.2800891              -7.6216
       132                         -0.2738726              -7.4525
       133                         -0.2680315              -7.2935
       134                         -0.2588344              -7.0432
       135                         -0.2420463              -6.5864
       136                         -0.2296520              -6.2491
       137                         -0.2265884              -6.1658
       138                         -0.2218088              -6.0357
       139                         -0.2213726              -6.0239
       140                         -0.2187214              -5.9517
       ...                                ...                  ...
       255                          1.2135615              33.0227
      -------------------------------------------------------------
                  HL-Gap            0.0580003 Eh            1.5783 eV

     #   Z          covCN         q      C6AA      α(0)
     1   6 C        3.752    -0.111    22.681     6.792
     2   6 C        3.738     0.003    20.613     6.478
     3   7 N        2.796    -0.047    22.143     6.989
     4   6 C        3.083     0.045    26.892     8.501
     5   6 C        2.909    -0.054    29.339     8.882
     6   6 C        2.923    -0.036    28.902     8.816
     7   6 C        2.920    -0.044    29.102     8.846
     8   6 C        2.912    -0.035    28.864     8.810
     9   6 C        3.070    -0.020    28.444     8.745
    10   6 C        3.068    -0.021    28.449     8.746
    11   6 C        2.916    -0.037    28.912     8.817
    12   6 C        2.977     0.000    28.018     8.683
    13   6 C        2.967    -0.005    28.134     8.700
    14   6 C        2.967    -0.006    28.163     8.705
    15   6 C        2.978     0.015    27.679     8.630
    16   6 C        2.925    -0.033    28.825     8.805
    17   6 C        2.918    -0.031    28.766     8.795
    18   6 C        2.920    -0.032    28.804     8.801
    19   6 C        2.918    -0.031    28.772     8.796
    20   6 C        2.924    -0.034    28.840     8.807
    21   6 C        2.978     0.016    27.643     8.624
    22   6 C        2.924    -0.032    28.798     8.800
    23   6 C        2.918    -0.030    28.752     8.793
    24   6 C        2.920    -0.032    28.798     8.800
    25   6 C        2.918    -0.031    28.767     8.795
    26   6 C        2.925    -0.033    28.823     8.804
    27   6 C        2.977     0.022    27.514     8.604
    28   6 C        2.922    -0.030    28.748     8.793
    29   6 C        2.922    -0.032    28.793     8.800
    30   6 C        2.977     0.008    27.829     8.653
    31   6 C        2.976     0.035    27.203     8.555
    32   6 C        2.925    -0.023    28.571     8.766
    33   6 C        2.950    -0.017    28.432     8.746
    34   6 C        3.007    -0.088    30.182     9.012
    35   6 C        3.005    -0.083    30.052     8.993
    36   6 C        2.961    -0.024    28.606     8.773
    37  16 S        3.864     0.975   107.362    17.439
    38   8 O        0.860    -0.554    25.020     6.706
    39   8 O        0.860    -0.571    25.422     6.760
    40   6 C        3.006    -0.081    30.010     8.986
    41   6 C        2.953    -0.015    28.380     8.738
    42   6 C        2.920    -0.012    28.313     8.726
    43   6 C        2.920    -0.012    28.312     8.726
    44   6 C        2.952    -0.015    28.379     8.738
    45   6 C        3.006    -0.081    30.003     8.985
    46  16 S        3.860     0.973   107.415    17.443
    47   8 O        0.860    -0.554    25.017     6.706
    48   8 O        0.860    -0.572    25.435     6.762
    49   6 C        2.922    -0.032    28.796     8.800
    50   6 C        2.923    -0.030    28.752     8.793
    51   6 C        2.928    -0.039    28.967     8.826
    52   6 C        2.908    -0.054    29.351     8.884
    53   6 C        3.082     0.045    26.905     8.503
    54   1 H        0.925     0.047     2.356     2.400
    55   1 H        0.925     0.051     2.311     2.377
    56   1 H        0.925     0.046     2.367     2.406
    57   1 H        0.924     0.052     2.291     2.367
    58   1 H        0.924     0.053     2.281     2.362
    59   1 H        0.926     0.029     2.596     2.520
    60   1 H        0.926     0.027     2.633     2.538
    61   1 H        0.926     0.023     2.682     2.561
    62   1 H        0.926     0.025     2.651     2.546
    63   1 H        0.926     0.027     2.635     2.538
    64   1 H        0.926     0.029     2.596     2.520
    65   1 H        0.926     0.031     2.577     2.510
    66   1 H        0.926     0.029     2.594     2.519
    67   1 H        0.926     0.029     2.605     2.524
    68   1 H        0.926     0.029     2.599     2.521
    69   1 H        0.926     0.030     2.579     2.512
    70   1 H        0.926     0.030     2.583     2.513
    71   1 H        0.926     0.030     2.591     2.517
    72   1 H        0.926     0.029     2.600     2.522
    73   1 H        0.925     0.027     2.635     2.538
    74   1 H        0.926     0.041     2.441     2.443
    75   1 H        0.926     0.042     2.422     2.434
    76   1 H        0.926     0.090     1.879     2.144
    77   1 H        0.926     0.081     1.964     2.191
    78   1 H        0.926     0.081     1.973     2.197
    79   1 H        0.926     0.084     1.937     2.176
    80   1 H        0.926     0.093     1.847     2.125
    81   1 H        0.926     0.093     1.847     2.125
    82   1 H        0.926     0.084     1.936     2.176
    83   1 H        0.926     0.046     2.371     2.408
    84   1 H        0.926     0.042     2.418     2.432
    85   1 H        0.926     0.029     2.598     2.520
    86   1 H        0.926     0.032     2.563     2.503

molecular dipole:
                 x           y           z       tot (Debye)
 q only:       -2.379      -1.268      -3.907
   full:       -2.180      -1.218      -3.576      11.086

 projected vibrational frequencies (cm⁻¹)
eigval :       -0.00    -0.00    -0.00    -0.00    -0.00     0.00
eigval :        8.95    11.83    15.75    20.18    21.91    22.21
eigval :       34.00    44.75    48.63    52.90    56.19    58.38
eigval :       66.02    74.36    82.45    82.92    95.56    98.31
eigval :      105.79   111.41   122.74   123.54   128.32   153.88
eigval :      163.27   170.62   176.16   188.72   198.28   206.17
eigval :      224.41   226.25   238.25   244.15   253.66   267.76
eigval :      271.65   278.50   279.49   292.71   300.21   318.50
eigval :      321.69   326.47   336.41   369.84   371.45   375.97
eigval :      377.48   390.60   396.32   401.93   416.01   424.29
eigval :      425.91   430.27   438.92   453.29   455.42   473.63
eigval :      479.82   495.92   507.06   514.71   520.95   529.94
eigval :      533.46   548.68   553.06   561.47   570.70   580.89
eigval :      584.98   587.58   593.74   598.60   604.06   610.83
eigval :      626.98   645.80   650.49   667.23   672.38   673.72
eigval :      679.38   680.24   684.62   686.28   705.96   709.09
eigval :      709.86   730.05   751.02   759.14   770.64   771.36
eigval :      778.57   801.02   805.83   815.86   818.87   840.44
eigval :      857.45   863.37   871.86   873.42   877.85   879.84
eigval :      880.42   889.70   890.59   898.18   900.31   902.80
eigval :      905.76   908.70   919.35   919.39   921.18   923.58
eigval :      927.15   929.12   929.68   931.00   931.26   934.75
eigval :      959.43   975.64   981.29   983.42  1002.21  1010.69
eigval :     1013.47  1037.41  1066.61  1067.33  1072.08  1072.34
eigval :     1082.20  1084.03  1087.01  1090.54  1092.44  1119.68
eigval :     1121.94  1132.01  1134.58  1139.16  1141.45  1144.18
eigval :     1148.35  1155.43  1161.83  1167.87  1174.54  1179.64
eigval :     1181.25  1185.35  1197.04  1197.67  1200.37  1201.16
eigval :     1206.01  1212.77  1213.79  1215.90  1232.79  1238.86
eigval :     1250.42  1269.16  1270.52  1279.83  1282.45  1287.73
eigval :     1297.58  1301.78  1313.46  1314.62  1314.89  1317.95
eigval :     1319.15  1323.50  1325.58  1348.07  1365.51  1372.15
eigval :     1376.54  1401.63  1402.66  1402.89  1421.97  1423.76
eigval :     1428.58  1429.17  1437.10  1442.22  1465.42  1467.82
eigval :     1472.85  1478.30  1483.71  1486.78  1488.77  1495.12
eigval :     1539.73  1551.81  1556.55  1563.92  1564.50  1576.13
eigval :     1577.14  1579.17  1581.43  1583.82  1592.07  1593.00
eigval :     1597.86  1606.39  1617.14  2961.51  2971.37  3039.04
eigval :     3043.64  3046.12  3063.71  3065.55  3067.59  3067.61
eigval :     3067.88  3072.82  3072.96  3073.58  3074.93  3078.17
eigval :     3080.50  3080.57  3080.92  3083.57  3086.33  3088.20
eigval :     3088.30  3088.88  3090.80  3091.98  3095.86  3095.90
eigval :     3099.25  3102.12  3105.77  3108.04  3108.35  3111.06

   temp. (K)  partition function   enthalpy   heat capacity  entropy
                                   cal/mol     cal/K/mol   cal/K/mol   J/K/mol
 298.15  VIB  0.252E+22            26666.014    163.156    168.168
         ROT  0.156E+09              888.752      2.981     40.472
         INT  0.393E+30            27554.767    166.137    208.640
         TR   0.190E+29             1481.254      4.968     45.614
         TOT                       29036.0207   171.1051   254.2537  1063.7973

       T/K    H(0)-H(T)+PV         H(T)/Eh          T*S/Eh         G(T)/Eh
   ------------------------------------------------------------------------
    298.15    0.462718E-01    0.693223E+00    0.120804E+00    0.572419E+00
   ------------------------------------------------------------------------

         :::::::::::::::::::::::::::::::::::::::::::::::::::::
         ::                  THERMODYNAMIC                  ::
         :::::::::::::::::::::::::::::::::::::::::::::::::::::
         :: total free energy        -140.476138926632 Eh   ::
         ::.................................................::
         :: total energy             -141.048557534173 Eh   ::
         :: zero point energy           0.646950881802 Eh   ::
         :: G(RRHO) w/o ZPVE           -0.074532274260 Eh   ::
         :: G(RRHO) contrib.            0.572418607541 Eh   ::
         :::::::::::::::::::::::::::::::::::::::::::::::::::::

           -------------------------------------------------
          | TOTAL ENERGY             -141.048557534173 Eh   |
          | TOTAL ENTHALPY           -140.355334808041 Eh   |
          | TOTAL FREE ENERGY        -140.476138926632 Eh   |
          | GRADIENT NORM               0.000057234755 Eh/α |
          | HOMO-LUMO GAP               1.578268423180 eV   |
           -------------------------------------------------

 * finished run on 2025/09/13 at 13:42:45.259
