   * xtb version 6.7.1 (edcfbbe) compiled by 'albert@albert-system' on 2024-07-22

   ID    Z sym.   atoms
    1    9 F      1, 7, 85, 90
    2    6 C      2-6, 8, 10-15, 17-22, 24-32, 34-48, 50-55, 57-65, 67-81,
                  83, 84, 86-89
    3    7 N      9, 23, 33, 56, 66, 82
    4    5 B      16, 49
    5    1 H      91-140

          program call               : xtb data2507/toluene/4F-ν-DABNA/4F-ν-DABNA.xyz --gfn 2 --gbsa toluene --ohess vtight --parallel 40 --molden --ceasefiles --namespace data2507/toluene/4F-ν-DABNA/4F-ν-DABNA_toluene_S0_preOpt
      * Solvation model:               GBSA
        Solvent                        toluene
        Solvent mass                       9.2140E+01 g/mol
          :  Hamiltonian                  GFN2-xTB          :
 * total energy  :  -231.5627630 Eh     change       -0.8955936E-08 Eh
 * total energy  :  -231.6263748 Eh     change       -0.6361174E-01 Eh
 * total energy  :  -231.6522480 Eh     change       -0.2587321E-01 Eh
 * total energy  :  -231.6625803 Eh     change       -0.1033234E-01 Eh
 * total energy  :  -231.6695691 Eh     change       -0.6988776E-02 Eh
 * total energy  :  -231.6742287 Eh     change       -0.4659667E-02 Eh
 * total energy  :  -231.6775486 Eh     change       -0.3319885E-02 Eh
 * total energy  :  -231.6801277 Eh     change       -0.2579059E-02 Eh
 * total energy  :  -231.6822420 Eh     change       -0.2114339E-02 Eh
 * total energy  :  -231.6840482 Eh     change       -0.1806192E-02 Eh
 * total energy  :  -231.6903449 Eh     change       -0.7339386E-06 Eh
 * total energy  :  -231.6903455 Eh     change       -0.6331715E-06 Eh
 * total energy  :  -231.6903461 Eh     change       -0.5699754E-06 Eh
 * total energy  :  -231.6903467 Eh     change       -0.5667399E-06 Eh
 * total energy  :  -231.6903473 Eh     change       -0.6334205E-06 Eh
 * total energy  :  -231.6903480 Eh     change       -0.7261793E-06 Eh
 * total energy  :  -231.6903488 Eh     change       -0.7528958E-06 Eh
 * total energy  :  -231.6903494 Eh     change       -0.6410659E-06 Eh
 * total energy  :  -231.6903494 Eh     change       -0.2039968E-08 Eh
   *** GEOMETRY OPTIMIZATION CONVERGED AFTER 94 ITERATIONS ***

 final structure:
================
140
 xtb: 6.7.1 (edcfbbe)
F            2.79401092676231       -2.59787120419743       -2.43376362247085
C            2.51436466703549       -3.22833122280726       -1.27513715769644
C            2.45224768666410       -4.60909983209141       -1.25957998358687
C            2.17368928507239       -5.25889496224969       -0.06958657505104
C            1.95771752911944       -4.53308252674970        1.08954422466486
C            2.02786295788418       -3.15361576178855        1.04290384973178
F            1.81766143279067       -2.44921075470897        2.17484866713965
C            2.30380579381554       -2.45647176634025       -0.13333313544902
N            2.38284069733845       -1.04271454831231       -0.17659159501280
C            1.20663716899779       -0.30602066123908       -0.12950119236192
C           -0.00611405213540       -0.97376276641211        0.00862151048074
C           -1.21036265318936       -0.28713940806474        0.12900208492772
C           -1.20917114854287        1.12546556147729        0.21236277607483
C            0.01114263508946        1.75185720714581       -0.02573749542265
C            1.22320625194562        1.10398826039368       -0.24742162910103
B            2.56281751450839        1.79558089936937       -0.57085025170648
C            2.86616244147384        3.24911847190558       -0.99499870805995
C            1.90821598754610        4.17872609485764       -1.42082025609803
C            2.22458991519557        5.48066071381311       -1.73843561203121
C            3.54428037014615        5.90381515436382       -1.63772378920425
C            4.52656819527837        5.01382841446593       -1.26929530172717
C            4.21312331813366        3.67941767905319       -0.97195000935197
N            5.24441312588712        2.80721320093964       -0.66936949038111
C            6.57208895104073        3.32693279906090       -0.57358641557171
C            7.05920772160365        3.73492185093699        0.66092607134927
C            8.35131106502532        4.22035804100168        0.76485880047134
C            9.15745345982554        4.29780895383189       -0.35857433650809
C            8.66999671959363        3.89307299490989       -1.59082479391553
C            7.37913263415060        3.40697541032049       -1.70201966229965
C            5.08335038277722        1.45138540475405       -0.48259013264909
C            6.20270398998632        0.63191811330380       -0.34661100109134
C            6.04457748036970       -0.73084393360568       -0.13527048491811
N            7.16969723583991       -1.55045837288448        0.01317674908037
C            7.17237953437089       -2.84053766134483       -0.52849613239829
C            6.54884885047696       -3.09993621965688       -1.74962463752622
C            6.55374412378914       -4.37667890823584       -2.27710831245844
C            7.17911422099282       -5.41381026243696       -1.60395354215121
C            7.80307869317584       -5.16160931007865       -0.39272779461776
C            7.79967291326770       -3.88913942307473        0.14535971489679
C            8.30246765688775       -1.06582426809713        0.67834930443419
C            8.16724456110845       -0.25584460890453        1.80610082826592
C            9.28648126385154        0.23091986508135        2.45288210560578
C           10.55551660702034       -0.08743622823759        1.99670513279417
C           10.69601910084363       -0.89851115047071        0.88228087050663
C            9.58228308635663       -1.38160600231575        0.22249381496829
C            4.77071535979250       -1.28925831236114       -0.06529515083642
C            3.65118071355480       -0.48278146394249       -0.23105087390106
C            3.78350748560363        0.90568263399866       -0.43333844480573
B           -2.53934585753076        1.84188009075399        0.52168601252142
C           -2.82372198575750        3.31034803119960        0.90685623321739
C           -1.85278323882225        4.24136248426396        1.29897288459371
C           -2.15245542436923        5.55513208027511        1.58216447935413
C           -3.46834145163870        5.98964417041291        1.48057325228178
C           -4.46285616436968        5.10032367994436        1.14493068218616
C           -4.16602505169586        3.75497451888836        0.88162512938631
N           -5.20919273268027        2.88676838522097        0.61011206201733
C           -6.53132377629299        3.41923294632283        0.50778321727260
C           -7.01890017258088        3.80504486582379       -0.73367918608115
C           -8.30592223218437        4.30252187573127       -0.84340974522098
C           -9.10680585921412        4.41327268699505        0.28104465406840
C           -8.61885153723715        4.03070109750013        1.52014574003532
C           -7.33275465257493        3.53345742228187        1.63723518477561
C           -5.06457707347791        1.52496433315462        0.45631337418886
C           -6.19424027886827        0.71577535587251        0.34627680540971
C           -6.05356341120449       -0.65292501182318        0.16250237510521
N           -7.18843242459295       -1.46225041064470        0.03661436448962
C           -7.19816518511235       -2.74742599693810        0.59044264908385
C           -6.56933880291366       -3.00128845711012        1.80997172545703
C           -6.58169055469521       -4.27327914993209        2.34872537852178
C           -7.21977704432638       -5.31103113760351        1.68859305642524
C           -7.84925040514007       -5.06422774374979        0.47912042656397
C           -7.83859071116669       -3.79655120873692       -0.07009521466552
C           -8.32325927303486       -0.97618866053720       -0.62437733576560
C           -9.60101834358613       -1.27462014781548       -0.15139189542325
C          -10.71725848738621       -0.79104992219029       -0.80656477899717
C          -10.58110784435783        0.00331069964661       -1.93348284341352
C           -9.31413083948789        0.30401790599163       -2.40697535550098
C           -8.19255522435638       -0.18344871869218       -1.76479034086208
C           -4.78643209253005       -1.22707231500044        0.09697845242954
C           -3.65671054089109       -0.43089727568653        0.24152502565115
C           -3.77123069587145        0.96334533262583        0.41300756411063
N           -2.39559863227508       -1.00770970483657        0.19433564094204
C           -2.33446189075871       -2.42280979834470        0.17367423517959
C           -2.55925358719739       -3.17522517770368        1.32578720485210
F           -2.83512284871021       -2.52482532556853        2.47426396764314
C           -2.51476346865013       -4.55674117848162        1.33064544790720
C           -2.24016419160820       -5.22763263973861        0.15150247543417
C           -2.01028072671088       -4.52166243436155       -1.01714919442557
C           -2.06275607911394       -3.14091605459203       -0.99096444195713
F           -1.83832894212090       -2.45618916280213       -2.13226359601542
H            2.62242984793045       -5.15322590065316       -2.17419706465103
H            2.12393685162603       -6.33498989891862       -0.04513360317737
H            1.74013849968332       -5.01631852981820        2.02827092146794
H           -0.01292446543707       -2.05321406828539        0.02290191880345
H            0.01842529974406        2.82747306693033       -0.03962368635689
H            0.88452465842770        3.85437850359159       -1.52320662759893
H            1.45542555724739        6.16815207859903       -2.05982832387190
H            3.80786995208379        6.92725993599330       -1.86467359947679
H            5.55139386998207        5.35030092231954       -1.22211770269308
H            6.42151336163210        3.66754530520805        1.53016872275218
H            8.72924983459962        4.53591912987324        1.72584101646844
H           10.16569639828814        4.67480633659342       -0.27452428494255
H            9.29660318857865        3.95367622951505       -2.46833804114377
H            6.98831216745958        3.08665887591564       -2.65690839183728
H            7.19944496018548        1.03851114623018       -0.40723073484721
H            6.06362883916581       -2.29407524126812       -2.28097751503109
H            6.07198918149381       -4.55867305322693       -3.22694597944429
H            7.18278857389519       -6.40953678943575       -2.02113386663948
H            8.29070394101070       -5.96353965503442        0.14245566130133
H            8.28125325887022       -3.69697225814450        1.09323115959756
H            7.17880516648467       -0.01404899227961        2.16864303050875
H            9.16601260584125        0.85727136183231        3.32485690174421
H           11.42816998731234        0.29225000824241        2.50646298213163
H           11.68100254935479       -1.14993198877914        0.51634483706752
H            9.69520308621144       -2.00430986189586       -0.65322481147294
H            4.67995986749343       -2.34708053772890        0.12991239075683
H           -0.83179011035515        3.90941785466397        1.40297293821796
H           -1.37320295548524        6.24277420868774        1.87794642187422
H           -3.71925164929030        7.02170432631350        1.68130688726883
H           -5.48446748508735        5.44631654310195        1.09691407718252
H           -6.38558984165325        3.71107840504295       -1.60368571670817
H           -8.68420236468818        4.60120637639945       -1.80963245447493
H          -10.11128943117585        4.79914423036444        0.19236620901890
H           -9.24131025441443        4.11745715613703        2.39840959787807
H           -6.94125811921557        3.23053802198783        2.59748388960827
H           -7.18563760064886        1.13546159263299        0.40413157072187
H           -6.07393271134917       -2.19513476805922        2.33126337151386
H           -6.09597260231213       -4.45087079862039        3.29735380114938
H           -7.22909713780067       -6.30299436294756        2.11455004715281
H           -8.34702353650891       -5.86664016424845       -0.04587718140868
H           -8.32456958576338       -3.60854249458741       -1.01654594661093
H           -9.71026742073819       -1.88414470121447        0.73400010999104
H          -11.70059210075385       -1.02877148267865       -0.42729574273553
H          -11.45559068391385        0.38361134264812       -2.43963824210021
H           -9.19719565963888        0.91687154503267       -3.28896089039857
H           -7.20586904681843        0.04420863702403       -2.14098551785235
H           -4.70888495011223       -2.28941066745504       -0.07819860242825
H           -2.69516142749868       -5.08504912379064        2.25251764447916
H           -2.20432430185628       -6.30452589860301        0.14288260864740
H           -1.79522418310510       -5.02125741760917       -1.94781694717202

          :  Hamiltonian                  GFN2-xTB          :
         :: gradient norm              0.000034267788 Eh/a0 ::
         :: HOMO-LUMO gap              2.113067726752 eV    ::
         :: SCC energy              -235.655314718414 Eh    ::
         :: -> dispersion             -0.226728265556 Eh    ::
         :: -> Gsolv                  -0.089083944666 Eh    ::
         :: repulsion energy           3.964965301603 Eh    ::

    * Orbital Energies and Occupations

         #    Occupation            Energy/Eh            Energy/eV
      -------------------------------------------------------------
         1        2.0000           -0.8375890             -22.7920
       ...           ...                  ...                  ...
       201        2.0000           -0.3976627             -10.8210
       202        2.0000           -0.3940505             -10.7227
       203        2.0000           -0.3911869             -10.6447
       204        2.0000           -0.3890024             -10.5853
       205        2.0000           -0.3821825             -10.3997
       206        2.0000           -0.3775400             -10.2734
       207        2.0000           -0.3722474             -10.1294
       208        2.0000           -0.3683813             -10.0242
       209        2.0000           -0.3603806              -9.8065
       210        2.0000           -0.3508258              -9.5465
       211        2.0000           -0.3482359              -9.4760
       212        2.0000           -0.3468377              -9.4379
       213        2.0000           -0.3417918              -9.3006 (HOMO)
       214                         -0.2641380              -7.1876 (LUMO)
       215                         -0.2639564              -7.1826
       216                         -0.2593055              -7.0561
       217                         -0.2576999              -7.0124
       218                         -0.2573840              -7.0038
       219                         -0.2465998              -6.7103
       220                         -0.2332305              -6.3465
       221                         -0.2332141              -6.3461
       222                         -0.2323292              -6.3220
       223                         -0.2323159              -6.3216
       224                         -0.2298474              -6.2545
       ...                                ...                  ...
       410                          0.7304340              19.8761
      -------------------------------------------------------------
                  HL-Gap            0.0776538 Eh            2.1131 eV

     #   Z          covCN         q      C6AA      α(0)
     1   9 F        0.787    -0.220    11.445     3.996
     2   6 C        2.791     0.159    24.550     8.116
     3   6 C        2.915    -0.053    29.314     8.878
     4   6 C        2.927    -0.028    28.695     8.785
     5   6 C        2.915    -0.055    29.373     8.887
     6   6 C        2.791     0.157    24.593     8.123
     7   9 F        0.787    -0.223    11.472     4.001
     8   6 C        2.925     0.043    27.029     8.526
     9   7 N        2.753    -0.049    22.188     6.996
    10   6 C        2.927     0.065    26.554     8.451
    11   6 C        2.922    -0.082    30.050     8.990
    12   6 C        2.927     0.065    26.554     8.451
    13   6 C        2.884    -0.093    30.335     9.030
    14   6 C        2.931    -0.039    28.959     8.825
    15   6 C        2.884    -0.093    30.335     9.030
    16   5 B        2.724     0.190    18.529     7.213
    17   6 C        2.887    -0.084    30.103     8.995
    18   6 C        2.923    -0.035    28.877     8.812
    19   6 C        2.914    -0.045    29.113     8.848
    20   6 C        2.919    -0.031    28.776     8.797
    21   6 C        2.920    -0.058    29.430     8.896
    22   6 C        2.925     0.060    26.661     8.468
    23   7 N        2.755    -0.055    22.295     7.013
    24   6 C        2.933     0.068    26.473     8.438
    25   6 C        2.922    -0.037    28.928     8.820
    26   6 C        2.920    -0.027    28.678     8.782
    27   6 C        2.920    -0.030    28.754     8.793
    28   6 C        2.920    -0.028    28.700     8.785
    29   6 C        2.921    -0.037    28.930     8.820
    30   6 C        2.927     0.062    26.600     8.458
    31   6 C        2.922    -0.089    30.243     9.018
    32   6 C        2.923     0.067    26.500     8.442
    33   7 N        2.754    -0.083    22.864     7.102
    34   6 C        2.923     0.066    26.521     8.445
    35   6 C        2.922    -0.049    29.213     8.863
    36   6 C        2.919    -0.032    28.791     8.799
    37   6 C        2.919    -0.041    29.019     8.834
    38   6 C        2.919    -0.031    28.780     8.797
    39   6 C        2.922    -0.049    29.228     8.866
    40   6 C        2.923     0.067    26.511     8.444
    41   6 C        2.922    -0.048    29.191     8.860
    42   6 C        2.919    -0.031    28.765     8.795
    43   6 C        2.919    -0.040    28.989     8.829
    44   6 C        2.919    -0.031    28.768     8.796
    45   6 C        2.922    -0.049    29.206     8.862
    46   6 C        2.921    -0.088    30.205     9.013
    47   6 C        2.927     0.065    26.548     8.450
    48   6 C        2.897    -0.110    30.790     9.098
    49   5 B        2.724     0.190    18.531     7.213
    50   6 C        2.886    -0.084    30.104     8.995
    51   6 C        2.923    -0.035    28.878     8.813
    52   6 C        2.914    -0.045    29.113     8.848
    53   6 C        2.919    -0.031    28.777     8.797
    54   6 C        2.920    -0.058    29.430     8.896
    55   6 C        2.925     0.060    26.661     8.468
    56   7 N        2.755    -0.055    22.295     7.013
    57   6 C        2.933     0.068    26.473     8.438
    58   6 C        2.922    -0.037    28.927     8.820
    59   6 C        2.920    -0.027    28.678     8.782
    60   6 C        2.920    -0.030    28.754     8.793
    61   6 C        2.920    -0.028    28.700     8.785
    62   6 C        2.921    -0.037    28.931     8.820
    63   6 C        2.927     0.062    26.601     8.458
    64   6 C        2.922    -0.090    30.248     9.019
    65   6 C        2.923     0.067    26.500     8.442
    66   7 N        2.754    -0.083    22.862     7.101
    67   6 C        2.923     0.066    26.522     8.445
    68   6 C        2.922    -0.049    29.210     8.863
    69   6 C        2.919    -0.032    28.792     8.799
    70   6 C        2.919    -0.041    29.018     8.834
    71   6 C        2.919    -0.031    28.780     8.797
    72   6 C        2.922    -0.049    29.226     8.865
    73   6 C        2.923     0.067    26.511     8.444
    74   6 C        2.922    -0.048    29.204     8.862
    75   6 C        2.919    -0.031    28.768     8.795
    76   6 C        2.919    -0.040    28.988     8.829
    77   6 C        2.919    -0.031    28.765     8.795
    78   6 C        2.922    -0.048    29.190     8.860
    79   6 C        2.922    -0.088    30.209     9.013
    80   6 C        2.927     0.065    26.548     8.450
    81   6 C        2.897    -0.110    30.791     9.098
    82   7 N        2.753    -0.049    22.186     6.996
    83   6 C        2.925     0.043    27.029     8.526
    84   6 C        2.791     0.159    24.551     8.117
    85   9 F        0.787    -0.220    11.445     3.996
    86   6 C        2.915    -0.053    29.315     8.878
    87   6 C        2.926    -0.028    28.697     8.785
    88   6 C        2.915    -0.055    29.374     8.887
    89   6 C        2.791     0.157    24.594     8.124
    90   9 F        0.787    -0.223    11.473     4.001
    91   1 H        0.926     0.087     1.913     2.163
    92   1 H        0.926     0.086     1.918     2.166
    93   1 H        0.926     0.085     1.927     2.171
    94   1 H        0.926    -0.001     3.078     2.743
    95   1 H        0.926     0.044     2.390     2.417
    96   1 H        0.926     0.034     2.529     2.487
    97   1 H        0.926     0.021     2.725     2.581
    98   1 H        0.926     0.023     2.687     2.563
    99   1 H        0.926     0.022     2.707     2.573
   100   1 H        0.926     0.042     2.425     2.435
   101   1 H        0.926     0.044     2.398     2.422
   102   1 H        0.926     0.043     2.409     2.427
   103   1 H        0.926     0.043     2.409     2.427
   104   1 H        0.926     0.042     2.422     2.434
   105   1 H        0.926     0.024     2.675     2.558
   106   1 H        0.926     0.030     2.582     2.513
   107   1 H        0.926     0.033     2.542     2.493
   108   1 H        0.926     0.034     2.536     2.491
   109   1 H        0.926     0.034     2.528     2.486
   110   1 H        0.926     0.031     2.579     2.511
   111   1 H        0.926     0.030     2.582     2.513
   112   1 H        0.926     0.034     2.534     2.489
   113   1 H        0.926     0.033     2.547     2.496
   114   1 H        0.926     0.034     2.535     2.490
   115   1 H        0.926     0.031     2.579     2.511
   116   1 H        0.926     0.012     2.856     2.643
   117   1 H        0.926     0.034     2.529     2.487
   118   1 H        0.926     0.021     2.725     2.582
   119   1 H        0.926     0.023     2.687     2.563
   120   1 H        0.926     0.022     2.708     2.573
   121   1 H        0.926     0.042     2.425     2.435
   122   1 H        0.926     0.044     2.398     2.422
   123   1 H        0.926     0.043     2.409     2.427
   124   1 H        0.926     0.043     2.409     2.427
   125   1 H        0.926     0.042     2.421     2.433
   126   1 H        0.926     0.024     2.674     2.557
   127   1 H        0.926     0.031     2.578     2.511
   128   1 H        0.926     0.033     2.541     2.493
   129   1 H        0.926     0.034     2.535     2.490
   130   1 H        0.926     0.034     2.527     2.486
   131   1 H        0.926     0.031     2.579     2.511
   132   1 H        0.926     0.031     2.578     2.511
   133   1 H        0.926     0.034     2.534     2.489
   134   1 H        0.926     0.033     2.546     2.495
   135   1 H        0.926     0.034     2.534     2.489
   136   1 H        0.926     0.030     2.580     2.512
   137   1 H        0.926     0.012     2.856     2.643
   138   1 H        0.926     0.086     1.913     2.163
   139   1 H        0.926     0.086     1.919     2.166
   140   1 H        0.926     0.085     1.927     2.171

molecular dipole:
                 x           y           z       tot (Debye)
 q only:       -0.026      -1.967       0.016
   full:       -0.026      -2.111       0.017       5.366

 projected vibrational frequencies (cm⁻¹)
eigval :       -0.00    -0.00    -0.00     0.00     0.00     0.00
eigval :        8.24     9.51    12.04    15.60    15.70    17.08
eigval :       18.52    23.54    23.68    26.48    27.37    27.71
eigval :       34.12    37.15    39.71    42.71    46.61    48.79
eigval :       55.46    58.59    60.35    61.02    62.38    67.25
eigval :       68.20    74.46    75.15    79.46    80.26    86.12
eigval :       89.08    93.50   102.42   114.40   115.13   121.73
eigval :      133.89   145.65   160.86   164.78   169.66   179.06
eigval :      179.57   185.60   192.53   197.26   198.81   212.72
eigval :      216.15   223.56   230.26   232.52   233.07   236.18
eigval :      239.10   240.11   247.67   257.72   258.77   267.25
eigval :      274.75   279.57   311.20   313.49   315.90   320.50
eigval :      323.72   340.51   341.57   346.13   355.96   369.50
eigval :      374.11   376.50   376.57   377.80   378.88   384.09
eigval :      384.48   387.23   390.70   391.69   395.34   402.97
eigval :      405.07   413.14   424.76   425.62   437.10   453.58
eigval :      469.26   472.39   472.72   475.06   480.08   481.64
eigval :      489.13   491.99   495.36   495.53   497.60   499.59
eigval :      504.55   522.66   529.65   531.82   535.37   537.67
eigval :      546.92   553.24   554.08   555.28   556.63   563.60
eigval :      567.94   577.65   579.66   583.76   585.45   586.38
eigval :      588.92   589.53   590.48   595.63   596.82   597.30
eigval :      606.65   611.08   612.82   622.02   622.76   630.92
eigval :      636.86   642.40   647.57   658.44   661.42   661.61
eigval :      665.73   669.82   672.16   677.35   678.89   679.19
eigval :      681.84   689.11   704.99   706.82   710.39   712.32
eigval :      722.17   737.92   744.67   747.35   754.59   755.36
eigval :      757.46   760.49   770.88   772.28   774.22   775.77
eigval :      794.29   806.28   809.25   813.89   814.75   815.97
eigval :      839.96   840.80   855.49   865.29   869.34   872.71
eigval :      873.48   876.07   876.39   876.68   878.85   880.17
eigval :      882.34   885.11   886.41   888.54   889.69   890.19
eigval :      891.72   892.59   895.80   898.43   901.82   902.75
eigval :      903.97   911.13   912.13   914.60   916.33   917.25
eigval :      918.85   922.16   922.99   924.69   925.65   926.84
eigval :      927.39   927.93   928.62   928.82   929.37   930.04
eigval :      931.13   933.44   933.83   934.31   936.57   963.83
eigval :      976.62   978.13   978.51   980.06   992.27   997.07
eigval :     1004.45  1004.56  1049.97  1067.73  1072.36  1076.60
eigval :     1077.90  1078.74  1082.81  1082.85  1083.51  1083.59
eigval :     1094.16  1101.54  1102.01  1106.44  1108.73  1111.88
eigval :     1112.34  1119.04  1121.05  1121.27  1124.12  1124.24
eigval :     1146.82  1154.42  1158.90  1161.35  1176.64  1177.57
eigval :     1178.03  1178.14  1178.58  1178.82  1179.36  1179.61
eigval :     1182.44  1184.87  1185.79  1186.46  1192.69  1195.01
eigval :     1195.21  1196.37  1200.87  1201.13  1204.15  1205.26
eigval :     1214.30  1216.04  1233.90  1240.16  1242.94  1250.41
eigval :     1252.39  1256.78  1264.80  1271.07  1272.32  1273.03
eigval :     1275.71  1278.02  1278.45  1282.83  1285.62  1286.64
eigval :     1287.16  1292.45  1296.34  1300.36  1302.20  1304.33
eigval :     1306.22  1307.90  1307.96  1308.51  1315.11  1315.86
eigval :     1318.16  1318.33  1324.12  1325.47  1325.58  1330.71
eigval :     1334.70  1334.81  1354.70  1355.28  1370.90  1383.83
eigval :     1413.10  1418.78  1423.75  1424.53  1426.94  1431.31
eigval :     1431.32  1433.92  1434.52  1436.14  1436.75  1438.86
eigval :     1440.25  1446.71  1450.51  1452.34  1461.49  1462.57
eigval :     1466.37  1468.64  1470.64  1471.74  1473.06  1473.96
eigval :     1474.10  1477.34  1504.50  1535.05  1538.45  1550.05
eigval :     1550.85  1557.92  1564.46  1565.73  1565.93  1574.90
eigval :     1575.12  1575.18  1579.60  1579.64  1582.92  1583.05
eigval :     1586.81  1587.18  1591.78  1591.82  1591.95  1592.22
eigval :     1594.57  1594.79  1598.98  1599.04  3062.97  3063.03
eigval :     3071.58  3071.79  3072.17  3072.37  3072.83  3073.10
eigval :     3073.21  3073.22  3073.25  3073.38  3077.84  3077.86
eigval :     3079.93  3080.12  3082.41  3082.44  3083.60  3083.62
eigval :     3084.09  3085.33  3085.45  3085.77  3085.90  3086.13
eigval :     3086.77  3089.11  3089.38  3089.69  3090.06  3090.32
eigval :     3090.41  3094.40  3094.44  3095.12  3095.18  3098.16
eigval :     3098.29  3100.64  3101.93  3107.56  3110.66  3111.61
eigval :     3112.18  3117.79  3118.32  3124.48  3125.04  3137.60

   temp. (K)  partition function   enthalpy   heat capacity  entropy
                                   cal/mol     cal/K/mol   cal/K/mol   J/K/mol
 298.15  VIB  0.202E+37            43809.941    267.098    277.004
         ROT  0.431E+09              888.752      2.981     42.492
         INT  0.873E+45            44698.693    270.079    319.497
         TR   0.387E+29             1481.254      4.968     47.025
         TOT                       46179.9469   275.0467   366.5222  1533.5288

       T/K    H(0)-H(T)+PV         H(T)/Eh          T*S/Eh         G(T)/Eh
   ------------------------------------------------------------------------
    298.15    0.735924E-01    0.111771E+01    0.174147E+00    0.943561E+00
   ------------------------------------------------------------------------

         :::::::::::::::::::::::::::::::::::::::::::::::::::::
         ::                  THERMODYNAMIC                  ::
         :::::::::::::::::::::::::::::::::::::::::::::::::::::
         :: total free energy        -230.746788672364 Eh   ::
         ::.................................................::
         :: total energy             -231.690349414701 Eh   ::
         :: zero point energy           1.044114825986 Eh   ::
         :: G(RRHO) w/o ZPVE           -0.100554083650 Eh   ::
         :: G(RRHO) contrib.            0.943560742336 Eh   ::
         :::::::::::::::::::::::::::::::::::::::::::::::::::::

           -------------------------------------------------
          | TOTAL ENERGY             -231.690349414701 Eh   |
          | TOTAL ENTHALPY           -230.572642158919 Eh   |
          | TOTAL FREE ENERGY        -230.746788672364 Eh   |
          | GRADIENT NORM               0.000034270516 Eh/α |
          | HOMO-LUMO GAP               2.113067657839 eV   |
           -------------------------------------------------

 * finished run on 2025/08/22 at 06:10:47.952
