   * xtb version 6.7.1 (edcfbbe) compiled by 'albert@albert-system' on 2024-07-22

   ID    Z sym.   atoms
    1    9 F      1, 7, 85, 90
    2    6 C      2-6, 8, 10-15, 17-22, 24-32, 34-48, 50-55, 57-65, 67-81,
                  83, 84, 86-89
    3    7 N      9, 23, 33, 56, 66, 82
    4    5 B      16, 49
    5    1 H      91-140

          program call               : xtb data2507/toluene/4F-ν-DABNA/4F-ν-DABNA_toluene_S0_finalOpt.xtbopt.xyz --gfn 2 --uhf 2 --gbsa toluene --ohess vtight --parallel 40 --molden --ceasefiles --namespace data2507/toluene/4F-ν-DABNA/4F-ν-DABNA_toluene_T1_preOpt
      * Solvation model:               GBSA
        Solvent                        toluene
        Solvent mass                       9.2140E+01 g/mol
          :  Hamiltonian                  GFN2-xTB          :
 * total energy  :  -231.6073894 Eh     change       -0.2349660E-07 Eh
 * total energy  :  -231.6079769 Eh     change       -0.5875572E-03 Eh
 * total energy  :  -231.6081022 Eh     change       -0.1253118E-03 Eh
 * total energy  :  -231.6081174 Eh     change       -0.1514174E-04 Eh
 * total energy  :  -231.6081292 Eh     change       -0.1182722E-04 Eh
 * total energy  :  -231.6081341 Eh     change       -0.4856912E-05 Eh
 * total energy  :  -231.6081512 Eh     change       -0.1711214E-04 Eh
 * total energy  :  -231.6081585 Eh     change       -0.7296780E-05 Eh
 * total energy  :  -231.6081693 Eh     change       -0.1084336E-04 Eh
 * total energy  :  -231.6081787 Eh     change       -0.9438163E-05 Eh
 * total energy  :  -231.6082361 Eh     change       -0.8512800E-06 Eh
 * total energy  :  -231.6082370 Eh     change       -0.8796610E-06 Eh
 * total energy  :  -231.6082379 Eh     change       -0.9025404E-06 Eh
 * total energy  :  -231.6082388 Eh     change       -0.8859729E-06 Eh
 * total energy  :  -231.6082397 Eh     change       -0.9242143E-06 Eh
 * total energy  :  -231.6082407 Eh     change       -0.1004189E-05 Eh
 * total energy  :  -231.6082418 Eh     change       -0.1106957E-05 Eh
 * total energy  :  -231.6082430 Eh     change       -0.1140523E-05 Eh
 * total energy  :  -231.6082430 Eh     change       -0.1168948E-07 Eh
   *** GEOMETRY OPTIMIZATION CONVERGED AFTER 44 ITERATIONS ***

 final structure:
================
140
 xtb: 6.7.1 (edcfbbe)
F            2.96101908694152       -2.51038492267957       -2.28991094202595
C            2.60975263482001       -3.14009784332115       -1.14509328933010
C            2.55642969612871       -4.51608705437822       -1.12365243997720
C            2.20494350563018       -5.16530980442741        0.05355812927206
C            1.90908897076815       -4.42709148847021        1.19337360289533
C            1.97062276808465       -3.05225982442353        1.14102547069080
F            1.68419715090036       -2.33731998433576        2.25463518841109
C            2.31813401318723       -2.35531350426025       -0.02290277355119
N            2.38975082831406       -0.94088066704856       -0.07345698961455
C            1.21485902325098       -0.21453228151055       -0.07892040635002
C           -0.00016933498721       -0.88962037391789        0.00224229209466
C           -1.21459488875464       -0.21289357070324        0.07876012724601
C           -1.22452003770709        1.20611392293221        0.19377092825184
C            0.00088864516411        1.84376356306055       -0.00817543934465
C            1.22577307804056        1.20354137866470       -0.20460371165648
B            2.56634066026423        1.89705553705589       -0.50638291531069
C            2.87072818977372        3.34732358504037       -0.93237277576080
C            1.91833352324814        4.27881286630855       -1.37034384012259
C            2.24155828470742        5.58026697475876       -1.69015701027266
C            3.56016556732824        6.00533170135845       -1.58632868973769
C            4.54051350482730        5.11209111826313       -1.20760253432621
C            4.22101466902259        3.78217177094890       -0.90490321585680
N            5.24891176715111        2.90953933750792       -0.58921325415722
C            6.57730830791479        3.42830550805775       -0.50076920300868
C            7.06439997658608        3.85098382570694        0.72900678227652
C            8.35756205540673        4.33475744196664        0.82663391022471
C            9.16391855273961        4.39646142390783       -0.29768660340145
C            8.67577311560719        3.97717389941945       -1.52479747229089
C            7.38409753862621        3.49179994429295       -1.63035618900288
C            5.08758708799690        1.55650268684255       -0.38104208994316
C            6.20856340691717        0.74411236435305       -0.21726944969083
C            6.05360098091146       -0.61991179454128        0.02204562666835
N            7.17700403045781       -1.43419258702470        0.20262071365319
C            7.18892818009661       -2.73035477518763       -0.32212423562384
C            6.57187880077530       -3.00793807022504       -1.54320759206266
C            6.58309646504800       -4.29152842558882       -2.05273496739371
C            7.20645233619232       -5.31795856598364       -1.36094597490995
C            7.82286856519176       -5.04784052933040       -0.14938340296071
C            7.81496962009469       -3.76820338089572        0.37050420122495
C            8.29498844408638       -0.93653060758148        0.88158163206280
C            8.13449197575238       -0.10521602098214        1.99108321808932
C            9.23920186347810        0.39563935315810        2.65145745717233
C           10.51809585880561        0.07374072285851        2.22543562729768
C           10.68336320266754       -0.75584257271176        1.12764651827476
C            9.58481458800375       -1.25561237867073        0.45551170082103
C            4.77740697113883       -1.17472011145879        0.08702429419322
C            3.65593576562641       -0.37347006766727       -0.11491556130627
C            3.78497059430595        1.01275447436544       -0.34054636709126
B           -2.56418291126312        1.90288430407282        0.49227414030127
C           -2.86706400587114        3.35676901612028        0.90719572681548
C           -1.91323803625361        4.29198547098479        1.33399767427206
C           -2.23534839028335        5.59599753985052        1.64439128075739
C           -3.55435334912101        6.02014533513342        1.54213240899786
C           -4.53595776654026        5.12373565447359        1.17433026128503
C           -4.21744271379499        3.79148605391538        0.88094683139558
N           -5.24654004214299        2.91651742493915        0.57582652664136
C           -6.57518869827015        3.43485090165049        0.48856107779460
C           -7.06606117700189        3.85099519372430       -0.74194610313715
C           -8.35931691885435        4.33483919384006       -0.83801911900278
C           -9.16213892404790        4.40272186515465        0.28847340370480
C           -8.67030326278041        3.98970175707844        1.51623325700327
C           -7.37839456167204        3.50464149852983        1.62033110219458
C           -5.08605162594141        1.56200851491820        0.37696183932204
C           -6.20777054850293        0.74871655153668        0.22276510132553
C           -6.05390326750024       -0.61684836365472       -0.00828191938484
N           -7.17767880931761       -1.43252274312888       -0.17934231897037
C           -7.18569128726125       -2.72654960314516        0.35100875117576
C           -6.56301679786220       -2.99830417473416        1.57054894427732
C           -6.57004269476353       -4.27985207028777        2.08525190976654
C           -7.19489660318757       -5.30997953150810        1.40035294067140
C           -7.81710216589175       -5.04562379484584        0.19048934543322
C           -7.81332338401662       -3.76808222222223       -0.33459530584580
C           -8.29984411355088       -0.93904217214870       -0.85445400210336
C           -9.58691490059801       -1.25822910919062       -0.42018087795017
C          -10.68981462909854       -0.76273558824057       -1.08832943990731
C          -10.53167115928544        0.06279407875921       -2.19021302582648
C           -9.25555553854230        0.38469421952255       -2.62448242122077
C           -8.14655065318092       -0.11206704396024       -1.96821559123897
C           -4.77793200325358       -1.17206420422936       -0.07421136593865
C           -3.65569504912481       -0.36996135741446        0.11985850633245
C           -3.78359749652824        1.01780284120607        0.33635377558353
N           -2.38996258399867       -0.93853276885077        0.07960869502014
C           -2.31959698947155       -2.35335774718146        0.03921003474853
C           -2.61294236812157       -3.13004775337402        1.16669000725197
F           -2.96414652569582       -2.49216551634347        2.30699537700035
C           -2.56152283915503       -4.50618156803587        1.15499456735741
C           -2.20999565838417       -5.16428584516173       -0.01726644099666
C           -1.91229034336155       -4.43440769644852       -1.16196689461683
C           -1.97217499027291       -3.05919113979015       -1.11944913506758
F           -1.68403763632706       -2.35287536006344       -2.23811125988278
H            2.78711378040537       -5.06648134270727       -2.02095515883626
H            2.16045246159251       -6.24063304837980        0.08253139159755
H            1.63470441661633       -4.90630122463825        2.11914455952713
H           -0.00063616280245       -1.96851604625219        0.00631341812453
H            0.00142925333991        2.91903629171417       -0.01257222603701
H            0.89454279977710        3.95736725286244       -1.47715663840785
H            1.47369672586251        6.26773002107547       -2.01540459533184
H            3.82626851763769        7.02709282002665       -1.81555198877107
H            5.56527523010801        5.44744499661015       -1.15702385437625
H            6.42620931993723        3.79638649259128        1.59859279189470
H            8.73577105013710        4.66120051314621        1.78371004415635
H           10.17276744419001        4.77250898611192       -0.21831806026692
H            9.30217243015917        4.02552556312929       -2.40304471601556
H            6.99265849998356        3.15991043969870       -2.58086677230594
H            7.20498083332815        1.15226202424710       -0.26987462182190
H            6.08829529253817       -2.21098204695366       -2.08924347104992
H            6.10769041932075       -4.48773027635596       -3.00274682060674
H            7.21368222781055       -6.31950463504683       -1.76368788191842
H            8.30744511593870       -5.84178905226128        0.40005779973696
H            8.28869957194568       -3.56225067410000        1.31929469415724
H            7.13822665706722        0.13765325014543        2.33052189074104
H            9.09981218641509        1.03597748432306        3.51019393615237
H           11.37924861904333        0.46507033053577        2.74559813251939
H           11.67615632976967       -1.00923609909421        0.78531636601615
H            9.71639573465115       -1.89246593878133       -0.40715321125828
H            4.68099180864318       -2.22738588570217        0.30607851953579
H           -0.88898981357181        3.97171914567403        1.43965733617070
H           -1.46628127713419        6.28606502998648        1.96116607552507
H           -3.81974827028698        7.04364967990982        1.76426385020233
H           -5.56095442203352        5.45854918329872        1.12506003838363
H           -6.43068136336592        3.79156581242733       -1.61327919958188
H           -8.74035546094433        4.65654659741383       -1.79556975954841
H          -10.17109442813305        4.77873615545013        0.21028000316564
H           -9.29394944324953        4.04282502723944        2.39615990220056
H           -6.98399562297518        3.17785995250595        2.57138857637390
H           -7.20389636289047        1.15743752951592        0.27631526639033
H           -6.07819039256012       -2.19855621467504        2.11134207336307
H           -6.09033851945323       -4.47147573482709        3.03402455638441
H           -7.19882969213120       -6.30989682643390        1.80715231584044
H           -8.30303668898167       -5.84243632394078       -0.35357332686010
H           -8.29153674691191       -3.56666504511039       -1.28210344439196
H           -9.71291579788148       -1.89181409864968        0.44571443239735
H          -11.68036483261238       -1.01618668821654       -0.73960327791324
H          -11.39620418182705        0.45093637827307       -2.70714592752920
H           -9.12175211664405        1.02176116000150       -3.48653467788610
H           -7.15252709137762        0.13083805625714       -2.31413975980497
H           -4.68230809177716       -2.22598173602063       -0.28747958358183
H           -2.79371492387509       -5.04982020879171        2.05600179429479
H           -2.16690260589487       -6.23982519291165       -0.03866625726153
H           -1.63779699807697       -4.92042227501512       -2.08412777423558

          :  Hamiltonian                  GFN2-xTB          :
         :: gradient norm              0.000069815845 Eh/a0 ::
         :: HOMO-LUMO gap              0.074741102038 eV    ::
         :: SCC energy              -235.556633237885 Eh    ::
         :: -> dispersion             -0.226689887016 Eh    ::
         :: -> Gsolv                  -0.088355859859 Eh    ::
         :: repulsion energy           3.948390249348 Eh    ::

    * Orbital Energies and Occupations

         #    Occupation            Energy/Eh            Energy/eV
      -------------------------------------------------------------
         1        2.0000           -0.8305928             -22.6016
       ...           ...                  ...                  ...
       202        2.0000           -0.3944737             -10.7342
       203        2.0000           -0.3909652             -10.6387
       204        2.0000           -0.3896337             -10.6025
       205        2.0000           -0.3823081             -10.4031
       206        2.0000           -0.3775168             -10.2728
       207        2.0000           -0.3723682             -10.1327
       208        2.0000           -0.3696192             -10.0579
       209        2.0000           -0.3613552              -9.8330
       210        1.9994           -0.3549864              -9.6597
       211        1.9787           -0.3516441              -9.5687
       212        1.8993           -0.3500879              -9.5264
       213        1.1227           -0.3461386              -9.4189
       214        0.8015           -0.2601959              -7.0803 (HOMO)
       215        0.1831           -0.2574492              -7.0055 (LUMO)
       216        0.0155           -0.2549244              -6.9368
       217        0.0000           -0.2477872              -6.7426
       218        0.0000           -0.2475073              -6.7350
       219        0.0000           -0.2463074              -6.7024
       220                         -0.2357311              -6.4146
       221                         -0.2357268              -6.4145
       222                         -0.2346064              -6.3840
       223                         -0.2345713              -6.3830
       224                         -0.2317878              -6.3073
       225                         -0.2317734              -6.3069
       ...                                ...                  ...
       410                          0.7293344              19.8462
      -------------------------------------------------------------
                  HL-Gap            0.0027467 Eh            0.0747 eV

     #   Z          covCN         q      C6AA      α(0)
     1   9 F        0.787    -0.231    11.560     4.016
     2   6 C        2.789     0.153    24.680     8.138
     3   6 C        2.913    -0.057    29.424     8.895
     4   6 C        2.925    -0.041    29.013     8.833
     5   6 C        2.913    -0.059    29.471     8.902
     6   6 C        2.788     0.151    24.712     8.143
     7   9 F        0.786    -0.233    11.586     4.021
     8   6 C        2.925     0.027    27.406     8.585
     9   7 N        2.753    -0.032    21.854     6.943
    10   6 C        2.925     0.068    26.482     8.439
    11   6 C        2.921    -0.085    30.128     9.001
    12   6 C        2.925     0.068    26.481     8.439
    13   6 C        2.883    -0.078    29.941     8.971
    14   6 C        2.926    -0.055    29.375     8.888
    15   6 C        2.883    -0.078    29.941     8.971
    16   5 B        2.724     0.168    18.854     7.276
    17   6 C        2.885    -0.076    29.901     8.965
    18   6 C        2.922    -0.040    28.999     8.831
    19   6 C        2.913    -0.039    28.963     8.825
    20   6 C        2.918    -0.035    28.877     8.812
    21   6 C        2.920    -0.057    29.416     8.894
    22   6 C        2.925     0.059    26.685     8.471
    23   7 N        2.756    -0.038    21.975     6.962
    24   6 C        2.934     0.066    26.518     8.445
    25   6 C        2.922    -0.037    28.909     8.817
    26   6 C        2.920    -0.026    28.658     8.779
    27   6 C        2.919    -0.029    28.732     8.790
    28   6 C        2.920    -0.027    28.678     8.782
    29   6 C        2.921    -0.037    28.913     8.818
    30   6 C        2.926     0.061    26.626     8.462
    31   6 C        2.921    -0.082    30.053     8.990
    32   6 C        2.922     0.060    26.656     8.467
    33   7 N        2.753    -0.074    22.681     7.073
    34   6 C        2.923     0.065    26.552     8.450
    35   6 C        2.922    -0.048    29.185     8.859
    36   6 C        2.919    -0.031    28.762     8.795
    37   6 C        2.919    -0.040    28.982     8.828
    38   6 C        2.919    -0.030    28.760     8.794
    39   6 C        2.922    -0.049    29.206     8.862
    40   6 C        2.924     0.065    26.545     8.449
    41   6 C        2.922    -0.047    29.177     8.858
    42   6 C        2.919    -0.030    28.747     8.792
    43   6 C        2.919    -0.039    28.959     8.825
    44   6 C        2.919    -0.030    28.750     8.793
    45   6 C        2.922    -0.047    29.178     8.858
    46   6 C        2.920    -0.070    29.748     8.944
    47   6 C        2.926     0.059    26.688     8.472
    48   6 C        2.896    -0.107    30.710     9.086
    49   5 B        2.724     0.168    18.855     7.276
    50   6 C        2.885    -0.076    29.901     8.965
    51   6 C        2.922    -0.040    28.999     8.831
    52   6 C        2.913    -0.039    28.963     8.825
    53   6 C        2.918    -0.035    28.878     8.812
    54   6 C        2.920    -0.057    29.416     8.894
    55   6 C        2.925     0.059    26.685     8.471
    56   7 N        2.756    -0.038    21.974     6.962
    57   6 C        2.934     0.066    26.518     8.445
    58   6 C        2.922    -0.037    28.909     8.817
    59   6 C        2.920    -0.026    28.658     8.779
    60   6 C        2.919    -0.029    28.732     8.790
    61   6 C        2.920    -0.027    28.678     8.782
    62   6 C        2.921    -0.037    28.913     8.818
    63   6 C        2.926     0.061    26.626     8.462
    64   6 C        2.921    -0.082    30.054     8.990
    65   6 C        2.922     0.060    26.656     8.467
    66   7 N        2.753    -0.074    22.680     7.073
    67   6 C        2.923     0.065    26.553     8.450
    68   6 C        2.922    -0.048    29.184     8.859
    69   6 C        2.919    -0.031    28.762     8.795
    70   6 C        2.919    -0.040    28.982     8.828
    71   6 C        2.919    -0.030    28.760     8.794
    72   6 C        2.922    -0.049    29.205     8.862
    73   6 C        2.924     0.065    26.545     8.449
    74   6 C        2.922    -0.047    29.178     8.858
    75   6 C        2.919    -0.030    28.750     8.793
    76   6 C        2.919    -0.039    28.960     8.825
    77   6 C        2.919    -0.030    28.747     8.792
    78   6 C        2.922    -0.047    29.177     8.858
    79   6 C        2.920    -0.070    29.748     8.944
    80   6 C        2.926     0.059    26.688     8.472
    81   6 C        2.896    -0.107    30.710     9.086
    82   7 N        2.753    -0.032    21.854     6.943
    83   6 C        2.925     0.027    27.407     8.585
    84   6 C        2.789     0.153    24.681     8.138
    85   9 F        0.787    -0.231    11.561     4.016
    86   6 C        2.913    -0.057    29.424     8.895
    87   6 C        2.925    -0.041    29.014     8.833
    88   6 C        2.913    -0.059    29.472     8.902
    89   6 C        2.788     0.151    24.713     8.143
    90   9 F        0.786    -0.233    11.586     4.021
    91   1 H        0.926     0.076     2.017     2.221
    92   1 H        0.926     0.073     2.050     2.239
    93   1 H        0.926     0.075     2.033     2.230
    94   1 H        0.926     0.004     2.997     2.707
    95   1 H        0.926     0.042     2.421     2.433
    96   1 H        0.926     0.034     2.527     2.486
    97   1 H        0.926     0.022     2.700     2.570
    98   1 H        0.926     0.023     2.685     2.562
    99   1 H        0.926     0.023     2.684     2.562
   100   1 H        0.926     0.044     2.398     2.421
   101   1 H        0.926     0.046     2.368     2.406
   102   1 H        0.926     0.045     2.383     2.414
   103   1 H        0.926     0.045     2.380     2.412
   104   1 H        0.926     0.044     2.398     2.422
   105   1 H        0.926     0.030     2.586     2.515
   106   1 H        0.926     0.032     2.556     2.500
   107   1 H        0.926     0.034     2.528     2.486
   108   1 H        0.926     0.035     2.519     2.482
   109   1 H        0.926     0.036     2.504     2.474
   110   1 H        0.926     0.033     2.544     2.494
   111   1 H        0.926     0.032     2.562     2.503
   112   1 H        0.926     0.036     2.506     2.476
   113   1 H        0.926     0.035     2.519     2.482
   114   1 H        0.926     0.036     2.508     2.476
   115   1 H        0.926     0.033     2.548     2.496
   116   1 H        0.926     0.021     2.714     2.576
   117   1 H        0.926     0.034     2.527     2.486
   118   1 H        0.926     0.022     2.701     2.570
   119   1 H        0.926     0.023     2.685     2.562
   120   1 H        0.926     0.023     2.684     2.562
   121   1 H        0.926     0.044     2.398     2.421
   122   1 H        0.926     0.046     2.368     2.406
   123   1 H        0.926     0.045     2.383     2.414
   124   1 H        0.926     0.045     2.380     2.412
   125   1 H        0.926     0.044     2.399     2.422
   126   1 H        0.926     0.030     2.586     2.515
   127   1 H        0.926     0.032     2.555     2.500
   128   1 H        0.926     0.034     2.527     2.486
   129   1 H        0.926     0.035     2.519     2.482
   130   1 H        0.926     0.036     2.503     2.474
   131   1 H        0.926     0.033     2.544     2.494
   132   1 H        0.926     0.033     2.548     2.496
   133   1 H        0.926     0.036     2.508     2.477
   134   1 H        0.926     0.035     2.520     2.482
   135   1 H        0.926     0.036     2.506     2.476
   136   1 H        0.926     0.032     2.562     2.503
   137   1 H        0.926     0.021     2.714     2.576
   138   1 H        0.926     0.076     2.017     2.221
   139   1 H        0.926     0.073     2.051     2.239
   140   1 H        0.926     0.075     2.033     2.230

molecular dipole:
                 x           y           z       tot (Debye)
 q only:       -0.003      -0.493       0.007
   full:       -0.003      -0.737       0.009       1.874

 projected vibrational frequencies (cm⁻¹)
eigval :       -0.00    -0.00     0.00     0.00     0.00     0.00
eigval :        7.60     9.30    11.75    14.75    15.12    16.51
eigval :       17.40    23.98    24.46    25.49    27.36    28.78
eigval :       33.14    37.34    37.97    43.31    44.77    47.01
eigval :       53.03    58.30    59.64    62.59    64.53    67.19
eigval :       69.05    75.60    76.36    78.48    80.69    86.91
eigval :       88.34    90.67   100.71   111.17   111.70   119.72
eigval :      131.79   143.74   160.03   163.59   169.09   177.61
eigval :      177.86   185.98   193.14   195.63   197.25   211.32
eigval :      215.92   218.06   231.89   232.29   232.71   234.57
eigval :      239.37   239.95   246.55   256.85   257.83   265.62
eigval :      269.70   277.61   310.13   315.59   316.03   320.07
eigval :      321.82   340.77   341.66   348.83   355.32   362.86
eigval :      374.93   375.35   376.09   377.21   378.44   382.78
eigval :      384.05   384.19   389.19   392.28   394.74   400.64
eigval :      403.12   406.03   424.21   425.23   436.51   450.16
eigval :      464.97   469.85   471.96   472.13   475.70   480.35
eigval :      487.10   488.91   492.91   494.08   494.36   496.21
eigval :      500.49   511.50   517.59   519.47   523.31   528.50
eigval :      539.25   539.46   542.98   546.50   548.62   553.43
eigval :      559.39   570.84   572.74   582.02   582.60   584.68
eigval :      586.03   588.27   588.42   594.72   595.22   595.91
eigval :      602.21   606.02   607.42   617.07   617.83   627.57
eigval :      634.75   636.59   638.47   651.63   658.92   659.79
eigval :      660.71   666.14   666.41   668.20   673.05   676.39
eigval :      677.57   681.91   692.85   700.46   701.91   704.63
eigval :      714.06   732.06   741.63   744.76   753.31   754.96
eigval :      756.60   759.48   762.30   764.26   773.26   774.59
eigval :      785.06   788.28   789.62   803.53   803.78   810.55
eigval :      838.36   838.82   847.47   851.81   861.99   866.08
eigval :      869.89   871.94   874.30   874.72   877.37   878.06
eigval :      878.08   878.70   879.36   879.44   885.46   886.12
eigval :      890.13   890.72   891.41   892.56   893.26   893.56
eigval :      896.40   902.02   902.31   903.91   905.12   910.14
eigval :      911.01   916.71   918.41   923.00   923.28   925.11
eigval :      925.56   925.63   927.56   927.81   928.55   930.87
eigval :      931.81   931.93   932.73   934.05   936.66   955.91
eigval :      958.98   962.59   977.04   977.59   990.94   995.34
eigval :     1002.90  1002.97  1040.01  1061.08  1064.88  1066.48
eigval :     1077.63  1077.91  1081.26  1081.53  1082.24  1083.06
eigval :     1083.24  1095.64  1098.99  1102.70  1104.08  1112.41
eigval :     1112.76  1113.00  1119.75  1120.12  1123.89  1124.02
eigval :     1141.58  1141.66  1142.86  1149.51  1170.16  1171.16
eigval :     1176.42  1176.76  1178.55  1178.59  1178.84  1179.04
eigval :     1179.39  1182.48  1183.97  1185.80  1187.28  1191.26
eigval :     1193.12  1193.61  1197.75  1198.59  1200.13  1200.16
eigval :     1206.88  1210.60  1220.26  1231.19  1236.53  1241.78
eigval :     1247.94  1253.48  1260.52  1263.53  1269.60  1272.69
eigval :     1272.70  1276.14  1276.43  1276.57  1280.14  1280.43
eigval :     1282.21  1288.00  1289.94  1294.96  1296.95  1297.95
eigval :     1307.18  1307.20  1310.55  1311.08  1312.91  1316.76
eigval :     1317.21  1318.48  1318.61  1324.28  1325.80  1325.82
eigval :     1327.81  1346.67  1346.85  1353.02  1361.63  1363.72
eigval :     1370.73  1371.18  1375.02  1396.74  1399.55  1410.13
eigval :     1411.63  1412.91  1415.72  1416.28  1430.51  1430.53
eigval :     1432.23  1432.88  1439.38  1439.92  1441.31  1442.17
eigval :     1443.77  1443.90  1449.30  1452.35  1464.72  1465.01
eigval :     1466.18  1467.16  1469.06  1469.12  1470.59  1473.09
eigval :     1496.86  1497.13  1505.94  1509.31  1520.87  1532.81
eigval :     1533.64  1540.37  1556.07  1569.22  1569.93  1570.16
eigval :     1574.75  1574.85  1581.96  1581.98  1586.29  1586.31
eigval :     1591.75  1591.95  1592.25  1592.91  3064.24  3064.31
eigval :     3073.25  3073.30  3073.88  3073.90  3074.27  3074.56
eigval :     3074.56  3074.73  3075.02  3075.11  3079.83  3079.88
eigval :     3082.28  3082.39  3083.71  3083.88  3084.76  3085.14
eigval :     3086.11  3086.44  3086.77  3087.23  3087.98  3088.02
eigval :     3090.75  3090.91  3091.78  3092.25  3092.50  3092.60
eigval :     3094.36  3095.16  3095.44  3095.59  3095.85  3099.81
eigval :     3099.91  3103.44  3104.09  3108.66  3108.98  3113.99
eigval :     3114.31  3116.50  3116.89  3127.14  3128.01  3141.17

   temp. (K)  partition function   enthalpy   heat capacity  entropy
                                   cal/mol     cal/K/mol   cal/K/mol   J/K/mol
 298.15  VIB  0.408E+37            44087.167    268.910    278.802
         ROT  0.216E+09              888.752      2.981     41.114
         INT  0.881E+45            44975.919    271.891    319.917
         TR   0.387E+29             1481.254      4.968     47.025
         TOT                       46457.1732   276.8595   366.9420  1535.2852

       T/K    H(0)-H(T)+PV         H(T)/Eh          T*S/Eh         G(T)/Eh
   ------------------------------------------------------------------------
    298.15    0.740342E-01    0.111282E+01    0.174346E+00    0.938475E+00
   ------------------------------------------------------------------------

         :::::::::::::::::::::::::::::::::::::::::::::::::::::
         ::                  THERMODYNAMIC                  ::
         :::::::::::::::::::::::::::::::::::::::::::::::::::::
         :: total free energy        -230.669767793667 Eh   ::
         ::.................................................::
         :: total energy             -231.608242991543 Eh   ::
         :: zero point energy           1.038786950123 Eh   ::
         :: G(RRHO) w/o ZPVE           -0.100311752247 Eh   ::
         :: G(RRHO) contrib.            0.938475197876 Eh   ::
         :::::::::::::::::::::::::::::::::::::::::::::::::::::

           -------------------------------------------------
          | TOTAL ENERGY             -231.608242991543 Eh   |
          | TOTAL ENTHALPY           -230.495421823460 Eh   |
          | TOTAL FREE ENERGY        -230.669767793667 Eh   |
          | GRADIENT NORM               0.000066677892 Eh/α |
          | HOMO-LUMO GAP               0.074742248379 eV   |
           -------------------------------------------------

 * finished run on 2025/08/22 at 06:36:00.947
