   * xtb version 6.7.1 (edcfbbe) compiled by 'albert@albert-system' on 2024-07-22

   ID    Z sym.   atoms
    1    9 F      1, 7, 85, 90
    2    6 C      2-6, 8, 10-15, 17-22, 24-32, 34-48, 50-55, 57-65, 67-81,
                  83, 84, 86-89
    3    7 N      9, 23, 33, 56, 66, 82
    4    5 B      16, 49
    5    1 H      91-140

          program call               : xtb data2507/toluene/4F-ν-DABNA/4F-ν-DABNA_toluene_T1_crest.xyz --gfn 2 --uhf 2 --gbsa toluene --ohess vtight --parallel 40 --molden --ceasefiles --namespace data2507/toluene/4F-ν-DABNA/4F-ν-DABNA_toluene_T1_finalOpt
      * Solvation model:               GBSA
        Solvent                        toluene
        Solvent mass                       9.2140E+01 g/mol
          :  Hamiltonian                  GFN2-xTB          :
 * total energy  :  -231.6058726 Eh     change        0.4943530E-08 Eh
 * total energy  :  -231.6060976 Eh     change       -0.2250426E-03 Eh
 * total energy  :  -231.6063133 Eh     change       -0.2156298E-03 Eh
 * total energy  :  -231.6064417 Eh     change       -0.1284627E-03 Eh
 * total energy  :  -231.6066736 Eh     change       -0.2319259E-03 Eh
 * total energy  :  -231.6069635 Eh     change       -0.2898475E-03 Eh
 * total energy  :  -231.6071628 Eh     change       -0.1993355E-03 Eh
 * total energy  :  -231.6072810 Eh     change       -0.1181966E-03 Eh
 * total energy  :  -231.6073772 Eh     change       -0.9617117E-04 Eh
 * total energy  :  -231.6074629 Eh     change       -0.8574119E-04 Eh
 * total energy  :  -231.6082759 Eh     change       -0.1477397E-06 Eh
 * total energy  :  -231.6082761 Eh     change       -0.1737930E-06 Eh
 * total energy  :  -231.6082762 Eh     change       -0.1722057E-06 Eh
 * total energy  :  -231.6082764 Eh     change       -0.1861111E-06 Eh
 * total energy  :  -231.6082766 Eh     change       -0.2064413E-06 Eh
 * total energy  :  -231.6082769 Eh     change       -0.2492134E-06 Eh
 * total energy  :  -231.6082771 Eh     change       -0.2221077E-06 Eh
 * total energy  :  -231.6082773 Eh     change       -0.1611532E-06 Eh
 * total energy  :  -231.6082773 Eh     change       -0.1329607E-07 Eh
   *** GEOMETRY OPTIMIZATION CONVERGED AFTER 63 ITERATIONS ***

 final structure:
================
140
 xtb: 6.7.1 (edcfbbe)
F            3.05125743103343       -2.54060398991626       -2.22279900890401
C            2.66249650488472       -3.15677276328626       -1.08258211455327
C            2.61772639381251       -4.53246223176670       -1.04379312606386
C            2.22539012622610       -5.16794826277981        0.12803687569004
C            1.88175027272968       -4.41592191436152        1.24528539045810
C            1.93795612084863       -3.04162308403733        1.17664068683577
F            1.60641508656472       -2.31362928891632        2.26933139911446
C            2.32469407628792       -2.35798896569445        0.01701769455954
N            2.39149496183070       -0.94497191974388       -0.05060645961274
C            1.21485995273251       -0.22157566600330       -0.07246026293063
C           -0.00001093710652       -0.89774975143231       -0.00220660998901
C           -1.21460166416069       -0.22099472313556        0.06747205850990
C           -1.22350428830229        1.19698788221745        0.19857037798020
C            0.00047585937928        1.83669202739629       -0.00459578807824
C            1.22427513274971        1.19617047448128       -0.20597387285564
B            2.56196849595173        1.88658392344129       -0.52540658891035
C            2.86068083705791        3.32830298459862       -0.98169759078301
C            1.90251694033527        4.24875651576092       -1.43011266708328
C            2.22145083456082        5.54265717039278       -1.78309596115858
C            3.54095917215472        5.97025006670668       -1.70358853458426
C            4.52611070837101        5.08670780846608       -1.31462032897288
C            4.21078752326602        3.76422968671839       -0.97710392799660
N            5.24216583999093        2.90000882622538       -0.64923910636131
C            6.57099442485112        3.42167056664593       -0.58805769534253
C            7.06860862945647        3.88315446217795        0.62341212573844
C            8.36228895085732        4.37016079245798        0.69429861881719
C            9.15862715836515        4.39687244615710       -0.43849880368066
C            8.65984939143072        3.93921985922509       -1.64749470582697
C            7.36765900808318        3.45010153774349       -1.72620900920410
C            5.08414453972292        1.55236249536234       -0.40663876825311
C            6.20669300698181        0.74608617605868       -0.22405314599717
C            6.05406529769627       -0.61100092822393        0.05354922930248
N            7.17807437244489       -1.41862520302074        0.25662081543223
C            7.18718543508085       -2.73248433988207       -0.22206261903567
C            6.56138497059376       -3.05350592873490       -1.42801726915767
C            6.56558551324083       -4.35513624620973       -1.88938115024843
C            7.19264666637467       -5.35658570157485       -1.16501087767737
C            7.82020899064047       -5.04282454365953        0.03016570375810
C            7.81771450405283       -3.74504442191036        0.50307481500652
C            8.29903268285051       -0.89865331268192        0.91412214741911
C            8.14304128290710       -0.03655589177200        2.00042911189462
C            9.25050332509250        0.48684693974519        2.63835060114939
C           10.52750431268413        0.15737878358131        2.21246919589918
C           10.68823349515025       -0.70311795002657        1.13804815634179
C            9.58683581158142       -1.22611645949894        0.48861501963046
C            4.77879379453622       -1.16607546002017        0.13320150774838
C            3.65623599978346       -0.37379851220758       -0.09517170048071
C            3.78265135884719        1.00728356102068       -0.35079344156237
B           -2.56057249694275        1.88827811380226        0.51872760419498
C           -2.85821165520764        3.33080505123056        0.97331971201031
C           -1.89900492057514        4.25218699819108        1.41758517351674
C           -2.21717595286426        5.54657042137347        1.76948405751781
C           -3.53699122638812        5.97377569281919        1.69320285441931
C           -4.52304616910461        5.08942888354750        1.30840897280509
C           -4.20839716718321        3.76654269162205        0.97181614340925
N           -5.24056200296757        2.90174805137133        0.64803979443814
C           -6.56967149242259        3.42309607921476        0.59037969937188
C           -7.07073140481320        3.88451303516730       -0.61969263170572
C           -8.36469242697916        4.37129493541258       -0.68694702259148
C           -9.15791884689876        4.39775712408273        0.44803355784868
C           -8.65569377588598        3.94018302878221        1.65563605997311
C           -7.36319708249072        3.45132621549208        1.73073435461935
C           -5.08308451720702        1.55381549422238        0.40683178691027
C           -6.20612217469801        0.74722166633039        0.22861922065214
C           -6.05425041960977       -0.61023741061235       -0.04750165162496
N           -7.17870574502623       -1.41839719802279       -0.24555349401686
C           -7.18569377323215       -2.73176766056712        0.23459078848586
C           -6.55524917627278       -3.05150176339795        1.43846181335045
C           -6.55745537185352       -4.35269216214397        1.90107831271787
C           -7.18721084583288       -5.35492819356160        1.18013896820382
C           -7.81941186682297       -5.04243320213605       -0.01291957517902
C           -7.81885680501063       -3.74512843447541       -0.48712457430140
C           -8.30279525156609       -0.89939962155131       -0.89850024083616
C           -9.58849843386154       -1.22685444186373       -0.46667250529835
C          -10.69309652087105       -0.70513057230507       -1.11166139312217
C          -10.53764486144695        0.15409385576424       -2.18787973181361
C           -9.26274826752856        0.48362968275631       -2.61997937088729
C           -8.15212386909865       -0.03852334950156       -1.98652081837070
C           -4.77914097161546       -1.16523405099382       -0.13034265346642
C           -3.65598173224790       -0.37270115498409        0.09423822642305
C           -3.78170275685420        1.00873186122994        0.34830530844838
N           -2.39143696347590       -0.94413312393290        0.04773710929845
C           -2.32504709032679       -2.35722331172119       -0.01859972036792
C           -2.66202465450577       -3.15502061137497        1.08202180749531
F           -3.04925169904611       -2.53776768739067        2.22218135669926
C           -2.61796905080574       -4.53073755138683        1.04428226530654
C           -2.22709483435051       -5.16738310278283       -0.12741877415069
C           -1.88419629770955       -4.41638282902824       -1.24560208451143
C           -1.93975520801883       -3.04202555759147       -1.17803684977315
F           -1.60906118760185       -2.31509253657009       -2.27169477969028
H            2.88623989602741       -5.09338841118646       -1.92382375549227
H            2.18661409596273       -6.24302009628310        0.17033058464523
H            1.57533509338510       -4.88414867969874        2.16666450924510
H           -0.00024867069541       -1.97664918839773       -0.00139868680067
H            0.00067604467643        2.91231648184368       -0.00593600371309
H            0.87792306346166        3.92370592749037       -1.51746378181135
H            1.44986867133174        6.22236098576538       -2.11574478426386
H            3.80398115154582        6.98639522833434       -1.95980975589662
H            5.55109477632437        5.42374233764075       -1.28320609741932
H            6.43831439230592        3.85577019329285        1.50000377740533
H            8.74851414769867        4.72726234150429        1.63708296965210
H           10.16785187066121        4.77573569618959       -0.37991202433290
H            9.27816790274268        3.96069856682126       -2.53251008356458
H            6.96805034193022        3.08834850134450       -2.66231037211023
H            7.20236859896726        1.15422536517163       -0.28883390172981
H            6.07580618942241       -2.27610397520588       -1.99981539705331
H            6.08196103779320       -4.58521473354770       -2.82752937822490
H            7.19467514673313       -6.37251789682768       -1.53004636784763
H            8.30855896250014       -5.81674440239223        0.60426430144362
H            8.29889020796418       -3.50508619339862        1.44007575139627
H            7.14819589361244        0.21251722405431        2.33957630826714
H            9.11481691043743        1.15167994964773        3.47884263081191
H           11.39087045265387        0.56690765764702        2.71466183706801
H           11.67955564513116       -0.96284434930166        0.79624019708178
H            9.71439639561507       -1.88792914633978       -0.35565370111779
H            4.68383879842219       -2.21183671473413        0.38364435422325
H           -0.87412895188130        3.92751529611813        1.50280333470555
H           -1.44473689869873        6.22690592033435        2.09884031412919
H           -3.79949054526521        6.99023339268969        1.94871865807704
H           -5.54819404869508        5.42618070059141        1.27947691490447
H           -6.44294735268325        3.85724599279252       -1.49809351197170
H           -8.75359614664942        4.72831222968090       -1.62865860082562
H          -10.16738364842772        4.77640510082536        0.39225184077144
H           -9.27159132476679        3.96138629717678        2.54233828543250
H           -6.96088408788980        3.08963826336420        2.66570169565292
H           -7.20161882098424        1.15537957103567        0.29588643369323
H           -6.06757643208946       -2.27349658138427        2.00765410939308
H           -6.07010321406926       -4.58180476196411        2.83752770777364
H           -7.18767972337324       -6.37050144385602        1.54617372525062
H           -8.30993492443167       -5.81696351373970       -0.58433513822358
H           -8.30365684796202       -3.50612997400114       -1.42249791803134
H           -9.71185182797771       -1.88767163797767        0.37900290454446
H          -11.68272434550525       -0.96491512400459       -0.76501841793056
H          -11.40350480419801        0.56262259326712       -2.68658774578471
H           -9.13122381130820        1.14754287901446       -3.46186075792139
H           -7.15895725278275        0.21062169480645       -2.33051212838225
H           -4.68483341714313       -2.21125723980771       -0.37992138494237
H           -2.88587995582302       -5.09083320974118        1.92502128411299
H           -2.18888169365562       -6.24249935668600       -0.16890087896995
H           -1.57892724644612       -4.88549260232213       -2.16690957032689

          :  Hamiltonian                  GFN2-xTB          :
         :: gradient norm              0.000061723792 Eh/a0 ::
         :: HOMO-LUMO gap              0.072694389050 eV    ::
         :: SCC energy              -235.557018279144 Eh    ::
         :: -> dispersion             -0.226966547816 Eh    ::
         :: -> Gsolv                  -0.088050069701 Eh    ::
         :: repulsion energy           3.948740997279 Eh    ::

    * Orbital Energies and Occupations

         #    Occupation            Energy/Eh            Energy/eV
      -------------------------------------------------------------
         1        2.0000           -0.8303555             -22.5951
       ...           ...                  ...                  ...
       202        2.0000           -0.3944856             -10.7345
       203        2.0000           -0.3910184             -10.6402
       204        2.0000           -0.3896556             -10.6031
       205        2.0000           -0.3823391             -10.4040
       206        2.0000           -0.3776197             -10.2756
       207        2.0000           -0.3723555             -10.1323
       208        2.0000           -0.3695606             -10.0563
       209        2.0000           -0.3612958              -9.8314
       210        1.9994           -0.3549434              -9.6585
       211        1.9793           -0.3516223              -9.5681
       212        1.9027           -0.3500755              -9.5260
       213        1.1187           -0.3460553              -9.4166
       214        0.7985           -0.2603314              -7.0840 (HOMO)
       215        0.1924           -0.2576604              -7.0113 (LUMO)
       216        0.0090           -0.2545599              -6.9269
       217        0.0000           -0.2475021              -6.7349
       218        0.0000           -0.2472410              -6.7278
       219        0.0000           -0.2458517              -6.6900
       220                         -0.2357052              -6.4139
       221                         -0.2357011              -6.4138
       222                         -0.2345846              -6.3834
       223                         -0.2345482              -6.3824
       224                         -0.2317790              -6.3070
       225                         -0.2317712              -6.3068
       ...                                ...                  ...
       410                          0.7295711              19.8526
      -------------------------------------------------------------
                  HL-Gap            0.0026710 Eh            0.0727 eV

     #   Z          covCN         q      C6AA      α(0)
     1   9 F        0.787    -0.231    11.562     4.017
     2   6 C        2.789     0.152    24.685     8.139
     3   6 C        2.913    -0.057    29.424     8.895
     4   6 C        2.925    -0.041    29.019     8.834
     5   6 C        2.913    -0.059    29.473     8.902
     6   6 C        2.788     0.151    24.717     8.144
     7   9 F        0.786    -0.234    11.589     4.021
     8   6 C        2.925     0.027    27.412     8.586
     9   7 N        2.753    -0.031    21.846     6.942
    10   6 C        2.926     0.068    26.484     8.439
    11   6 C        2.921    -0.084    30.109     8.998
    12   6 C        2.926     0.068    26.483     8.439
    13   6 C        2.883    -0.078    29.937     8.970
    14   6 C        2.926    -0.055    29.362     8.886
    15   6 C        2.883    -0.078    29.938     8.970
    16   5 B        2.724     0.168    18.854     7.276
    17   6 C        2.886    -0.076    29.902     8.965
    18   6 C        2.922    -0.040    28.998     8.831
    19   6 C        2.913    -0.039    28.964     8.825
    20   6 C        2.918    -0.035    28.877     8.812
    21   6 C        2.919    -0.057    29.414     8.894
    22   6 C        2.925     0.059    26.686     8.472
    23   7 N        2.756    -0.038    21.975     6.962
    24   6 C        2.934     0.066    26.518     8.445
    25   6 C        2.921    -0.037    28.909     8.817
    26   6 C        2.920    -0.026    28.659     8.779
    27   6 C        2.919    -0.029    28.732     8.790
    28   6 C        2.920    -0.027    28.678     8.782
    29   6 C        2.921    -0.037    28.913     8.818
    30   6 C        2.926     0.061    26.623     8.462
    31   6 C        2.921    -0.082    30.059     8.991
    32   6 C        2.922     0.060    26.653     8.466
    33   7 N        2.753    -0.074    22.680     7.073
    34   6 C        2.923     0.065    26.553     8.450
    35   6 C        2.922    -0.048    29.186     8.859
    36   6 C        2.919    -0.031    28.763     8.795
    37   6 C        2.919    -0.040    28.984     8.828
    38   6 C        2.919    -0.030    28.761     8.794
    39   6 C        2.922    -0.049    29.207     8.863
    40   6 C        2.924     0.065    26.546     8.449
    41   6 C        2.922    -0.047    29.175     8.858
    42   6 C        2.919    -0.030    28.747     8.792
    43   6 C        2.919    -0.039    28.957     8.824
    44   6 C        2.919    -0.030    28.749     8.793
    45   6 C        2.922    -0.047    29.174     8.858
    46   6 C        2.920    -0.070    29.740     8.943
    47   6 C        2.927     0.058    26.690     8.472
    48   6 C        2.896    -0.107    30.709     9.086
    49   5 B        2.724     0.168    18.855     7.276
    50   6 C        2.885    -0.076    29.901     8.965
    51   6 C        2.922    -0.040    28.998     8.831
    52   6 C        2.913    -0.039    28.964     8.825
    53   6 C        2.918    -0.035    28.877     8.812
    54   6 C        2.919    -0.057    29.414     8.894
    55   6 C        2.925     0.059    26.686     8.472
    56   7 N        2.756    -0.038    21.974     6.962
    57   6 C        2.934     0.066    26.518     8.445
    58   6 C        2.921    -0.037    28.909     8.817
    59   6 C        2.920    -0.026    28.659     8.779
    60   6 C        2.919    -0.029    28.732     8.790
    61   6 C        2.920    -0.027    28.678     8.782
    62   6 C        2.921    -0.037    28.913     8.818
    63   6 C        2.926     0.061    26.623     8.462
    64   6 C        2.921    -0.082    30.060     8.991
    65   6 C        2.922     0.060    26.653     8.466
    66   7 N        2.753    -0.074    22.679     7.073
    67   6 C        2.923     0.065    26.553     8.450
    68   6 C        2.922    -0.048    29.186     8.859
    69   6 C        2.919    -0.031    28.763     8.795
    70   6 C        2.919    -0.040    28.984     8.828
    71   6 C        2.919    -0.030    28.761     8.794
    72   6 C        2.922    -0.049    29.207     8.863
    73   6 C        2.924     0.065    26.546     8.449
    74   6 C        2.922    -0.047    29.174     8.858
    75   6 C        2.919    -0.030    28.749     8.793
    76   6 C        2.919    -0.038    28.957     8.824
    77   6 C        2.919    -0.030    28.747     8.792
    78   6 C        2.922    -0.047    29.174     8.858
    79   6 C        2.920    -0.070    29.740     8.943
    80   6 C        2.927     0.058    26.690     8.472
    81   6 C        2.896    -0.107    30.709     9.086
    82   7 N        2.753    -0.031    21.846     6.942
    83   6 C        2.925     0.026    27.412     8.586
    84   6 C        2.789     0.152    24.686     8.139
    85   9 F        0.787    -0.231    11.562     4.017
    86   6 C        2.913    -0.057    29.424     8.895
    87   6 C        2.925    -0.041    29.019     8.834
    88   6 C        2.913    -0.059    29.473     8.902
    89   6 C        2.788     0.151    24.717     8.144
    90   9 F        0.786    -0.234    11.589     4.021
    91   1 H        0.926     0.076     2.019     2.222
    92   1 H        0.926     0.073     2.054     2.241
    93   1 H        0.926     0.074     2.037     2.232
    94   1 H        0.926     0.004     2.987     2.703
    95   1 H        0.926     0.042     2.423     2.434
    96   1 H        0.926     0.034     2.528     2.487
    97   1 H        0.926     0.022     2.701     2.570
    98   1 H        0.926     0.023     2.684     2.562
    99   1 H        0.926     0.023     2.684     2.562
   100   1 H        0.926     0.044     2.397     2.421
   101   1 H        0.926     0.046     2.368     2.406
   102   1 H        0.926     0.045     2.383     2.414
   103   1 H        0.926     0.045     2.380     2.412
   104   1 H        0.926     0.044     2.399     2.422
   105   1 H        0.926     0.030     2.587     2.515
   106   1 H        0.926     0.033     2.550     2.497
   107   1 H        0.926     0.034     2.528     2.487
   108   1 H        0.926     0.035     2.519     2.482
   109   1 H        0.926     0.036     2.504     2.475
   110   1 H        0.926     0.033     2.546     2.495
   111   1 H        0.926     0.032     2.560     2.502
   112   1 H        0.926     0.036     2.505     2.475
   113   1 H        0.926     0.035     2.518     2.482
   114   1 H        0.926     0.036     2.507     2.476
   115   1 H        0.926     0.033     2.547     2.496
   116   1 H        0.926     0.021     2.711     2.575
   117   1 H        0.926     0.034     2.528     2.486
   118   1 H        0.926     0.022     2.701     2.570
   119   1 H        0.926     0.023     2.684     2.562
   120   1 H        0.926     0.023     2.684     2.562
   121   1 H        0.926     0.044     2.397     2.421
   122   1 H        0.926     0.046     2.368     2.406
   123   1 H        0.926     0.045     2.383     2.414
   124   1 H        0.926     0.045     2.380     2.412
   125   1 H        0.926     0.044     2.399     2.422
   126   1 H        0.926     0.030     2.587     2.515
   127   1 H        0.926     0.033     2.550     2.497
   128   1 H        0.926     0.034     2.528     2.487
   129   1 H        0.926     0.035     2.519     2.482
   130   1 H        0.926     0.036     2.504     2.475
   131   1 H        0.926     0.033     2.545     2.495
   132   1 H        0.926     0.033     2.547     2.496
   133   1 H        0.926     0.036     2.507     2.476
   134   1 H        0.926     0.035     2.518     2.481
   135   1 H        0.926     0.036     2.505     2.475
   136   1 H        0.926     0.032     2.560     2.502
   137   1 H        0.926     0.021     2.711     2.575
   138   1 H        0.926     0.076     2.019     2.222
   139   1 H        0.926     0.073     2.054     2.241
   140   1 H        0.926     0.074     2.037     2.232

molecular dipole:
                 x           y           z       tot (Debye)
 q only:       -0.002      -0.449       0.004
   full:       -0.002      -0.697       0.005       1.771

 projected vibrational frequencies (cm⁻¹)
eigval :       -0.00    -0.00     0.00     0.00     0.00     0.00
eigval :       -2.62     6.53     9.62    13.82    14.40    15.00
eigval :       16.37    19.68    22.52    24.55    24.93    28.02
eigval :       31.63    34.22    36.13    40.19    43.00    45.68
eigval :       51.36    57.03    57.80    60.92    61.84    65.43
eigval :       67.22    74.36    75.50    77.76    80.14    86.06
eigval :       86.65    89.64    99.43   109.79   110.82   118.32
eigval :      131.84   143.87   160.23   163.72   169.12   177.86
eigval :      179.31   186.69   192.47   196.18   197.54   210.64
eigval :      215.39   218.42   230.22   230.75   231.47   234.46
eigval :      239.06   239.69   245.71   257.07   258.00   265.50
eigval :      269.45   277.49   309.72   314.97   315.31   319.95
eigval :      322.13   340.18   341.68   349.18   355.57   362.87
eigval :      374.07   374.68   374.78   376.69   378.17   382.47
eigval :      382.80   382.98   389.50   392.11   394.92   400.98
eigval :      403.60   406.32   423.90   424.66   436.36   450.46
eigval :      464.24   469.36   471.96   472.14   475.26   479.61
eigval :      486.38   488.02   492.39   493.23   494.39   495.88
eigval :      500.12   510.46   517.25   519.04   522.96   528.57
eigval :      537.63   538.01   542.63   546.57   548.47   553.46
eigval :      559.52   570.77   573.09   582.25   582.51   584.59
eigval :      585.98   588.25   588.36   594.58   595.19   596.06
eigval :      602.22   605.86   607.31   617.09   617.67   627.41
eigval :      634.50   636.53   637.89   651.23   658.61   659.47
eigval :      660.32   665.68   665.82   668.86   673.50   676.04
eigval :      677.23   681.89   692.16   701.03   701.33   705.03
eigval :      713.86   731.79   741.25   744.37   751.40   752.16
eigval :      755.02   757.54   757.89   759.32   772.74   773.96
eigval :      782.74   785.69   789.42   801.84   802.11   813.44
eigval :      837.52   838.15   847.49   851.66   859.57   864.19
eigval :      865.78   865.92   873.14   873.57   874.11   875.32
eigval :      876.55   876.72   877.30   878.67   882.17   882.97
eigval :      889.35   889.47   891.14   891.88   892.16   892.59
eigval :      896.05   900.53   901.11   903.94   904.18   910.06
eigval :      910.83   915.17   917.58   919.19   920.14   922.41
eigval :      922.57   923.03   923.23   927.05   927.15   928.43
eigval :      928.83   929.32   929.69   933.23   933.52   955.75
eigval :      959.62   963.20   977.02   977.58   990.75   995.20
eigval :     1002.93  1002.99  1040.36  1060.98  1064.95  1067.31
eigval :     1077.31  1077.65  1081.21  1081.47  1081.88  1082.38
eigval :     1082.72  1095.46  1099.07  1102.53  1103.88  1112.02
eigval :     1112.07  1112.73  1119.70  1120.19  1123.35  1123.46
eigval :     1141.93  1142.94  1144.09  1149.70  1170.50  1171.88
eigval :     1176.76  1177.21  1177.76  1177.86  1177.96  1179.15
eigval :     1179.33  1182.31  1183.86  1185.34  1186.98  1191.49
eigval :     1193.14  1193.58  1197.17  1197.84  1199.77  1199.87
eigval :     1206.82  1210.36  1220.36  1230.49  1236.27  1241.96
eigval :     1247.78  1253.70  1260.83  1263.68  1269.75  1272.28
eigval :     1272.44  1275.99  1276.22  1276.66  1280.13  1280.33
eigval :     1282.12  1288.27  1289.96  1294.02  1297.08  1297.98
eigval :     1307.12  1307.14  1310.61  1311.12  1313.39  1317.61
eigval :     1317.83  1318.61  1318.68  1324.39  1325.76  1325.79
eigval :     1327.86  1346.88  1347.05  1353.13  1361.60  1363.92
eigval :     1375.65  1377.38  1377.52  1397.13  1399.93  1410.44
eigval :     1411.78  1413.50  1415.85  1416.58  1430.53  1430.67
eigval :     1432.26  1432.85  1439.90  1440.00  1441.46  1442.32
eigval :     1443.89  1444.26  1449.62  1452.79  1464.63  1464.82
eigval :     1466.01  1467.06  1468.84  1468.92  1470.31  1473.17
eigval :     1496.66  1497.01  1507.04  1509.09  1522.93  1532.86
eigval :     1533.71  1541.42  1556.53  1569.45  1569.96  1570.26
eigval :     1574.78  1574.88  1581.90  1581.93  1586.33  1586.37
eigval :     1591.68  1591.96  1592.35  1592.88  3063.82  3063.98
eigval :     3073.21  3073.29  3073.73  3073.76  3074.19  3074.26
eigval :     3074.40  3074.57  3074.62  3074.67  3079.64  3079.67
eigval :     3081.82  3082.28  3083.37  3083.43  3084.21  3084.24
eigval :     3085.81  3085.87  3086.48  3086.53  3087.74  3087.77
eigval :     3090.71  3090.90  3091.58  3091.87  3092.05  3092.21
eigval :     3094.32  3094.97  3095.25  3095.27  3095.48  3099.76
eigval :     3099.90  3102.40  3102.79  3109.14  3109.41  3113.73
eigval :     3113.94  3116.51  3116.72  3127.39  3128.19  3136.13

   temp. (K)  partition function   enthalpy   heat capacity  entropy
                                   cal/mol     cal/K/mol   cal/K/mol   J/K/mol
 298.15  VIB  0.725E+38            44199.298    268.580    281.498
         ROT  0.215E+09              888.752      2.981     41.113
         INT  0.156E+47            45088.051    271.561    322.611
         TR   0.387E+29             1481.254      4.968     47.025
         TOT                       46569.3045   276.5288   369.6363  1546.5583

       T/K    H(0)-H(T)+PV         H(T)/Eh          T*S/Eh         G(T)/Eh
   ------------------------------------------------------------------------
    298.15    0.742129E-01    0.111255E+01    0.175626E+00    0.936924E+00
   ------------------------------------------------------------------------

         :::::::::::::::::::::::::::::::::::::::::::::::::::::
         ::                  THERMODYNAMIC                  ::
         :::::::::::::::::::::::::::::::::::::::::::::::::::::
         :: total free energy        -230.671353333557 Eh   ::
         ::.................................................::
         :: total energy             -231.608277283722 Eh   ::
         :: zero point energy           1.038337179097 Eh   ::
         :: G(RRHO) w/o ZPVE           -0.101413228931 Eh   ::
         :: G(RRHO) contrib.            0.936923950166 Eh   ::
         :::::::::::::::::::::::::::::::::::::::::::::::::::::

           -------------------------------------------------
          | TOTAL ENERGY             -231.608277283722 Eh   |
          | TOTAL ENTHALPY           -230.495727194084 Eh   |
          | TOTAL FREE ENERGY        -230.671353333557 Eh   |
          | GRADIENT NORM               0.000069281863 Eh/α |
          | HOMO-LUMO GAP               0.072682691513 eV   |
           -------------------------------------------------

 * finished run on 2025/08/22 at 07:17:56.460
