   * xtb version 6.7.1 (edcfbbe) compiled by 'albert@albert-system' on 2024-07-22

   ID    Z sym.   atoms
    1    9 F      1, 7, 85, 90
    2    6 C      2-6, 8, 10-15, 17-22, 24-32, 34-48, 50-55, 57-65, 67-81,
                  83, 84, 86-89
    3    7 N      9, 23, 33, 56, 66, 82
    4    5 B      16, 49
    5    1 H      91-140

          program call               : xtb data2507/toluene/4F-ν-DABNA/4F-ν-DABNA_toluene_S0_crest.xyz --gfn 2 --gbsa toluene --ohess vtight --parallel 40 --molden --ceasefiles --namespace data2507/toluene/4F-ν-DABNA/4F-ν-DABNA_toluene_S0_finalOpt
      * Solvation model:               GBSA
        Solvent                        toluene
        Solvent mass                       9.2140E+01 g/mol
          :  Hamiltonian                  GFN2-xTB          :
 * total energy  :  -231.6879329 Eh     change       -0.8770087E-08 Eh
 * total energy  :  -231.6881530 Eh     change       -0.2200625E-03 Eh
 * total energy  :  -231.6883581 Eh     change       -0.2051337E-03 Eh
 * total energy  :  -231.6884820 Eh     change       -0.1238911E-03 Eh
 * total energy  :  -231.6886871 Eh     change       -0.2051189E-03 Eh
 * total energy  :  -231.6889573 Eh     change       -0.2701308E-03 Eh
 * total energy  :  -231.6891708 Eh     change       -0.2135505E-03 Eh
 * total energy  :  -231.6893119 Eh     change       -0.1410959E-03 Eh
 * total energy  :  -231.6894060 Eh     change       -0.9410265E-04 Eh
 * total energy  :  -231.6894934 Eh     change       -0.8743468E-04 Eh
 * total energy  :  -231.6903548 Eh     change       -0.7135760E-06 Eh
 * total energy  :  -231.6903554 Eh     change       -0.5793456E-06 Eh
 * total energy  :  -231.6903559 Eh     change       -0.4901712E-06 Eh
 * total energy  :  -231.6903564 Eh     change       -0.5486083E-06 Eh
 * total energy  :  -231.6903571 Eh     change       -0.6718960E-06 Eh
 * total energy  :  -231.6903579 Eh     change       -0.7761870E-06 Eh
 * total energy  :  -231.6903585 Eh     change       -0.6605617E-06 Eh
 * total energy  :  -231.6903590 Eh     change       -0.4380201E-06 Eh
 * total energy  :  -231.6903590 Eh     change       -0.4555545E-08 Eh
   *** GEOMETRY OPTIMIZATION CONVERGED AFTER 68 ITERATIONS ***

 final structure:
================
140
 xtb: 6.7.1 (edcfbbe)
F            2.86879281508431       -2.50050463384004       -2.37658415674698
C            2.56379854163268       -3.13552325854489       -1.22686239086064
C            2.50765477849519       -4.51660968936877       -1.21677079174223
C            2.20294872789896       -5.17122607640044       -0.03587940739141
C            1.95491371514224       -4.44980273224735        1.11954796829632
C            2.01962889867160       -3.06990437969017        1.07857766703208
F            1.77757988529623       -2.37018294697013        2.20699688778018
C            2.32140341428405       -2.36790119906336       -0.08847908391399
N            2.39329963232462       -0.95354457579360       -0.12596449671598
C            1.21169703630529       -0.22435299388365       -0.10369703163114
C            0.00009547088630       -0.90070294421405       -0.00192504135986
C           -1.21098548602064       -0.22266041926304        0.09539995201541
C           -1.22052429564045        1.18905798960523        0.19212680476848
C            0.00096574959382        1.82498707263036       -0.01239407191670
C            1.22207308604559        1.18657236503131       -0.21096270743057
B            2.56433773456648        1.88832014238164       -0.50006585015812
C            2.86800586389985        3.34638636409482       -0.90848930914549
C            1.91350025235655        4.27365248041257       -1.34704562352351
C            2.22896765957414        5.57898426081141       -1.65133565905674
C            3.54420783666254        6.00843246872632       -1.52298792366836
C            4.52384709702538        5.12147810102153       -1.14057089920679
C            4.21191804333763        3.78368042805417       -0.85705223774176
N            5.24199106856035        2.91541382310362       -0.53933300703124
C            6.56570445323659        3.44094125198892       -0.42195133887654
C            7.03398851025332        3.84544246237663        0.82097366612141
C            8.32209641894344        4.33688379806429        0.94467334283565
C            9.14292909603333        4.42395148756428       -0.16737387683784
C            8.67432229264453        4.02258804130510       -1.40799748112544
C            7.38764757452291        3.53036302698512       -1.53888701987151
C            5.08459919312200        1.55804473995301       -0.36093101669022
C            6.20545319610857        0.74462815257051       -0.20308314281940
C            6.05104753118709       -0.61961616466016        0.00156637810070
N            7.17791307605368       -1.43172885160577        0.17530419201760
C            7.20191206971067       -2.72259098817693       -0.36375123935733
C            6.60795318089793       -2.98872817102054       -1.59808060689534
C            6.63394252853399       -4.26640145044560       -2.12271570510845
C            7.25154013958730       -5.29771415767923       -1.43363961872393
C            7.84629844498301       -5.03875022739495       -0.20922110943832
C            7.82163441830983       -3.76533578548556        0.32603939675050
C            8.29117535993569       -0.93991744276600        0.86788114804861
C            8.12331590169228       -0.13380222777663        1.99395797824217
C            9.22323644851193        0.35944691440597        2.66833826885144
C           10.50501198437685        0.05161240571730        2.24150836468049
C           10.67784421577568       -0.75521259846077        1.12854149711031
C            9.58365533843380       -1.24495740699101        0.44145849361307
C            4.77931735257215       -1.18589633103510        0.04041693359601
C            3.65903839435366       -0.38550261320385       -0.14836330303697
C            3.78715371830972        1.00467170930799       -0.34171852553378
B           -2.56166794913221        1.89363885248603        0.48021533755212
C           -2.86337247147750        3.35526834421597        0.87777102365573
C           -1.90656424655393        4.28702845320125        1.30161346793232
C           -2.22057718510237        5.59487970244966        1.59638214053481
C           -3.53698445318584        6.02244121420226        1.47397561369285
C           -4.51864731331082        5.13155381870871        1.10624259268079
C           -4.20779331379082        3.79165177022521        0.83153024477104
N           -5.23959551080244        2.92051609420971        0.52778057198429
C           -6.56401002468747        3.44500961321884        0.41374987444721
C           -7.03788108762321        3.84309423834650       -0.82913269873308
C           -8.32660810450785        4.33369121722062       -0.94959880788680
C           -9.14260809406295        4.42593643893301        0.16559051602374
C           -8.66844918039515        4.03088939553725        1.40612970009385
C           -7.38098167522086        3.53989232706314        1.53386845216902
C           -5.08282690322389        1.56198978576250        0.35807380874690
C           -6.20457982645548        0.74739594270539        0.21292523186782
C           -6.05125584442025       -0.61796328920204        0.01523494318523
N           -7.17865817442659       -1.43186242773748       -0.14555333507031
C           -7.19679638639574       -2.72037087525665        0.39958458123012
C           -6.59186854670291       -2.98073839751272        1.62983294730926
C           -6.61220765906667       -4.25615424666374        2.16015806823214
C           -7.23475795267629       -5.29099079093414        1.48089563600179
C           -7.84043880628280       -5.03777251821499        0.26064620644699
C           -7.82161104646969       -3.76662252278700       -0.28022429764258
C           -8.29895644907325       -0.94393959813700       -0.82955441076386
C           -9.58701137797458       -1.24860695771252       -0.38967705949787
C          -10.68822986941089       -0.76273522004626       -1.06821853160797
C          -10.52685919409689        0.04000674166849       -2.18583833725670
C           -9.24953454555586        0.34737596271271       -2.62611634970707
C           -8.14269924027268       -0.14220699147515       -1.96041922073431
C           -4.77958068702250       -1.18393002238814       -0.02908376024232
C           -3.65832794276767       -0.38259933997260        0.14951054540784
C           -3.78532563275936        1.00878795832608        0.33501358052603
N           -2.39285995530324       -0.95117436209364        0.12446686018093
C           -2.32180204415326       -2.36562076940532        0.09092614413890
C           -2.56615533748447       -3.13065254215660        1.23069430609219
F           -2.87161442670165       -2.49303148789650        2.37885781014878
C           -2.51157106943585       -4.51180034912929        1.22350935120941
C           -2.20630422784389       -5.16929288565492        0.04435043994650
C           -1.95613578477244       -4.45054598128506       -1.11227156144299
C           -2.01947761816574       -3.07051000287778       -1.07426832398031
F           -1.77545428358924       -2.37348960853169       -2.20395268489290
H            2.70285059254651       -5.05729448656379       -2.12842184152561
H            2.15756961210142       -6.24759918258700       -0.01569788423488
H            1.71644491759944       -4.93672393749870        2.05126196230039
H           -0.00031387856076       -1.98025794679708        0.00240521034042
H            0.00151489894681        2.90072855356340       -0.01715053038557
H            0.89361554679146        3.94487562923100       -1.47067494596740
H            1.46246540138388        6.26430710806271       -1.98353729958275
H            3.80673592988133        7.03449796972989       -1.73904041384277
H            5.54568671228733        5.46314767834060       -1.07137484573559
H            6.38511669761643        3.77059539204031        1.68124230558290
H            8.68547937756878        4.64968028882846        1.91217713999915
H           10.14793005544753        4.80580105978400       -0.06791313766783
H            9.31241538759696        4.09062853769007       -2.27664942961169
H            7.01136711239925        3.21265059542834       -2.50046534466114
H            7.20082442037971        1.15730346394967       -0.24071791438309
H            6.12903903565013       -2.18733347736227       -2.14180071561079
H            6.17517877037004       -4.45365377579604       -3.08286485858291
H            7.27174226848640       -6.29419156931768       -1.84855769833660
H            8.32757628941623       -5.83611787923687        0.33839313302161
H            8.28045832250683       -3.56797288490161        1.28408830058904
H            7.12473213733263        0.09967462373170        2.33335803257738
H            9.07745168634088        0.98245775963328        3.53883480238295
H           11.36245616031585        0.43620204522247        2.77294173180993
H           11.67307326695118       -0.99813261515439        0.78528972606088
H            9.72182197657506       -1.86455688369672       -0.43284902291083
H            4.69025407163928       -2.24484728114524        0.23014085008579
H           -0.88567250799873        3.96016695710728        1.42146512250248
H           -1.45205827593003        6.28344348692961        1.91702410104556
H           -3.79865900109324        7.05014437301893        1.68314130098942
H           -5.54123391015217        5.47188398229122        1.04165468298608
H           -6.39272029569469        3.76406773881652       -1.69183864650883
H           -8.69429238171429        4.64169735166748       -1.91700494567251
H          -10.14817875374085        4.80692938598312        0.06862029694896
H           -9.30276222328649        4.10305051050742        2.27721030103826
H           -7.00031383114346        3.22730887182865        2.49540078347667
H           -7.19972853749547        1.16015041644113        0.25478007681281
H           -6.10880155443077       -2.17679996118330        2.16603150449901
H           -6.14512006999821       -4.43878141350432        3.11717271864297
H           -7.25037547662589       -6.28569722269325        1.90022490443418
H           -8.32581738917207       -5.83785964339807       -0.27932050608904
H           -8.28909003348160       -3.57374922587859       -1.23499609871889
H           -9.71624057869964       -1.86483279874327        0.48836814023168
H          -11.67986170331665       -1.00539439985037       -0.71454360543663
H          -11.38975865384786        0.42174690915603       -2.71045143851139
H           -9.11273970317772        0.96715998176373       -3.50036669479952
H           -7.14767630266724        0.09090087526836       -2.31037568794805
H           -4.69156540330824       -2.24374520107337       -0.21432410704919
H           -2.70829794867129       -5.05037100360996        2.13606251588683
H           -2.16216819986833       -6.24575684643162        0.02646151339899
H           -1.71716501496607       -4.93962690036259       -2.04271835533544

          :  Hamiltonian                  GFN2-xTB          :
         :: gradient norm              0.000047247343 Eh/a0 ::
         :: HOMO-LUMO gap              2.112282240337 eV    ::
         :: SCC energy              -235.655217609934 Eh    ::
         :: -> dispersion             -0.226683809616 Eh    ::
         :: -> Gsolv                  -0.089109674890 Eh    ::
         :: repulsion energy           3.964858625977 Eh    ::

    * Orbital Energies and Occupations

         #    Occupation            Energy/Eh            Energy/eV
      -------------------------------------------------------------
         1        2.0000           -0.8375883             -22.7919
       ...           ...                  ...                  ...
       201        2.0000           -0.3976791             -10.8214
       202        2.0000           -0.3940595             -10.7229
       203        2.0000           -0.3911944             -10.6449
       204        2.0000           -0.3890275             -10.5860
       205        2.0000           -0.3822006             -10.4002
       206        2.0000           -0.3775653             -10.2741
       207        2.0000           -0.3722782             -10.1302
       208        2.0000           -0.3683761             -10.0240
       209        2.0000           -0.3603792              -9.8064
       210        2.0000           -0.3508334              -9.5467
       211        2.0000           -0.3482355              -9.4760
       212        2.0000           -0.3468431              -9.4381
       213        2.0000           -0.3417977              -9.3008 (HOMO)
       214                         -0.2641727              -7.1885 (LUMO)
       215                         -0.2639819              -7.1833
       216                         -0.2593247              -7.0566
       217                         -0.2577184              -7.0129
       218                         -0.2573924              -7.0040
       219                         -0.2465963              -6.7102
       220                         -0.2332301              -6.3465
       221                         -0.2332209              -6.3463
       222                         -0.2323366              -6.3222
       223                         -0.2323250              -6.3219
       224                         -0.2297996              -6.2532
       ...                                ...                  ...
       410                          0.7303739              19.8745
      -------------------------------------------------------------
                  HL-Gap            0.0776249 Eh            2.1123 eV

     #   Z          covCN         q      C6AA      α(0)
     1   9 F        0.787    -0.220    11.446     3.996
     2   6 C        2.791     0.159    24.551     8.117
     3   6 C        2.915    -0.053    29.315     8.878
     4   6 C        2.927    -0.028    28.696     8.785
     5   6 C        2.915    -0.055    29.373     8.887
     6   6 C        2.791     0.157    24.593     8.123
     7   9 F        0.787    -0.223    11.471     4.001
     8   6 C        2.925     0.043    27.030     8.526
     9   7 N        2.753    -0.049    22.188     6.996
    10   6 C        2.927     0.065    26.554     8.451
    11   6 C        2.922    -0.082    30.051     8.990
    12   6 C        2.927     0.065    26.554     8.451
    13   6 C        2.884    -0.093    30.335     9.029
    14   6 C        2.931    -0.039    28.958     8.825
    15   6 C        2.884    -0.093    30.335     9.030
    16   5 B        2.724     0.190    18.530     7.213
    17   6 C        2.886    -0.084    30.103     8.995
    18   6 C        2.923    -0.035    28.877     8.812
    19   6 C        2.914    -0.045    29.113     8.848
    20   6 C        2.919    -0.031    28.776     8.797
    21   6 C        2.920    -0.058    29.430     8.896
    22   6 C        2.925     0.060    26.661     8.468
    23   7 N        2.755    -0.055    22.294     7.013
    24   6 C        2.933     0.068    26.473     8.438
    25   6 C        2.922    -0.037    28.928     8.820
    26   6 C        2.920    -0.027    28.678     8.782
    27   6 C        2.920    -0.030    28.754     8.793
    28   6 C        2.920    -0.028    28.700     8.785
    29   6 C        2.921    -0.037    28.930     8.820
    30   6 C        2.927     0.062    26.600     8.458
    31   6 C        2.922    -0.089    30.244     9.018
    32   6 C        2.923     0.067    26.500     8.442
    33   7 N        2.754    -0.083    22.864     7.102
    34   6 C        2.923     0.066    26.521     8.445
    35   6 C        2.922    -0.049    29.214     8.864
    36   6 C        2.919    -0.032    28.792     8.799
    37   6 C        2.919    -0.041    29.019     8.834
    38   6 C        2.919    -0.031    28.780     8.797
    39   6 C        2.922    -0.049    29.229     8.866
    40   6 C        2.924     0.067    26.511     8.444
    41   6 C        2.922    -0.048    29.190     8.860
    42   6 C        2.919    -0.031    28.765     8.795
    43   6 C        2.919    -0.040    28.988     8.829
    44   6 C        2.919    -0.031    28.768     8.795
    45   6 C        2.922    -0.048    29.204     8.862
    46   6 C        2.921    -0.088    30.206     9.013
    47   6 C        2.927     0.065    26.548     8.450
    48   6 C        2.897    -0.110    30.790     9.098
    49   5 B        2.724     0.190    18.531     7.213
    50   6 C        2.886    -0.084    30.103     8.995
    51   6 C        2.923    -0.035    28.878     8.813
    52   6 C        2.914    -0.045    29.113     8.848
    53   6 C        2.919    -0.031    28.777     8.797
    54   6 C        2.920    -0.058    29.430     8.896
    55   6 C        2.925     0.060    26.661     8.468
    56   7 N        2.755    -0.054    22.294     7.013
    57   6 C        2.933     0.068    26.473     8.438
    58   6 C        2.922    -0.037    28.927     8.820
    59   6 C        2.920    -0.027    28.678     8.782
    60   6 C        2.920    -0.030    28.754     8.793
    61   6 C        2.920    -0.028    28.700     8.785
    62   6 C        2.921    -0.037    28.930     8.820
    63   6 C        2.927     0.062    26.601     8.458
    64   6 C        2.922    -0.090    30.245     9.019
    65   6 C        2.923     0.067    26.500     8.442
    66   7 N        2.754    -0.083    22.863     7.102
    67   6 C        2.923     0.066    26.522     8.445
    68   6 C        2.922    -0.049    29.213     8.863
    69   6 C        2.919    -0.032    28.792     8.799
    70   6 C        2.919    -0.041    29.019     8.834
    71   6 C        2.919    -0.031    28.780     8.797
    72   6 C        2.922    -0.049    29.228     8.866
    73   6 C        2.924     0.067    26.511     8.444
    74   6 C        2.922    -0.048    29.204     8.862
    75   6 C        2.919    -0.031    28.768     8.795
    76   6 C        2.919    -0.040    28.988     8.829
    77   6 C        2.919    -0.031    28.765     8.795
    78   6 C        2.922    -0.048    29.189     8.860
    79   6 C        2.921    -0.088    30.207     9.013
    80   6 C        2.927     0.065    26.548     8.450
    81   6 C        2.897    -0.110    30.790     9.098
    82   7 N        2.753    -0.049    22.186     6.996
    83   6 C        2.925     0.043    27.030     8.526
    84   6 C        2.791     0.159    24.551     8.117
    85   9 F        0.787    -0.220    11.446     3.996
    86   6 C        2.915    -0.053    29.315     8.878
    87   6 C        2.926    -0.028    28.697     8.785
    88   6 C        2.915    -0.055    29.373     8.887
    89   6 C        2.791     0.157    24.594     8.124
    90   9 F        0.787    -0.223    11.472     4.001
    91   1 H        0.926     0.087     1.913     2.163
    92   1 H        0.926     0.086     1.918     2.166
    93   1 H        0.926     0.085     1.927     2.171
    94   1 H        0.926    -0.001     3.079     2.744
    95   1 H        0.926     0.044     2.390     2.418
    96   1 H        0.926     0.034     2.529     2.487
    97   1 H        0.926     0.021     2.725     2.581
    98   1 H        0.926     0.023     2.687     2.563
    99   1 H        0.926     0.022     2.707     2.573
   100   1 H        0.926     0.042     2.424     2.435
   101   1 H        0.926     0.044     2.398     2.422
   102   1 H        0.926     0.043     2.409     2.427
   103   1 H        0.926     0.043     2.408     2.427
   104   1 H        0.926     0.042     2.422     2.434
   105   1 H        0.926     0.024     2.676     2.558
   106   1 H        0.926     0.030     2.581     2.513
   107   1 H        0.926     0.033     2.543     2.494
   108   1 H        0.926     0.034     2.537     2.491
   109   1 H        0.926     0.034     2.529     2.487
   110   1 H        0.926     0.030     2.580     2.512
   111   1 H        0.926     0.030     2.581     2.512
   112   1 H        0.926     0.034     2.533     2.489
   113   1 H        0.926     0.033     2.546     2.495
   114   1 H        0.926     0.034     2.534     2.489
   115   1 H        0.926     0.031     2.578     2.511
   116   1 H        0.926     0.012     2.855     2.642
   117   1 H        0.926     0.034     2.528     2.486
   118   1 H        0.926     0.021     2.725     2.581
   119   1 H        0.926     0.023     2.687     2.563
   120   1 H        0.926     0.022     2.707     2.573
   121   1 H        0.926     0.042     2.424     2.435
   122   1 H        0.926     0.044     2.398     2.422
   123   1 H        0.926     0.043     2.409     2.427
   124   1 H        0.926     0.043     2.409     2.427
   125   1 H        0.926     0.042     2.422     2.434
   126   1 H        0.926     0.024     2.675     2.558
   127   1 H        0.926     0.030     2.580     2.512
   128   1 H        0.926     0.033     2.542     2.493
   129   1 H        0.926     0.034     2.537     2.491
   130   1 H        0.926     0.034     2.528     2.487
   131   1 H        0.926     0.030     2.580     2.512
   132   1 H        0.926     0.031     2.578     2.511
   133   1 H        0.926     0.034     2.534     2.489
   134   1 H        0.926     0.033     2.546     2.495
   135   1 H        0.926     0.034     2.533     2.489
   136   1 H        0.926     0.030     2.581     2.512
   137   1 H        0.926     0.012     2.855     2.642
   138   1 H        0.926     0.086     1.913     2.163
   139   1 H        0.926     0.086     1.919     2.166
   140   1 H        0.926     0.085     1.927     2.171

molecular dipole:
                 x           y           z       tot (Debye)
 q only:       -0.004      -1.959       0.005
   full:       -0.004      -2.104       0.007       5.347

 projected vibrational frequencies (cm⁻¹)
eigval :       -0.00     0.00     0.00     0.00     0.00     0.00
eigval :        7.74     9.24    14.38    15.76    16.49    17.09
eigval :       19.49    24.38    25.10    25.68    28.13    31.61
eigval :       34.21    38.03    38.39    43.22    45.89    48.29
eigval :       55.02    58.44    59.52    62.09    65.41    67.06
eigval :       68.38    74.38    75.26    76.03    79.67    88.24
eigval :       89.14    93.99   100.90   113.77   115.04   119.50
eigval :      133.76   146.01   160.20   164.40   169.57   179.33
eigval :      180.58   186.23   192.56   197.65   198.56   212.46
eigval :      215.99   224.52   231.01   232.34   232.58   236.19
eigval :      239.92   240.53   247.92   257.89   259.06   267.25
eigval :      274.90   280.17   311.25   314.06   315.80   320.59
eigval :      324.11   340.92   342.12   348.57   356.19   369.87
eigval :      374.33   376.47   377.17   378.27   379.51   384.37
eigval :      384.85   387.52   390.64   391.77   395.24   403.01
eigval :      405.09   413.58   424.16   426.75   436.67   454.37
eigval :      469.37   472.72   472.81   475.17   480.35   481.75
eigval :      489.30   491.99   494.87   495.53   496.26   497.18
eigval :      504.57   522.76   529.78   531.87   534.86   537.80
eigval :      547.15   553.84   554.13   556.21   556.49   564.00
eigval :      568.04   577.59   579.41   583.70   585.33   586.34
eigval :      588.88   589.42   590.44   595.58   596.74   597.32
eigval :      606.66   611.27   613.17   622.23   622.84   631.06
eigval :      638.12   642.41   647.72   658.63   661.13   661.58
eigval :      665.89   669.85   672.31   677.61   679.02   679.24
eigval :      681.65   689.66   704.96   707.21   711.48   712.33
eigval :      722.26   738.03   744.88   747.57   755.30   755.88
eigval :      757.65   760.72   767.54   770.79   774.76   776.06
eigval :      794.38   807.89   810.69   815.06   815.31   817.42
eigval :      840.71   840.89   855.47   863.09   867.33   873.11
eigval :      874.80   876.04   876.59   879.14   879.69   880.53
eigval :      882.44   886.13   888.95   890.39   890.52   890.63
eigval :      892.19   892.45   895.74   898.36   902.22   903.18
eigval :      904.12   911.14   912.04   915.53   916.57   916.86
eigval :      917.63   921.43   922.68   925.70   926.01   926.30
eigval :      927.69   927.95   928.15   928.87   928.97   930.93
eigval :      931.63   933.27   933.39   936.82   937.01   963.80
eigval :      976.77   978.18   978.54   980.20   992.29   997.11
eigval :     1004.47  1004.54  1049.96  1067.56  1072.22  1076.93
eigval :     1078.65  1079.22  1082.49  1082.73  1083.70  1084.16
eigval :     1094.21  1101.50  1102.11  1106.58  1108.73  1113.69
eigval :     1113.89  1118.97  1120.34  1120.53  1124.00  1124.17
eigval :     1146.92  1154.44  1159.82  1161.42  1176.53  1176.77
eigval :     1177.40  1177.53  1178.35  1179.26  1179.47  1179.75
eigval :     1182.53  1185.09  1187.29  1187.62  1192.61  1194.65
eigval :     1195.12  1196.56  1200.83  1201.16  1204.95  1205.23
eigval :     1214.23  1215.90  1233.96  1240.46  1242.90  1250.55
eigval :     1252.17  1256.64  1264.59  1271.02  1273.84  1274.25
eigval :     1275.71  1277.71  1278.10  1282.92  1285.60  1286.69
eigval :     1287.09  1292.45  1296.32  1300.28  1302.21  1304.20
eigval :     1306.11  1307.84  1307.85  1308.41  1315.27  1315.93
eigval :     1318.20  1318.30  1324.18  1325.50  1325.57  1331.24
eigval :     1334.87  1334.89  1354.63  1355.23  1370.87  1383.80
eigval :     1413.07  1418.65  1423.75  1424.48  1426.80  1431.55
eigval :     1431.58  1433.74  1434.32  1436.27  1436.79  1438.67
eigval :     1440.11  1446.90  1450.55  1452.33  1461.53  1462.63
eigval :     1466.51  1468.82  1470.69  1471.71  1473.12  1473.97
eigval :     1474.12  1477.34  1504.89  1534.98  1538.37  1549.59
eigval :     1550.42  1557.96  1564.38  1565.78  1565.92  1574.99
eigval :     1575.07  1575.39  1579.49  1579.55  1582.99  1583.00
eigval :     1587.00  1587.09  1591.78  1591.80  1591.96  1592.25
eigval :     1594.59  1594.81  1599.01  1599.02  3063.09  3063.13
eigval :     3071.31  3071.41  3071.62  3072.03  3072.19  3072.66
eigval :     3072.87  3072.90  3073.39  3073.51  3077.62  3077.74
eigval :     3080.04  3080.08  3081.85  3082.23  3082.95  3083.50
eigval :     3084.99  3085.32  3085.35  3085.83  3085.91  3086.12
eigval :     3086.20  3089.11  3089.35  3089.72  3090.09  3090.47
eigval :     3090.54  3094.03  3094.17  3094.73  3095.00  3098.18
eigval :     3098.24  3100.68  3101.59  3107.73  3107.94  3112.07
eigval :     3112.22  3118.21  3118.56  3124.62  3125.14  3137.72

   temp. (K)  partition function   enthalpy   heat capacity  entropy
                                   cal/mol     cal/K/mol   cal/K/mol   J/K/mol
 298.15  VIB  0.138E+37            43788.118    267.105    276.689
         ROT  0.431E+09              888.752      2.981     42.493
         INT  0.594E+45            44676.870    270.085    319.182
         TR   0.387E+29             1481.254      4.968     47.025
         TOT                       46158.1242   275.0536   366.2069  1532.2097

       T/K    H(0)-H(T)+PV         H(T)/Eh          T*S/Eh         G(T)/Eh
   ------------------------------------------------------------------------
    298.15    0.735577E-01    0.111777E+01    0.173997E+00    0.943770E+00
   ------------------------------------------------------------------------

         :::::::::::::::::::::::::::::::::::::::::::::::::::::
         ::                  THERMODYNAMIC                  ::
         :::::::::::::::::::::::::::::::::::::::::::::::::::::
         :: total free energy        -230.746588946681 Eh   ::
         ::.................................................::
         :: total energy             -231.690358985126 Eh   ::
         :: zero point energy           1.044209107767 Eh   ::
         :: G(RRHO) w/o ZPVE           -0.100439069322 Eh   ::
         :: G(RRHO) contrib.            0.943770038445 Eh   ::
         :::::::::::::::::::::::::::::::::::::::::::::::::::::

           -------------------------------------------------
          | TOTAL ENERGY             -231.690358985126 Eh   |
          | TOTAL ENTHALPY           -230.572592224301 Eh   |
          | TOTAL FREE ENERGY        -230.746588946681 Eh   |
          | GRADIENT NORM               0.000047245527 Eh/α |
          | HOMO-LUMO GAP               2.112282219585 eV   |
           -------------------------------------------------

 * finished run on 2025/08/22 at 06:35:27.161
