   * xtb version 6.7.1 (edcfbbe) compiled by 'albert@albert-system' on 2024-07-22

   ID    Z sym.   atoms
    1    6 C      1-4, 6-19, 21-30, 32-40
    2    7 N      5, 20, 31
    3    1 H      41-63

          program call               : xtb data2507/toluene/SABIQ/SABIQ_toluene_S0_finalOpt.xtbopt.xyz --gfn 2 --uhf 2 --gbsa toluene --ohess vtight --parallel 40 --molden --ceasefiles --namespace data2507/toluene/SABIQ/SABIQ_toluene_T1_preOpt
      * Solvation model:               GBSA
        Solvent                        toluene
        Solvent mass                       9.2140E+01 g/mol
          :  Hamiltonian                  GFN2-xTB          :
 * total energy  :   -99.7586794 Eh     change       -0.6092534E-08 Eh
 * total energy  :   -99.7623067 Eh     change       -0.3627363E-02 Eh
 * total energy  :   -99.7636304 Eh     change       -0.1323637E-02 Eh
 * total energy  :   -99.7637609 Eh     change       -0.1305770E-03 Eh
 * total energy  :   -99.7638100 Eh     change       -0.4907815E-04 Eh
 * total energy  :   -99.7638194 Eh     change       -0.9361304E-05 Eh
 * total energy  :   -99.7638267 Eh     change       -0.7355683E-05 Eh
 * total energy  :   -99.7638333 Eh     change       -0.6562117E-05 Eh
 * total energy  :   -99.7638393 Eh     change       -0.6042474E-05 Eh
 * total energy  :   -99.7638453 Eh     change       -0.5938299E-05 Eh
 * total energy  :   -99.7638506 Eh     change       -0.5363591E-05 Eh
 * total energy  :   -99.7638544 Eh     change       -0.3774677E-05 Eh
 * total energy  :   -99.7638559 Eh     change       -0.1515373E-05 Eh
 * total energy  :   -99.7638562 Eh     change       -0.2689965E-06 Eh
 * total energy  :   -99.7638563 Eh     change       -0.6801862E-07 Eh
   *** GEOMETRY OPTIMIZATION CONVERGED AFTER 15 ITERATIONS ***

 final structure:
================
63
 xtb: 6.7.1 (edcfbbe)
C           -3.65448618019851        5.38450417084749       -0.02176875804680
C           -4.57394922418644        4.34829864958036        0.01028074408170
C           -4.13970346320986        3.03410246155850        0.01467291994815
C           -2.77771952738948        2.76100214289237       -0.01203495923084
N           -2.31464810147114        1.40994859945312       -0.00847697529686
C           -2.13267054423633        0.76350457197466       -1.21396820608187
C           -2.50299782593209        1.38344829657401       -2.41383609873848
C           -2.35775640683831        0.72859974159252       -3.61716121703817
C           -1.84374734884011       -0.56043359130894       -3.65623415437018
C           -1.46353428550957       -1.17625117052938       -2.47981378503283
C           -1.60066552494471       -0.53343676009367       -1.25610267944123
C           -1.09238443476247       -1.18728953497955       -0.00368273206359
C           -1.25493828814910       -2.69089241201612       -0.00400399839724
C           -2.42116411986850       -3.42014638636131       -0.00690183464126
C           -2.33691860213706       -4.80927474906509       -0.00636517041823
C           -1.10328891877738       -5.44607546353494       -0.00316911784496
C            0.07656861829661       -4.72191017695064       -0.00021138208888
C           -0.00294718546230       -3.33330136268442       -0.00050771216574
C            1.02936117774522       -2.33497274214119        0.00283652286934
N            2.34623600748647       -2.43647491214107        0.00722246119872
C            3.11253688096916       -1.34083782842144        0.01108480231006
C            4.49289933243433       -1.40554128235014        0.01698071170122
C            5.29560902834840       -0.25044420981278        0.02199042622878
C            6.70236436917163       -0.31934915689944        0.02913267141409
C            7.46356020636721        0.82189405144950        0.03453336355471
C            6.85079127413846        2.07991174451059        0.03274282002988
C            5.48187707111502        2.18114126916959        0.02552459353044
C            4.67339627437099        1.03084434344923        0.02022811048518
C            3.26520035136248        1.10529375099791        0.01367062807792
C            2.47877676988368       -0.02158534510883        0.00952698390940
N            1.13000435293489        0.03996552413652        0.00435952232579
C            0.43232598334264       -1.05326032556542        0.00156911074190
C           -1.60921864672882       -0.53260102810668        1.24479946687359
C           -1.48031044513102       -1.17495153841673        2.46963224854411
C           -1.86399021648739       -0.55694625227725        3.64378837252144
C           -2.37122281969040        0.73464029929130        3.60145195304646
C           -2.50888834415951        1.38890282233146        2.39689672171928
C           -2.13863195728526        0.76539923974872        1.19887547564999
C           -1.85392334947497        3.79672277834565       -0.04353939971110
C           -2.29722392063874        5.10841362776590       -0.04854900983601
H           -3.99623936708484        6.40848621114213       -0.02557613595392
H           -5.63191439979656        4.56211442887375        0.03108020939492
H           -4.84615694981099        2.21754479300124        0.03895619985306
H           -2.90357803759907        2.38477633010909       -2.39306016026891
H           -2.64667136857675        1.22428636279665       -4.53150435449739
H           -1.73134400078583       -1.07633268927605       -4.59711081275432
H           -1.04798072376040       -2.17333387034845       -2.50215409358887
H           -3.38132430938829       -2.92540424768786       -0.00937230033611
H           -3.24228066844542       -5.39730340822548       -0.00842459263626
H           -1.06287431694707       -6.52563260772831       -0.00287112210310
H            1.03879784227490       -5.21066585676066        0.00236668277524
H            4.95930975851284       -2.37982978287036        0.01810329514899
H            7.17287902298695       -1.29262116984149        0.03041396561386
H            8.54203881529719        0.75425742563193        0.04018255596710
H            7.46149451216881        2.97124872041540        0.03702441682004
H            5.00408199474727        3.15084174043955        0.02407168853529
H            2.78313839903489        2.07193694471890        0.01252257067275
H           -1.06804855665808       -2.17331838628107        2.49486190820416
H           -1.75821263263251       -1.07265978811159        4.58553323931632
H           -2.66038559451305        1.23301157417904        4.51426016852320
H           -2.90295248954962        2.39273597159599        2.37411183564613
H           -0.79909854788604        3.56615589272503       -0.06408459776579
H           -1.57991203242920        5.91483518959796       -0.07317196568219

          :  Hamiltonian                  GFN2-xTB          :
         :: gradient norm              0.000047272867 Eh/a0 ::
         :: HOMO-LUMO gap              1.212706262963 eV    ::
         :: SCC energy              -101.621869687505 Eh    ::
         :: -> dispersion             -0.093584493442 Eh    ::
         :: -> Gsolv                  -0.044768690834 Eh    ::
         :: repulsion energy           1.858013322803 Eh    ::

    * Orbital Energies and Occupations

         #    Occupation            Energy/Eh            Energy/eV
      -------------------------------------------------------------
         1        2.0000           -0.6858115             -18.6619
       ...           ...                  ...                  ...
        82        2.0000           -0.4197036             -11.4207
        83        2.0000           -0.4188163             -11.3966
        84        2.0000           -0.4174650             -11.3598
        85        2.0000           -0.4171361             -11.3509
        86        2.0000           -0.4150062             -11.2929
        87        2.0000           -0.4119026             -11.2084
        88        2.0000           -0.4082551             -11.1092
        89        2.0000           -0.4055846             -11.0365
        90        2.0000           -0.3915711             -10.6552
        91        1.9999           -0.3672531              -9.9935
        92        1.9994           -0.3658176              -9.9544
        93        1.0007           -0.3517517              -9.5717
        94        1.0000           -0.3017777              -8.2118 (HOMO)
        95                         -0.2572119              -6.9991 (LUMO)
        96                         -0.2429620              -6.6113
        97                         -0.2419813              -6.5846
        98                         -0.2397402              -6.5237
        99                         -0.2353421              -6.4040
       100                         -0.2351914              -6.3999
       101                         -0.2320033              -6.3131
       102                         -0.2280300              -6.2050
       103                         -0.2145882              -5.8392
       104                         -0.2067879              -5.6270
       105                         -0.1771289              -4.8199
       ...                                ...                  ...
       183                          0.7222293              19.6529
      -------------------------------------------------------------
                  HL-Gap            0.0445657 Eh            1.2127 eV

     #   Z          covCN         q      C6AA      α(0)
     1   6 C        2.919    -0.027    28.673     8.781
     2   6 C        2.920    -0.025    28.634     8.775
     3   6 C        2.920    -0.036    28.900     8.816
     4   6 C        2.929     0.062    26.611     8.460
     5   7 N        2.754    -0.039    21.989     6.965
     6   6 C        2.928     0.063    26.578     8.455
     7   6 C        2.922    -0.052    29.299     8.876
     8   6 C        2.919    -0.028    28.699     8.785
     9   6 C        2.917    -0.036    28.899     8.815
    10   6 C        2.923    -0.035    28.872     8.812
    11   6 C        2.985    -0.003    28.103     8.696
    12   6 C        3.948     0.019    20.196     6.386
    13   6 C        3.054    -0.009    28.201     8.709
    14   6 C        2.913    -0.032    28.804     8.801
    15   6 C        2.922    -0.035    28.873     8.812
    16   6 C        2.920    -0.031    28.766     8.795
    17   6 C        2.912    -0.034    28.857     8.809
    18   6 C        3.033    -0.010    28.233     8.715
    19   6 C        2.992     0.068    26.459     8.438
    20   7 N        1.845    -0.244    27.208     7.730
    21   6 C        2.942     0.085    26.116     8.381
    22   6 C        2.919    -0.077    29.919     8.970
    23   6 C        2.982     0.007    27.851     8.657
    24   6 C        2.919    -0.044    29.094     8.845
    25   6 C        2.915    -0.035    28.875     8.812
    26   6 C        2.915    -0.037    28.914     8.818
    27   6 C        2.919    -0.043    29.075     8.842
    28   6 C        2.983     0.006    27.892     8.663
    29   6 C        2.918    -0.073    29.818     8.954
    30   6 C        2.953     0.082    26.160     8.389
    31   7 N        1.842    -0.247    27.303     7.744
    32   6 C        3.027     0.093    25.908     8.349
    33   6 C        2.985    -0.003    28.104     8.696
    34   6 C        2.923    -0.035    28.873     8.812
    35   6 C        2.917    -0.036    28.900     8.815
    36   6 C        2.919    -0.028    28.700     8.785
    37   6 C        2.922    -0.052    29.301     8.877
    38   6 C        2.928     0.063    26.578     8.455
    39   6 C        2.921    -0.035    28.865     8.810
    40   6 C        2.920    -0.025    28.617     8.772
    41   1 H        0.926     0.049     2.335     2.390
    42   1 H        0.926     0.050     2.318     2.381
    43   1 H        0.926     0.048     2.348     2.396
    44   1 H        0.926     0.045     2.383     2.414
    45   1 H        0.926     0.046     2.365     2.405
    46   1 H        0.926     0.042     2.427     2.436
    47   1 H        0.926     0.031     2.568     2.506
    48   1 H        0.926     0.034     2.528     2.486
    49   1 H        0.926     0.040     2.452     2.449
    50   1 H        0.926     0.039     2.457     2.451
    51   1 H        0.926     0.037     2.489     2.467
    52   1 H        0.926     0.036     2.505     2.475
    53   1 H        0.926     0.025     2.653     2.547
    54   1 H        0.926     0.027     2.631     2.537
    55   1 H        0.926     0.027     2.629     2.535
    56   1 H        0.926     0.027     2.633     2.537
    57   1 H        0.926     0.038     2.471     2.458
    58   1 H        0.926     0.031     2.568     2.506
    59   1 H        0.926     0.042     2.428     2.437
    60   1 H        0.926     0.046     2.365     2.405
    61   1 H        0.926     0.045     2.382     2.413
    62   1 H        0.926     0.045     2.383     2.414
    63   1 H        0.926     0.049     2.337     2.391

molecular dipole:
                 x           y           z       tot (Debye)
 q only:       -3.097       1.543      -0.013
   full:       -2.980       1.426      -0.012       8.398

 projected vibrational frequencies (cm⁻¹)
eigval :       -0.00    -0.00    -0.00     0.00     0.00     0.00
eigval :        9.70    14.98    19.47    36.42    50.64    51.40
eigval :       54.93    64.92    73.37    98.22   110.56   111.66
eigval :      154.52   158.62   166.65   175.50   198.65   236.23
eigval :      247.54   248.72   250.87   251.80   288.46   303.55
eigval :      311.21   362.37   365.70   374.64   378.88   393.65
eigval :      401.18   414.33   420.82   431.76   449.00   450.89
eigval :      462.40   475.09   481.15   498.16   504.18   507.04
eigval :      511.24   516.73   558.36   575.51   577.53   590.95
eigval :      592.04   592.48   595.49   621.16   621.62   641.07
eigval :      667.58   671.78   674.64   685.59   688.28   699.96
eigval :      702.80   723.09   727.33   753.61   763.66   765.35
eigval :      770.80   772.76   773.53   775.89   811.41   842.13
eigval :      864.64   868.27   869.03   871.30   873.75   877.40
eigval :      891.27   892.88   900.90   905.23   908.26   908.30
eigval :      911.25   912.29   916.55   917.93   920.77   921.16
eigval :      921.53   930.94   935.73   942.85   994.54   995.31
eigval :     1067.70  1077.90  1081.94  1085.00  1100.41  1101.28
eigval :     1113.70  1126.00  1134.69  1142.69  1150.84  1166.96
eigval :     1173.59  1177.07  1178.77  1179.58  1180.55  1183.78
eigval :     1185.76  1199.63  1208.25  1219.27  1230.77  1234.87
eigval :     1251.24  1253.09  1257.69  1267.68  1271.14  1272.83
eigval :     1275.11  1307.22  1313.89  1319.12  1323.78  1331.42
eigval :     1336.83  1337.25  1355.50  1374.51  1408.05  1417.42
eigval :     1427.41  1429.99  1431.12  1434.22  1443.51  1451.91
eigval :     1453.07  1464.46  1480.30  1482.62  1520.33  1543.68
eigval :     1555.40  1556.31  1570.07  1578.99  1581.05  1582.03
eigval :     1586.96  1588.66  1589.63  1593.63  3062.36  3063.95
eigval :     3072.36  3075.60  3076.50  3077.31  3079.61  3081.73
eigval :     3081.99  3082.85  3084.46  3084.52  3087.20  3087.21
eigval :     3090.68  3090.90  3094.95  3097.21  3098.61  3098.81
eigval :     3102.00  3106.75  3107.34

   temp. (K)  partition function   enthalpy   heat capacity  entropy
                                   cal/mol     cal/K/mol   cal/K/mol   J/K/mol
 298.15  VIB  0.536E+13            17109.417    113.115    104.707
         ROT  0.383E+08              888.752      2.981     37.682
         INT  0.205E+21            17998.169    116.095    142.389
         TR   0.111E+29             1481.254      4.968     44.552
         TOT                       19479.4233   121.0636   186.9408   782.1605

       T/K    H(0)-H(T)+PV         H(T)/Eh          T*S/Eh         G(T)/Eh
   ------------------------------------------------------------------------
    298.15    0.310424E-01    0.506909E+00    0.888216E-01    0.418088E+00
   ------------------------------------------------------------------------

         :::::::::::::::::::::::::::::::::::::::::::::::::::::
         ::                  THERMODYNAMIC                  ::
         :::::::::::::::::::::::::::::::::::::::::::::::::::::
         :: total free energy         -99.345768850506 Eh   ::
         ::.................................................::
         :: total energy              -99.763856362846 Eh   ::
         :: zero point energy           0.475866701851 Eh   ::
         :: G(RRHO) w/o ZPVE           -0.057779189511 Eh   ::
         :: G(RRHO) contrib.            0.418087512340 Eh   ::
         :::::::::::::::::::::::::::::::::::::::::::::::::::::

           -------------------------------------------------
          | TOTAL ENERGY              -99.763856362846 Eh   |
          | TOTAL ENTHALPY            -99.256947224012 Eh   |
          | TOTAL FREE ENERGY         -99.345768850506 Eh   |
          | GRADIENT NORM               0.000047818268 Eh/α |
          | HOMO-LUMO GAP               1.212695638667 eV   |
           -------------------------------------------------

 * finished run on 2025/09/04 at 12:36:45.850
