   * xtb version 6.7.1 (edcfbbe) compiled by 'albert@albert-system' on 2024-07-22

   ID    Z sym.   atoms
    1    6 C      1-4, 6-19, 21-30, 32-40
    2    7 N      5, 20, 31
    3    1 H      41-63

          program call               : xtb data2507/toluene/SABIQ/SABIQ.xyz --gfn 2 --gbsa toluene --ohess vtight --parallel 40 --molden --ceasefiles --namespace data2507/toluene/SABIQ/SABIQ_toluene_S0_preOpt
      * Solvation model:               GBSA
        Solvent                        toluene
        Solvent mass                       9.2140E+01 g/mol
          :  Hamiltonian                  GFN2-xTB          :
 * total energy  :   -99.7877054 Eh     change       -0.1336844E-08 Eh
 * total energy  :   -99.8045901 Eh     change       -0.1688476E-01 Eh
 * total energy  :   -99.8098886 Eh     change       -0.5298496E-02 Eh
 * total energy  :   -99.8104427 Eh     change       -0.5540722E-03 Eh
 * total energy  :   -99.8107243 Eh     change       -0.2815455E-03 Eh
 * total energy  :   -99.8108141 Eh     change       -0.8985594E-04 Eh
 * total energy  :   -99.8108773 Eh     change       -0.6315944E-04 Eh
 * total energy  :   -99.8109218 Eh     change       -0.4457200E-04 Eh
 * total energy  :   -99.8109458 Eh     change       -0.2393569E-04 Eh
 * total energy  :   -99.8109518 Eh     change       -0.5991592E-05 Eh
 * total energy  :   -99.8109918 Eh     change       -0.5136342E-06 Eh
 * total energy  :   -99.8109923 Eh     change       -0.5221407E-06 Eh
 * total energy  :   -99.8109929 Eh     change       -0.5204580E-06 Eh
 * total energy  :   -99.8109934 Eh     change       -0.4980895E-06 Eh
 * total energy  :   -99.8109938 Eh     change       -0.4671394E-06 Eh
 * total energy  :   -99.8109943 Eh     change       -0.4382094E-06 Eh
 * total energy  :   -99.8109947 Eh     change       -0.4185410E-06 Eh
 * total energy  :   -99.8109951 Eh     change       -0.4099430E-06 Eh
 * total energy  :   -99.8109951 Eh     change       -0.4224106E-08 Eh
   *** GEOMETRY OPTIMIZATION CONVERGED AFTER 44 ITERATIONS ***

 final structure:
================
63
 xtb: 6.7.1 (edcfbbe)
C           -6.13673410147320        3.09227873638419        0.00020694377250
C           -4.86302846451468        3.63743949078428        0.00021821415346
C           -3.75278071308918        2.81066527903047        0.00014189478047
C           -3.92108250365152        1.43191694454999        0.00005661394683
N           -2.78010071153582        0.57430180937534       -0.00001407379523
C           -2.24150718032610        0.17362802392524       -1.20989058338615
C           -2.81523345041532        0.59604599366665       -2.41301802185644
C           -2.29203337106814        0.19823302140747       -3.62643301230494
C           -1.18584781221660       -0.63340470796286       -3.67171434841171
C           -0.61316211537926       -1.05704958715303       -2.48605777216012
C           -1.12469815314263       -0.66598339829770       -1.25771665718713
C           -0.44764572596221       -1.15606967650482       -0.00015049515001
C           -0.32791087322478       -2.66901254637768       -0.00026422527667
C           -1.34559073959247       -3.59931789899049       -0.00035548262008
C           -1.01362619665467       -4.94771379304815       -0.00044755428379
C            0.31270838774644       -5.35904350173155       -0.00045084492362
C            1.34135715510905       -4.43232512787890       -0.00036085221678
C            1.01202173094742       -3.08462990771215       -0.00026900117618
C            1.85730023995728       -1.90880852247100       -0.00016166296132
N            3.15697868083128       -1.83628263291286       -0.00010807923228
C            3.67591870493601       -0.57469712862795        0.00001012587250
C            5.05502824363862       -0.41092400056539        0.00009327761625
C            5.62775805745501        0.86027994242382        0.00021570980239
C            7.03367542155380        1.04735143370894        0.00031822868563
C            7.57186199798700        2.29853523313021        0.00044384297431
C            6.73708461754970        3.43611629783076        0.00046335271471
C            5.38178767107756        3.29839788288539        0.00036882474681
C            4.78097439133837        2.01420163092989        0.00024838272532
C            3.39530390993055        1.84881691238159        0.00016443938904
C            2.82696668979552        0.58420214788205        0.00005307236157
N            1.46279669301553        0.46403383497032       -0.00000585757899
C            1.00875622772181       -0.74577013293489       -0.00010306152188
C           -1.12469201038367       -0.66617190864562        1.25749408240357
C           -0.61314584890170       -1.05741596367542        2.48577433315989
C           -1.18581796655785       -0.63393860356936        3.67149723799464
C           -2.29199422928280        0.19771856810348        3.62634571520149
C           -2.81520020160534        0.59571294414189        2.41299297622320
C           -2.24149333462314        0.17345617975834        1.20979921436132
C           -5.19758401912007        0.88393109121511        0.00004490843782
C           -6.30308957027556        1.71693933953919        0.00011874049459
H           -7.00060395663014        3.73998853047600        0.00027623934642
H           -4.73214112236856        4.70924510223323        0.00028814630182
H           -2.75414522093984        3.22221849668805        0.00014704329929
H           -3.67819750366980        1.24325499531396       -2.39045291139463
H           -2.75241668535266        0.54026691412614       -4.54145107947809
H           -0.77154730495785       -0.94892498709210       -4.61698741494793
H            0.25146781486941       -1.70733238838158       -2.50986785418490
H           -2.37873707286602       -3.28488021303433       -0.00035322675425
H           -1.80014268302752       -5.68776850812204       -0.00052070481794
H            0.54353023996326       -6.41397362606691       -0.00052686313045
H            2.37712583533809       -4.73528439966694       -0.00036325690905
H            5.67837609430248       -1.29296029231473        0.00006490520720
H            7.66603261825495        0.17142327594314        0.00028685654740
H            8.64353414145512        2.43240282029309        0.00051203917698
H            7.18660582191834        4.41815648726528        0.00056495279464
H            4.73637536693645        4.16473328330221        0.00039570207875
H            2.74077405209999        2.70787975594458        0.00019061009029
H            0.25148045810724       -1.70770678908294        2.50948523671524
H           -0.77150879128208       -0.94959536614367        4.61672106567824
H           -2.75236091795664        0.53963097374848        4.54141758233393
H           -3.67815193273059        1.24294229586754        2.39052863768669
H           -5.31452628322081       -0.18982066492740       -0.00002141427467
H           -7.29510349583871        1.29045960466975        0.00011616286016

          :  Hamiltonian                  GFN2-xTB          :
         :: gradient norm              0.000053298322 Eh/a0 ::
         :: HOMO-LUMO gap              1.154070581750 eV    ::
         :: SCC energy              -101.665574520540 Eh    ::
         :: -> dispersion             -0.093593462297 Eh    ::
         :: -> Gsolv                  -0.044309341614 Eh    ::
         :: repulsion energy           1.854579425902 Eh    ::

    * Orbital Energies and Occupations

         #    Occupation            Energy/Eh            Energy/eV
      -------------------------------------------------------------
         1        2.0000           -0.6803090             -18.5121
       ...           ...                  ...                  ...
        81        2.0000           -0.4239075             -11.5351
        82        2.0000           -0.4227257             -11.5030
        83        2.0000           -0.4179441             -11.3728
        84        2.0000           -0.4165226             -11.3342
        85        2.0000           -0.4146320             -11.2827
        86        2.0000           -0.4103044             -11.1650
        87        2.0000           -0.4100422             -11.1578
        88        2.0000           -0.4054586             -11.0331
        89        2.0000           -0.3997254             -10.8771
        90        2.0000           -0.3972153             -10.8088
        91        2.0000           -0.3794542             -10.3255
        92        2.0000           -0.3595929              -9.7850
        93        2.0000           -0.3491905              -9.5020 (HOMO)
        94                         -0.3067792              -8.3479 (LUMO)
        95                         -0.2617693              -7.1231
        96                         -0.2475996              -6.7375
        97                         -0.2376140              -6.4658
        98                         -0.2362242              -6.4280
        99                         -0.2346450              -6.3850
       100                         -0.2285993              -6.2205
       101                         -0.2276873              -6.1957
       102                         -0.2245479              -6.1103
       103                         -0.2231159              -6.0713
       104                         -0.1960215              -5.3340
       ...                                ...                  ...
       183                          0.7157693              19.4771
      -------------------------------------------------------------
                  HL-Gap            0.0424113 Eh            1.1541 eV

     #   Z          covCN         q      C6AA      α(0)
     1   6 C        2.919    -0.029    28.725     8.789
     2   6 C        2.920    -0.027    28.667     8.780
     3   6 C        2.921    -0.037    28.917     8.818
     4   6 C        2.927     0.066    26.523     8.446
     5   7 N        2.753    -0.069    22.572     7.056
     6   6 C        2.925     0.063    26.592     8.457
     7   6 C        2.924    -0.057    29.427     8.896
     8   6 C        2.919    -0.032    28.802     8.801
     9   6 C        2.917    -0.044    29.097     8.846
    10   6 C        2.925    -0.037    28.915     8.818
    11   6 C        2.983    -0.010    28.261     8.720
    12   6 C        3.944     0.011    20.318     6.405
    13   6 C        3.059    -0.001    28.003     8.678
    14   6 C        2.914    -0.031    28.773     8.796
    15   6 C        2.922    -0.025    28.624     8.774
    16   6 C        2.921    -0.030    28.737     8.791
    17   6 C        2.913    -0.026    28.656     8.778
    18   6 C        3.025    -0.013    28.310     8.728
    19   6 C        3.021     0.089    25.988     8.362
    20   7 N        1.839    -0.272    27.907     7.829
    21   6 C        2.981     0.076    26.291     8.411
    22   6 C        2.922    -0.052    29.297     8.876
    23   6 C        2.983     0.013    27.724     8.637
    24   6 C        2.917    -0.033    28.832     8.805
    25   6 C        2.914    -0.026    28.663     8.779
    26   6 C        2.914    -0.026    28.660     8.779
    27   6 C        2.917    -0.033    28.831     8.805
    28   6 C        2.983     0.013    27.721     8.637
    29   6 C        2.921    -0.052    29.286     8.874
    30   6 C        2.983     0.076    26.292     8.411
    31   7 N        1.838    -0.274    27.958     7.836
    32   6 C        3.040     0.105    25.632     8.304
    33   6 C        2.983    -0.010    28.261     8.720
    34   6 C        2.925    -0.037    28.915     8.818
    35   6 C        2.917    -0.044    29.097     8.846
    36   6 C        2.919    -0.032    28.802     8.801
    37   6 C        2.924    -0.057    29.427     8.896
    38   6 C        2.925     0.063    26.592     8.457
    39   6 C        2.921    -0.037    28.930     8.820
    40   6 C        2.920    -0.027    28.674     8.781
    41   1 H        0.926     0.045     2.384     2.415
    42   1 H        0.926     0.045     2.382     2.413
    43   1 H        0.926     0.043     2.410     2.428
    44   1 H        0.926     0.036     2.500     2.472
    45   1 H        0.926     0.037     2.483     2.464
    46   1 H        0.926     0.031     2.574     2.509
    47   1 H        0.925     0.012     2.852     2.641
    48   1 H        0.926     0.037     2.483     2.464
    49   1 H        0.926     0.047     2.352     2.398
    50   1 H        0.926     0.047     2.363     2.404
    51   1 H        0.926     0.048     2.343     2.394
    52   1 H        0.926     0.052     2.299     2.371
    53   1 H        0.926     0.042     2.421     2.433
    54   1 H        0.926     0.043     2.413     2.429
    55   1 H        0.926     0.043     2.412     2.429
    56   1 H        0.926     0.042     2.424     2.435
    57   1 H        0.926     0.051     2.312     2.378
    58   1 H        0.925     0.012     2.852     2.641
    59   1 H        0.926     0.031     2.574     2.509
    60   1 H        0.926     0.037     2.483     2.464
    61   1 H        0.926     0.036     2.500     2.472
    62   1 H        0.926     0.043     2.415     2.430
    63   1 H        0.926     0.045     2.378     2.412

molecular dipole:
                 x           y           z       tot (Debye)
 q only:       -1.141       0.617       0.000
   full:       -1.065       0.509       0.000       3.000

 projected vibrational frequencies (cm⁻¹)
eigval :       -0.00    -0.00     0.00     0.00     0.00     0.00
eigval :       10.38    15.67    20.49    33.17    51.79    52.84
eigval :       61.16    63.62    73.55    94.21   109.69   126.35
eigval :      158.99   160.57   171.48   182.30   199.50   226.94
eigval :      240.91   244.77   259.54   264.40   309.11   310.89
eigval :      319.60   359.46   369.52   373.53   381.27   388.61
eigval :      403.88   417.04   422.72   430.20   443.48   449.53
eigval :      467.02   471.49   481.95   498.77   506.35   509.52
eigval :      512.77   518.24   561.58   583.00   590.17   591.59
eigval :      594.62   595.60   604.45   617.22   644.05   662.89
eigval :      674.56   680.52   680.93   689.67   709.61   723.38
eigval :      724.96   747.52   753.26   760.67   763.90   771.85
eigval :      780.51   780.88   782.91   842.99   855.58   863.91
eigval :      871.50   871.56   873.27   874.32   876.04   885.44
eigval :      894.90   898.53   905.43   909.49   910.70   914.51
eigval :      915.64   915.91   916.63   919.41   919.57   926.10
eigval :      928.90   930.18   932.14   947.33   995.73  1029.17
eigval :     1067.72  1069.37  1076.68  1098.27  1106.16  1107.58
eigval :     1112.22  1124.84  1129.61  1143.30  1151.73  1165.76
eigval :     1171.39  1176.49  1176.77  1181.09  1181.54  1182.41
eigval :     1184.31  1200.72  1206.70  1231.70  1233.24  1242.21
eigval :     1244.62  1260.91  1265.94  1271.47  1274.25  1274.40
eigval :     1307.39  1316.69  1318.45  1323.25  1325.11  1326.15
eigval :     1334.61  1339.12  1350.11  1389.58  1418.01  1428.93
eigval :     1429.96  1436.14  1436.63  1443.22  1456.33  1468.12
eigval :     1471.79  1479.26  1495.17  1537.91  1547.90  1567.87
eigval :     1570.53  1582.25  1585.22  1587.42  1591.51  1593.41
eigval :     1596.29  1601.89  1609.65  1617.65  3058.22  3058.54
eigval :     3073.34  3074.78  3078.26  3078.32  3078.34  3079.02
eigval :     3080.72  3082.63  3083.73  3084.85  3085.41  3087.02
eigval :     3091.59  3091.74  3091.91  3092.22  3092.81  3098.38
eigval :     3100.14  3103.16  3103.91

   temp. (K)  partition function   enthalpy   heat capacity  entropy
                                   cal/mol     cal/K/mol   cal/K/mol   J/K/mol
 298.15  VIB  0.345E+13            16926.724    112.082    103.439
         ROT  0.395E+08              888.752      2.981     37.744
         INT  0.136E+21            17815.477    115.063    141.183
         TR   0.111E+29             1481.254      4.968     44.552
         TOT                       19296.7305   120.0311   185.7350   777.1152

       T/K    H(0)-H(T)+PV         H(T)/Eh          T*S/Eh         G(T)/Eh
   ------------------------------------------------------------------------
    298.15    0.307513E-01    0.508958E+00    0.882487E-01    0.420709E+00
   ------------------------------------------------------------------------

         :::::::::::::::::::::::::::::::::::::::::::::::::::::
         ::                  THERMODYNAMIC                  ::
         :::::::::::::::::::::::::::::::::::::::::::::::::::::
         :: total free energy         -99.390286037072 Eh   ::
         ::.................................................::
         :: total energy              -99.810995091893 Eh   ::
         :: zero point energy           0.478206442121 Eh   ::
         :: G(RRHO) w/o ZPVE           -0.057497387300 Eh   ::
         :: G(RRHO) contrib.            0.420709054821 Eh   ::
         :::::::::::::::::::::::::::::::::::::::::::::::::::::

           -------------------------------------------------
          | TOTAL ENERGY              -99.810995091893 Eh   |
          | TOTAL ENTHALPY            -99.302037352390 Eh   |
          | TOTAL FREE ENERGY         -99.390286037072 Eh   |
          | GRADIENT NORM               0.000053297279 Eh/α |
          | HOMO-LUMO GAP               1.154070517056 eV   |
           -------------------------------------------------

 * finished run on 2025/09/04 at 12:33:27.710
