   * xtb version 6.7.1 (edcfbbe) compiled by 'albert@albert-system' on 2024-07-22

   ID    Z sym.   atoms
    1    6 C      1-4, 6-19, 21-30, 32-40
    2    7 N      5, 20, 31
    3    1 H      41-63

          program call               : xtb data2507/toluene/SABIQ/SABIQ_toluene_T1_crest.xyz --gfn 2 --uhf 2 --gbsa toluene --ohess vtight --parallel 40 --molden --ceasefiles --namespace data2507/toluene/SABIQ/SABIQ_toluene_T1_finalOpt
      * Solvation model:               GBSA
        Solvent                        toluene
        Solvent mass                       9.2140E+01 g/mol
          :  Hamiltonian                  GFN2-xTB          :
 * total energy  :   -99.7630885 Eh     change       -0.2590468E-08 Eh
 * total energy  :   -99.7631472 Eh     change       -0.5870857E-04 Eh
 * total energy  :   -99.7631743 Eh     change       -0.2714289E-04 Eh
 * total energy  :   -99.7631782 Eh     change       -0.3862047E-05 Eh
 * total energy  :   -99.7631794 Eh     change       -0.1178657E-05 Eh
 * total energy  :   -99.7631804 Eh     change       -0.9777287E-06 Eh
 * total energy  :   -99.7631820 Eh     change       -0.1632478E-05 Eh
 * total energy  :   -99.7631839 Eh     change       -0.1931309E-05 Eh
 * total energy  :   -99.7631857 Eh     change       -0.1817287E-05 Eh
 * total energy  :   -99.7631872 Eh     change       -0.1480250E-05 Eh
 * total energy  :   -99.7631915 Eh     change       -0.9065063E-06 Eh
 * total energy  :   -99.7631922 Eh     change       -0.7976148E-06 Eh
 * total energy  :   -99.7631930 Eh     change       -0.7787305E-06 Eh
 * total energy  :   -99.7631938 Eh     change       -0.7900004E-06 Eh
 * total energy  :   -99.7631945 Eh     change       -0.7178997E-06 Eh
 * total energy  :   -99.7631951 Eh     change       -0.6056472E-06 Eh
 * total energy  :   -99.7631957 Eh     change       -0.5332026E-06 Eh
 * total energy  :   -99.7631962 Eh     change       -0.5099441E-06 Eh
 * total energy  :   -99.7631962 Eh     change       -0.4024358E-08 Eh
   *** GEOMETRY OPTIMIZATION CONVERGED AFTER 22 ITERATIONS ***

 final structure:
================
63
 xtb: 6.7.1 (edcfbbe)
C           -1.46859433650485        5.70574194764171        0.05493656773090
C           -2.72555621732594        5.18413683294802       -0.20475862145850
C           -2.91877724150168        3.81341638656989       -0.23433271426530
C           -1.84234471058575        2.96537769540820       -0.00667127049519
N           -1.99629824659791        1.54896912003038       -0.02646018369089
C           -2.05526978989225        0.87452054246698       -1.23003756621110
C           -2.27463455342969        1.55684634747875       -2.43101240343850
C           -2.39097584468843        0.86376273899226       -3.61712087277863
C           -2.29005269949695       -0.52038084315336       -3.63547209072938
C           -2.03226862665595       -1.20147043332926       -2.46058218911396
C           -1.91083817118589       -0.52204305024374       -1.25704934708484
C           -1.46741754329708       -1.22130355972939       -0.00416468899422
C           -1.68151791483896       -2.71430274686569        0.00209220373122
C           -2.86997247510892       -3.40871962312985       -0.00770114699058
C           -2.82960085043444       -4.79964984107885        0.00441215491534
C           -1.61662297679819       -5.47481537139633        0.02612113133346
C           -0.41521273809426       -4.78725349523274        0.03646450909099
C           -0.45055009915327       -3.39696654279376        0.02463871374017
C            0.61481030655420       -2.43351247405444        0.03049439483153
N            1.92832077283581       -2.57675555203380        0.04336669174577
C            2.72761149142109       -1.50441595200443        0.03256909182856
C            4.10546186453249       -1.61327011337330        0.03984014395100
C            4.94509524364375       -0.48499939796324        0.01987812208169
C            6.34897245511137       -0.59853788387914        0.02558589244118
C            7.14612106984112        0.51762374449965        0.00146158960416
C            6.57393791845647        1.79423567457430       -0.02936882644024
C            5.20896013908678        1.93898054505806       -0.03494502877919
C            4.36450804377501        0.81517632391657       -0.00988062593506
C            2.95956487683742        0.93438131800844       -0.01393208443978
C            2.13673218700861       -0.16598918926642        0.00897327937289
N            0.78984527395597       -0.06054919380909        0.00676474730320
C            0.06127925272145       -1.13442436982678        0.01412104990616
C           -1.95208830151442       -0.51307468017798        1.22706100872240
C           -2.12125816922558       -1.17883705638040        2.43247758215301
C           -2.45043410231167       -0.48651605027591        3.58278048671151
C           -2.59409382316093        0.89348089433310        3.53705250263004
C           -2.42949786410522        1.57246824783355        2.34877691238668
C           -2.11191487606462        0.87955774691297        1.17584586886994
C           -0.58238890519032        3.48574899424445        0.25828660111144
C           -0.39860242470590        4.85684910551032        0.28838562528205
H           -1.32288113095420        6.77515978026503        0.07740245777750
H           -3.56035004901275        5.84535723857725       -0.38217743119778
H           -3.89669859717182        3.39735002129507       -0.42722502241305
H           -2.34869887321427        2.63272502628206       -2.42860350413515
H           -2.56255396848037        1.40550572779914       -4.53493977523494
H           -2.38843634890031       -1.06305794345806       -4.56282221449636
H           -1.91304057808900       -2.27481214009281       -2.47225704548878
H           -3.81414854358307       -2.88427177413027       -0.02429206563273
H           -3.75300159875218       -5.35894981607903       -0.00306871599714
H           -1.60982446347573       -6.55510433170141        0.03522079802161
H            0.53093621880276       -5.30600317613769        0.05341227872475
H            4.54005315710025       -2.60199561946788        0.05865420170549
H            6.78823109925506       -1.58600272839805        0.04870548261154
H            8.22186363764881        0.41541295426624        0.00601004249827
H            7.21296516299040        2.66526950856140       -0.04904427361067
H            4.76265761626565        2.92329013015594       -0.05918618737686
H            2.51328501908321        1.91766040413258       -0.04122271697089
H           -1.98563692227708       -2.24975196840901        2.46548046944487
H           -2.58247257671473       -1.01826923106381        4.51229126011324
H           -2.83919673734414        1.44172952931921        4.43403742210026
H           -2.54993715688507        2.64412989803049        2.31781916985403
H            0.23495760147881        2.80292306039328        0.43814772996218
H            0.58107082371704        5.26167292442965        0.49359991481059

          :  Hamiltonian                  GFN2-xTB          :
         :: gradient norm              0.000053925258 Eh/a0 ::
         :: HOMO-LUMO gap              1.191631380351 eV    ::
         :: SCC energy              -101.621394322606 Eh    ::
         :: -> dispersion             -0.094971834112 Eh    ::
         :: -> Gsolv                  -0.043347484240 Eh    ::
         :: repulsion energy           1.858198134117 Eh    ::

    * Orbital Energies and Occupations

         #    Occupation            Energy/Eh            Energy/eV
      -------------------------------------------------------------
         1        2.0000           -0.6855048             -18.6535
       ...           ...                  ...                  ...
        82        2.0000           -0.4197434             -11.4218
        83        2.0000           -0.4183343             -11.3835
        84        2.0000           -0.4168508             -11.3431
        85        2.0000           -0.4156104             -11.3093
        86        2.0000           -0.4152712             -11.3001
        87        2.0000           -0.4119428             -11.2095
        88        2.0000           -0.4092768             -11.1370
        89        2.0000           -0.4056113             -11.0372
        90        2.0000           -0.3918651             -10.6632
        91        1.9999           -0.3680087             -10.0140
        92        1.9995           -0.3658836              -9.9562
        93        1.0006           -0.3515605              -9.5664
        94        1.0000           -0.3018887              -8.2148 (HOMO)
        95                         -0.2580970              -7.0232 (LUMO)
        96                         -0.2430702              -6.6143
        97                         -0.2409813              -6.5574
        98                         -0.2388471              -6.4994
        99                         -0.2356544              -6.4125
       100                         -0.2346529              -6.3852
       101                         -0.2309120              -6.2834
       102                         -0.2281504              -6.2083
       103                         -0.2146795              -5.8417
       104                         -0.2089501              -5.6858
       105                         -0.1772621              -4.8235
       ...                                ...                  ...
       183                          0.7218851              19.6435
      -------------------------------------------------------------
                  HL-Gap            0.0437917 Eh            1.1916 eV

     #   Z          covCN         q      C6AA      α(0)
     1   6 C        2.919    -0.027    28.680     8.782
     2   6 C        2.920    -0.026    28.652     8.778
     3   6 C        2.920    -0.037    28.926     8.820
     4   6 C        2.928     0.062    26.604     8.459
     5   7 N        2.755    -0.037    21.948     6.958
     6   6 C        2.928     0.064    26.564     8.452
     7   6 C        2.921    -0.053    29.306     8.877
     8   6 C        2.919    -0.029    28.715     8.787
     9   6 C        2.918    -0.036    28.900     8.816
    10   6 C        2.921    -0.037    28.910     8.817
    11   6 C        2.990    -0.004    28.106     8.696
    12   6 C        3.951     0.019    20.192     6.385
    13   6 C        3.051    -0.010    28.219     8.712
    14   6 C        2.913    -0.032    28.806     8.801
    15   6 C        2.921    -0.036    28.884     8.813
    16   6 C        2.920    -0.031    28.767     8.795
    17   6 C        2.912    -0.034    28.851     8.808
    18   6 C        3.035    -0.010    28.240     8.716
    19   6 C        2.991     0.068    26.479     8.441
    20   7 N        1.845    -0.245    27.251     7.737
    21   6 C        2.942     0.084    26.125     8.383
    22   6 C        2.920    -0.077    29.917     8.969
    23   6 C        2.982     0.007    27.859     8.658
    24   6 C        2.919    -0.044    29.095     8.845
    25   6 C        2.915    -0.035    28.877     8.812
    26   6 C        2.915    -0.037    28.916     8.818
    27   6 C        2.919    -0.043    29.079     8.843
    28   6 C        2.983     0.005    27.899     8.664
    29   6 C        2.918    -0.073    29.829     8.956
    30   6 C        2.954     0.082    26.171     8.391
    31   7 N        1.841    -0.251    27.394     7.757
    32   6 C        3.034     0.094    25.881     8.345
    33   6 C        2.989    -0.003    28.098     8.695
    34   6 C        2.921    -0.036    28.905     8.817
    35   6 C        2.918    -0.036    28.890     8.814
    36   6 C        2.919    -0.028    28.710     8.787
    37   6 C        2.921    -0.051    29.276     8.873
    38   6 C        2.932     0.064    26.575     8.454
    39   6 C        2.923    -0.034    28.857     8.809
    40   6 C        2.920    -0.024    28.613     8.772
    41   1 H        0.926     0.048     2.340     2.392
    42   1 H        0.926     0.050     2.318     2.381
    43   1 H        0.926     0.050     2.325     2.384
    44   1 H        0.926     0.046     2.367     2.406
    45   1 H        0.926     0.046     2.366     2.406
    46   1 H        0.926     0.042     2.418     2.432
    47   1 H        0.926     0.035     2.511     2.478
    48   1 H        0.926     0.036     2.503     2.474
    49   1 H        0.926     0.040     2.454     2.450
    50   1 H        0.926     0.039     2.462     2.454
    51   1 H        0.926     0.037     2.492     2.469
    52   1 H        0.926     0.035     2.520     2.482
    53   1 H        0.926     0.025     2.662     2.551
    54   1 H        0.926     0.026     2.637     2.539
    55   1 H        0.926     0.027     2.631     2.536
    56   1 H        0.926     0.027     2.629     2.535
    57   1 H        0.926     0.037     2.487     2.466
    58   1 H        0.926     0.036     2.504     2.475
    59   1 H        0.926     0.043     2.410     2.427
    60   1 H        0.926     0.047     2.361     2.403
    61   1 H        0.926     0.044     2.394     2.419
    62   1 H        0.926     0.046     2.374     2.410
    63   1 H        0.926     0.047     2.359     2.402

molecular dipole:
                 x           y           z       tot (Debye)
 q only:       -2.591       1.716      -0.005
   full:       -2.478       1.580      -0.008       7.471

 projected vibrational frequencies (cm⁻¹)
eigval :       -0.00    -0.00     0.00     0.00     0.00     0.00
eigval :       11.52    16.75    30.22    32.86    48.00    52.00
eigval :       53.89    63.19    72.51    99.56   112.79   115.99
eigval :      151.29   158.04   170.03   172.68   198.49   237.67
eigval :      244.59   248.27   251.05   260.05   289.23   302.13
eigval :      313.48   359.34   364.80   372.82   375.41   391.99
eigval :      399.58   416.16   421.32   429.75   446.77   457.69
eigval :      463.45   475.00   482.31   495.30   504.27   505.29
eigval :      510.30   517.82   558.64   576.11   577.79   589.30
eigval :      590.51   594.16   594.80   618.18   625.15   641.15
eigval :      667.00   670.61   672.98   686.99   691.55   698.69
eigval :      700.76   722.10   727.78   750.98   763.31   765.20
eigval :      768.52   772.72   774.29   776.24   807.07   840.90
eigval :      862.33   869.28   871.45   873.21   873.61   879.88
eigval :      891.33   891.86   899.05   905.69   908.35   908.91
eigval :      911.11   912.01   915.86   920.83   921.23   921.77
eigval :      924.11   931.57   934.47   940.80   994.83   995.59
eigval :     1070.39  1076.77  1081.12  1084.33  1097.88  1099.59
eigval :     1111.91  1124.17  1133.36  1143.67  1151.35  1167.23
eigval :     1173.48  1177.31  1177.49  1178.39  1179.41  1182.57
eigval :     1185.35  1200.50  1209.01  1220.93  1225.12  1239.04
eigval :     1252.70  1254.47  1258.93  1267.94  1271.06  1271.83
eigval :     1278.72  1307.32  1316.21  1319.48  1323.17  1331.32
eigval :     1331.68  1335.99  1355.36  1374.65  1407.66  1417.57
eigval :     1427.10  1429.23  1433.39  1435.65  1443.74  1445.83
eigval :     1453.27  1463.22  1478.12  1481.76  1520.50  1543.52
eigval :     1555.82  1556.20  1568.68  1577.02  1580.61  1581.64
eigval :     1586.83  1587.43  1589.73  1593.31  3062.93  3064.11
eigval :     3072.08  3073.94  3075.01  3076.87  3079.62  3082.08
eigval :     3083.13  3083.81  3084.14  3084.71  3087.43  3087.48
eigval :     3089.05  3090.72  3093.38  3097.23  3098.72  3099.16
eigval :     3100.98  3105.31  3108.73

   temp. (K)  partition function   enthalpy   heat capacity  entropy
                                   cal/mol     cal/K/mol   cal/K/mol   J/K/mol
 298.15  VIB  0.309E+13            17098.209    113.104    104.143
         ROT  0.355E+08              888.752      2.981     37.531
         INT  0.110E+21            17986.961    116.085    141.674
         TR   0.111E+29             1481.254      4.968     44.552
         TOT                       19468.2150   121.0532   186.2257   779.1684

       T/K    H(0)-H(T)+PV         H(T)/Eh          T*S/Eh         G(T)/Eh
   ------------------------------------------------------------------------
    298.15    0.310246E-01    0.506838E+00    0.884818E-01    0.418356E+00
   ------------------------------------------------------------------------

         :::::::::::::::::::::::::::::::::::::::::::::::::::::
         ::                  THERMODYNAMIC                  ::
         :::::::::::::::::::::::::::::::::::::::::::::::::::::
         :: total free energy         -99.344840219315 Eh   ::
         ::.................................................::
         :: total energy              -99.763196184721 Eh   ::
         :: zero point energy           0.475813236002 Eh   ::
         :: G(RRHO) w/o ZPVE           -0.057457270596 Eh   ::
         :: G(RRHO) contrib.            0.418355965406 Eh   ::
         :::::::::::::::::::::::::::::::::::::::::::::::::::::

           -------------------------------------------------
          | TOTAL ENERGY              -99.763196184721 Eh   |
          | TOTAL ENTHALPY            -99.256358373366 Eh   |
          | TOTAL FREE ENERGY         -99.344840219315 Eh   |
          | GRADIENT NORM               0.000053806732 Eh/α |
          | HOMO-LUMO GAP               1.191632831968 eV   |
           -------------------------------------------------

 * finished run on 2025/09/04 at 12:40:14.378
