   * xtb version 6.7.1 (edcfbbe) compiled by 'albert@albert-system' on 2024-07-22

   ID    Z sym.   atoms
    1    6 C      1-4, 6-19, 21-30, 32-40
    2    7 N      5, 20, 31
    3    1 H      41-63

          program call               : xtb data2507/toluene/SABIQ/SABIQ_toluene_S0_crest.xyz --gfn 2 --gbsa toluene --ohess vtight --parallel 40 --molden --ceasefiles --namespace data2507/toluene/SABIQ/SABIQ_toluene_S0_finalOpt
      * Solvation model:               GBSA
        Solvent                        toluene
        Solvent mass                       9.2140E+01 g/mol
          :  Hamiltonian                  GFN2-xTB          :
 * total energy  :   -99.8100151 Eh     change       -0.1140705E-08 Eh
 * total energy  :   -99.8100436 Eh     change       -0.2846023E-04 Eh
 * total energy  :   -99.8100521 Eh     change       -0.8567454E-05 Eh
 * total energy  :   -99.8100557 Eh     change       -0.3540378E-05 Eh
 * total energy  :   -99.8100601 Eh     change       -0.4466034E-05 Eh
 * total energy  :   -99.8100638 Eh     change       -0.3703379E-05 Eh
 * total energy  :   -99.8100683 Eh     change       -0.4449364E-05 Eh
 * total energy  :   -99.8100726 Eh     change       -0.4363690E-05 Eh
 * total energy  :   -99.8100758 Eh     change       -0.3186051E-05 Eh
 * total energy  :   -99.8100783 Eh     change       -0.2435692E-05 Eh
 * total energy  :   -99.8109931 Eh     change       -0.7889293E-05 Eh
 * total energy  :   -99.8109970 Eh     change       -0.3846718E-05 Eh
 * total energy  :   -99.8109982 Eh     change       -0.1171286E-05 Eh
 * total energy  :   -99.8109990 Eh     change       -0.8536488E-06 Eh
 * total energy  :   -99.8110001 Eh     change       -0.1106899E-05 Eh
 * total energy  :   -99.8110010 Eh     change       -0.8746475E-06 Eh
 * total energy  :   -99.8110012 Eh     change       -0.2465844E-06 Eh
 * total energy  :   -99.8110014 Eh     change       -0.1191716E-06 Eh
 * total energy  :   -99.8110014 Eh     change       -0.1916783E-07 Eh
   *** GEOMETRY OPTIMIZATION CONVERGED AFTER 213 ITERATIONS ***

 final structure:
================
63
 xtb: 6.7.1 (edcfbbe)
C           -3.67129406931909        5.39564307789905       -0.02191632559561
C           -4.59293966933011        4.36170370518078        0.01584386559158
C           -4.16148123767349        3.04661815046361        0.02034876366953
C           -2.80049994412006        2.76754102845366       -0.01206221629798
N           -2.33802429926077        1.41821720683831       -0.00855761567606
C           -2.15761560252848        0.76613544068287       -1.21529407137276
C           -2.56032464118735        1.36538105043612       -2.41189836688189
C           -2.41087590010043        0.70916142625320       -3.61707098786134
C           -1.86377064376291       -0.56183939659935       -3.65724225038816
C           -1.45251364998139       -1.15838130136427       -2.47810267631507
C           -1.58963097049763       -0.51147103587601       -1.25983865636848
C           -1.04322937744292       -1.15232339794324       -0.00544669524360
C           -1.20395939475669       -2.65720474318935       -0.00598156543499
C           -2.37635679319339       -3.38402386067562       -0.01268282068201
C           -2.29939797746135       -4.77058787533802       -0.01157728176001
C           -1.07178133561193       -5.42000211245431       -0.00360612586303
C            0.11068699884772       -4.69946532160912        0.00304670540148
C            0.03668525335258       -3.31404644614066        0.00172445359819
C            1.08538072814425       -2.31544554188818        0.00705084887230
N            2.37619344106988       -2.48224210850196        0.01507380905094
C            3.11828656699394       -1.33741421609773        0.01729681886249
C            4.50412112671345       -1.42869404933566        0.02625507531414
C            5.30000927875556       -0.28366017605770        0.02762908619161
C            6.71639813760960       -0.35667750712787        0.03636134035722
C            7.47445835555652        0.77498658843381        0.03693935764965
C            6.86206985462183        2.04613088857052        0.02897967021963
C            5.50450190866996        2.15863328844671        0.02063237821691
C            4.67918817103479        1.00592984916707        0.01983686007182
C            3.28683305446798        1.09695255271824        0.01159736810549
C            2.49690390366767       -0.04224967571032        0.01042944867607
N            1.13418264044618        0.08939101139212        0.00259745645854
C            0.46618335897021       -1.01648962611851        0.00145941722227
C           -1.59748709691294       -0.51189460055382        1.24597545232177
C           -1.46671043488736       -1.15943422634690        2.46459489746821
C           -1.87887203469726       -0.56131377360818        3.64261475001110
C           -2.41817042778870        0.71293804258122        3.60109258526824
C           -2.56199125849568        1.36960017620384        2.39544005456509
C           -2.16228149885861        0.76722042835846        1.19944065701747
C           -1.87602098594667        3.80260963687193       -0.04947585068639
C           -2.31506552712241        5.11557429073243       -0.05460834266601
H           -4.01072148605139        6.42064973174143       -0.02585355185782
H           -5.65054376305384        4.57871754386694        0.04120124883709
H           -4.87043929616429        2.23203170018277        0.04879450123458
H           -2.99160081669808        2.35435742887192       -2.39158934272686
H           -2.72613939695537        1.19408431208198       -4.52904191085624
H           -1.74655546704937       -1.08155507363400       -4.59579431441096
H           -1.00931556789611       -2.14448117581020       -2.50319887744547
H           -3.33273893128467       -2.88237871901793       -0.01876703071187
H           -3.20915818164949       -5.35246350753234       -0.01688601321794
H           -1.04036138283636       -6.49943672572925       -0.00290956539598
H            1.07269365786228       -5.18844240577891        0.00934266217321
H            4.95552633889697       -2.40986716183837        0.03196089596626
H            7.17810252777179       -1.33338207105682        0.04230655119239
H            8.55253581608713        0.71048530405014        0.04334420988793
H            7.48344387753945        2.92954259183803        0.02932575833037
H            5.02850398268012        3.12841362989875        0.01450883447449
H            2.80126550868003        2.06164171420100        0.00610329998771
H           -1.02704041554614       -2.14706688943140        2.49119228542213
H           -1.76652425058807       -1.08161064968511        4.58144815051688
H           -2.73124487860252        1.20040527697434        4.51245326184982
H           -2.98581459704768        2.36174008106047        2.37489436921201
H           -0.82215424989474        3.56793275344695       -0.07439674949174
H           -1.59620557128905        5.92085051911688       -0.08370265605845

          :  Hamiltonian                  GFN2-xTB          :
         :: gradient norm              0.000151199205 Eh/a0 ::
         :: HOMO-LUMO gap              1.122207718015 eV    ::
         :: SCC energy              -101.665542047769 Eh    ::
         :: -> dispersion             -0.093757164533 Eh    ::
         :: -> Gsolv                  -0.043798230500 Eh    ::
         :: repulsion energy           1.854540669761 Eh    ::

    * Orbital Energies and Occupations

         #    Occupation            Energy/Eh            Energy/eV
      -------------------------------------------------------------
         1        2.0000           -0.6802629             -18.5109
       ...           ...                  ...                  ...
        81        2.0000           -0.4242494             -11.5444
        82        2.0000           -0.4224072             -11.4943
        83        2.0000           -0.4166854             -11.3386
        84        2.0000           -0.4157402             -11.3129
        85        2.0000           -0.4143968             -11.2763
        86        2.0000           -0.4102838             -11.1644
        87        2.0000           -0.4087134             -11.1217
        88        2.0000           -0.4038830             -10.9902
        89        2.0000           -0.4003983             -10.8954
        90        2.0000           -0.3974180             -10.8143
        91        2.0000           -0.3796118             -10.3298
        92        2.0000           -0.3602985              -9.8042
        93        2.0000           -0.3481434              -9.4735 (HOMO)
        94                         -0.3069030              -8.3513 (LUMO)
        95                         -0.2623222              -7.1381
        96                         -0.2481542              -6.7526
        97                         -0.2359848              -6.4215
        98                         -0.2352747              -6.4021
        99                         -0.2338370              -6.3630
       100                         -0.2292615              -6.2385
       101                         -0.2265110              -6.1637
       102                         -0.2243247              -6.1042
       103                         -0.2224387              -6.0529
       104                         -0.1961570              -5.3377
       ...                                ...                  ...
       183                          0.7157229              19.4758
      -------------------------------------------------------------
                  HL-Gap            0.0412404 Eh            1.1222 eV

     #   Z          covCN         q      C6AA      α(0)
     1   6 C        2.919    -0.029    28.732     8.790
     2   6 C        2.920    -0.027    28.688     8.783
     3   6 C        2.921    -0.038    28.940     8.822
     4   6 C        2.927     0.066    26.513     8.444
     5   7 N        2.753    -0.069    22.570     7.056
     6   6 C        2.927     0.064    26.568     8.453
     7   6 C        2.924    -0.058    29.434     8.897
     8   6 C        2.919    -0.033    28.817     8.803
     9   6 C        2.917    -0.045    29.113     8.848
    10   6 C        2.924    -0.040    28.984     8.829
    11   6 C        2.984    -0.011    28.283     8.724
    12   6 C        3.943     0.011    20.319     6.406
    13   6 C        3.056    -0.001    27.990     8.676
    14   6 C        2.914    -0.030    28.749     8.792
    15   6 C        2.922    -0.025    28.625     8.774
    16   6 C        2.921    -0.030    28.738     8.791
    17   6 C        2.913    -0.026    28.659     8.779
    18   6 C        3.026    -0.013    28.315     8.728
    19   6 C        3.020     0.089    26.000     8.364
    20   7 N        1.839    -0.270    27.867     7.823
    21   6 C        2.980     0.076    26.299     8.412
    22   6 C        2.922    -0.052    29.290     8.875
    23   6 C        2.983     0.013    27.724     8.637
    24   6 C        2.917    -0.033    28.830     8.805
    25   6 C        2.914    -0.026    28.664     8.779
    26   6 C        2.914    -0.026    28.659     8.779
    27   6 C        2.917    -0.033    28.833     8.805
    28   6 C        2.983     0.013    27.721     8.637
    29   6 C        2.921    -0.052    29.287     8.875
    30   6 C        2.984     0.076    26.295     8.411
    31   7 N        1.839    -0.274    27.964     7.837
    32   6 C        3.044     0.105    25.638     8.305
    33   6 C        2.984    -0.011    28.283     8.724
    34   6 C        2.924    -0.040    28.985     8.829
    35   6 C        2.917    -0.045    29.115     8.848
    36   6 C        2.919    -0.033    28.818     8.803
    37   6 C        2.923    -0.058    29.437     8.897
    38   6 C        2.927     0.064    26.568     8.453
    39   6 C        2.922    -0.037    28.912     8.818
    40   6 C        2.920    -0.027    28.667     8.780
    41   1 H        0.926     0.045     2.388     2.417
    42   1 H        0.926     0.045     2.384     2.415
    43   1 H        0.926     0.043     2.411     2.428
    44   1 H        0.926     0.035     2.516     2.480
    45   1 H        0.926     0.036     2.496     2.471
    46   1 H        0.926     0.031     2.572     2.508
    47   1 H        0.925     0.018     2.756     2.596
    48   1 H        0.926     0.039     2.467     2.456
    49   1 H        0.926     0.047     2.355     2.400
    50   1 H        0.926     0.046     2.367     2.406
    51   1 H        0.926     0.048     2.345     2.395
    52   1 H        0.926     0.052     2.298     2.371
    53   1 H        0.926     0.042     2.422     2.433
    54   1 H        0.926     0.043     2.413     2.429
    55   1 H        0.926     0.043     2.411     2.428
    56   1 H        0.926     0.042     2.421     2.433
    57   1 H        0.926     0.050     2.317     2.380
    58   1 H        0.925     0.018     2.757     2.597
    59   1 H        0.926     0.031     2.573     2.508
    60   1 H        0.926     0.036     2.497     2.471
    61   1 H        0.926     0.035     2.513     2.479
    62   1 H        0.926     0.043     2.405     2.425
    63   1 H        0.926     0.045     2.387     2.416

molecular dipole:
                 x           y           z       tot (Debye)
 q only:       -0.548       1.007      -0.005
   full:       -0.535       0.872      -0.005       2.600

 projected vibrational frequencies (cm⁻¹)
eigval :       -0.00    -0.00    -0.00     0.00     0.00     0.00
eigval :        8.99    16.26    19.46    33.85    47.53    50.49
eigval :       54.12    62.61    72.57    96.16   114.51   115.35
eigval :      155.07   158.77   167.36   178.17   198.60   232.62
eigval :      247.33   249.97   250.44   254.45   309.06   313.10
eigval :      317.49   354.74   365.41   375.86   376.54   391.32
eigval :      401.25   416.42   422.02   429.18   446.70   447.52
eigval :      464.85   471.18   481.24   498.92   506.44   510.44
eigval :      512.06   515.25   562.43   583.31   590.57   592.16
eigval :      593.67   593.80   602.60   623.33   642.54   659.38
eigval :      672.83   674.88   685.34   693.57   708.48   722.47
eigval :      724.55   747.74   755.26   760.51   766.24   771.23
eigval :      778.78   780.97   782.60   845.12   855.11   863.55
eigval :      865.90   866.86   873.62   876.94   878.24   885.71
eigval :      894.87   898.86   906.31   907.49   909.35   911.43
eigval :      916.00   917.20   918.79   924.02   924.31   926.45
eigval :      929.15   930.91   935.05   945.74   996.35  1029.14
eigval :     1068.28  1069.55  1078.15  1097.84  1105.25  1106.67
eigval :     1113.16  1124.11  1131.93  1142.02  1147.98  1165.77
eigval :     1173.66  1175.15  1179.25  1181.69  1182.56  1183.68
eigval :     1185.46  1203.14  1204.61  1228.28  1230.11  1245.39
eigval :     1248.83  1260.86  1266.00  1270.42  1273.73  1275.16
eigval :     1307.62  1316.98  1318.22  1323.66  1325.54  1325.60
eigval :     1334.53  1337.90  1349.56  1389.92  1418.02  1429.59
eigval :     1431.05  1436.93  1437.31  1443.95  1456.77  1468.82
eigval :     1471.96  1475.29  1493.70  1538.06  1547.67  1567.40
eigval :     1569.90  1582.54  1583.80  1585.57  1591.27  1592.79
eigval :     1596.42  1600.98  1609.50  1617.38  3067.11  3067.63
eigval :     3072.53  3074.79  3078.10  3078.33  3079.67  3079.79
eigval :     3080.55  3083.14  3084.35  3085.38  3086.33  3087.51
eigval :     3091.44  3091.73  3092.09  3092.75  3093.14  3098.52
eigval :     3100.42  3101.16  3101.85

   temp. (K)  partition function   enthalpy   heat capacity  entropy
                                   cal/mol     cal/K/mol   cal/K/mol   J/K/mol
 298.15  VIB  0.552E+13            16979.973    111.889    103.997
         ROT  0.384E+08              888.752      2.981     37.684
         INT  0.212E+21            17868.725    114.870    141.681
         TR   0.111E+29             1481.254      4.968     44.552
         TOT                       19349.9789   119.8378   186.2328   779.1982

       T/K    H(0)-H(T)+PV         H(T)/Eh          T*S/Eh         G(T)/Eh
   ------------------------------------------------------------------------
    298.15    0.308362E-01    0.508970E+00    0.884852E-01    0.420485E+00
   ------------------------------------------------------------------------

         :::::::::::::::::::::::::::::::::::::::::::::::::::::
         ::                  THERMODYNAMIC                  ::
         :::::::::::::::::::::::::::::::::::::::::::::::::::::
         :: total free energy         -99.390516408806 Eh   ::
         ::.................................................::
         :: total energy              -99.811001377115 Eh   ::
         :: zero point energy           0.478134047871 Eh   ::
         :: G(RRHO) w/o ZPVE           -0.057649079561 Eh   ::
         :: G(RRHO) contrib.            0.420484968310 Eh   ::
         :::::::::::::::::::::::::::::::::::::::::::::::::::::

           -------------------------------------------------
          | TOTAL ENERGY              -99.811001377115 Eh   |
          | TOTAL ENTHALPY            -99.302031175039 Eh   |
          | TOTAL FREE ENERGY         -99.390516408806 Eh   |
          | GRADIENT NORM               0.000151228007 Eh/α |
          | HOMO-LUMO GAP               1.122208069145 eV   |
           -------------------------------------------------

 * finished run on 2025/09/04 at 12:36:42.433
