   * xtb version 6.7.1 (edcfbbe) compiled by 'albert@albert-system' on 2024-07-22

   ID    Z sym.   atoms
    1    8 O      1, 10, 22, 30, 38, 46
    2    6 C      2-9, 11-13, 15-21, 23-29, 31-37, 39-45, 47-49
    3    7 N      14
    4    1 H      50-70

          program call               : xtb data2507/gas/NAQ3/NAQ3_gas_S0_finalOpt.xtbopt.xyz --gfn 2 --spinpol --tblite --uhf 2 --ohess vtight --parallel 40 --molden --ceasefiles --namespace data2507/gas/NAQ3/NAQ3_gas_T1_preOpt
 * total energy  :  -127.9064024 Eh     change        0.6104595E-07 Eh
 * total energy  :  -127.9074064 Eh     change       -0.1004034E-02 Eh
 * total energy  :  -127.9076884 Eh     change       -0.2819161E-03 Eh
 * total energy  :  -127.9078256 Eh     change       -0.1372422E-03 Eh
 * total energy  :  -127.9077742 Eh     change        0.5141877E-04 Eh
 * total energy  :  -127.9080186 Eh     change       -0.2444261E-03 Eh
 * total energy  :  -127.9080608 Eh     change       -0.4222234E-04 Eh
 * total energy  :  -127.9081033 Eh     change       -0.4252170E-04 Eh
 * total energy  :  -127.9081064 Eh     change       -0.3079948E-05 Eh
 * total energy  :  -127.9081094 Eh     change       -0.3006707E-05 Eh
 * total energy  :  -127.9081441 Eh     change       -0.3654214E-06 Eh
 * total energy  :  -127.9081446 Eh     change       -0.4828662E-06 Eh
 * total energy  :  -127.9081446 Eh     change       -0.3671202E-07 Eh
 * total energy  :  -127.9081449 Eh     change       -0.3427833E-06 Eh
 * total energy  :  -127.9081452 Eh     change       -0.2795747E-06 Eh
 * total energy  :  -127.9081455 Eh     change       -0.2668215E-06 Eh
 * total energy  :  -127.9081456 Eh     change       -0.7485480E-07 Eh
 * total energy  :  -127.9081458 Eh     change       -0.2148046E-06 Eh
 * total energy  :  -127.9081458 Eh     change       -0.1572450E-07 Eh
   *** GEOMETRY OPTIMIZATION CONVERGED AFTER 34 ITERATIONS ***

 final structure:
================
70
 xtb: 6.7.1 (edcfbbe)
O           -3.57153022048839       -5.03953005736168       -1.84033079639842
C           -3.74219027880455       -4.12825985401509       -1.02693319663845
C           -5.00982951651385       -3.92149944731521       -0.32817603127343
C           -6.07286745325161       -4.78609170915016       -0.62100578643241
C           -7.29165619165950       -4.62638941754315       -0.00545137109419
C           -7.47896976037423       -3.60150826092771        0.92179919356557
C           -6.44645916256577       -2.74570940025686        1.22291774861237
C           -5.19576535016783       -2.89502894209293        0.60750325282933
C           -4.13466573459754       -1.96374187534988        0.97927096011028
O           -4.28543046626483       -1.07663399318118        1.81980108391099
C           -2.87112263679346       -2.16237814654439        0.26937034656176
C           -1.82509307655706       -1.28077040072732        0.53671275875859
C           -0.60002247014774       -1.41941503552375       -0.09635307591630
N            0.43259569446440       -0.52169265304706        0.18137339237289
C            0.13386604402891        0.82717337363343        0.37500922580039
C            0.83715837649521        1.59048651004562        1.31578780611348
C            0.51790499108593        2.91591697935146        1.50259985274143
C           -0.50594668945321        3.52242793258614        0.77265934232839
C           -1.20453020824569        2.76396879062219       -0.17720885941363
C           -0.88155656855577        1.42886585574472       -0.36598818825245
C           -2.28931019067981        3.34568729456003       -1.00309631391099
O           -2.87725497752543        2.68644880935099       -1.84046505783964
C           -2.60424962685347        4.76306737714223       -0.74511097817254
C           -3.62465365913302        5.36374671849362       -1.48048835288395
C           -3.95309539902479        6.69062472615974       -1.27765661729961
C           -3.26347600182912        7.43844170878584       -0.33325052762630
C           -2.24975847342096        6.85495021977045        0.40311279701144
C           -1.90852080467771        5.51801630992575        0.20969498173857
C           -0.81881383434264        4.94223334957692        1.02426211176031
O           -0.21198779044678        5.59735906194911        1.85334440553987
C            1.74390241112647       -0.97725289900948        0.27222827924949
C            2.02155083743800       -2.26381471638943        0.75697867495431
C            3.32148159793932       -2.70748898999480        0.82701549925413
C            4.38610033626829       -1.89596875451212        0.42859531628439
C            4.11212531491923       -0.61120694134557       -0.06277553148266
C            2.80097473638817       -0.16533137680304       -0.13654153740413
C            5.18796520998353        0.29983759834753       -0.51857198297133
O            4.94209147740349        1.41527528970661       -0.94250027699407
C            6.56044963662053       -0.22758179083042       -0.42242692351735
C            7.61658026502906        0.58183849282099       -0.83887420710774
C            8.92058888560790        0.13092922831748       -0.76965057134859
C            9.18915885721548       -1.14023381767550       -0.27996972490139
C            8.15206169944119       -1.95253967119987        0.13715688283864
C            6.83175496232069       -1.51129792465276        0.07282447601512
C            5.76071867535861       -2.41782212575005        0.53210542257740
O            5.99430493650979       -3.53353598182754        0.96618895425800
C           -0.40611843965507       -2.47872335964800       -1.00728295422328
C           -1.42690818804510       -3.35002556743569       -1.26934676985195
C           -2.68767263113823       -3.19412396774473       -0.66789788106218
H           -5.90084026202976       -5.56861357344336       -1.34506234596865
H           -8.10497585262370       -5.29589104161682       -0.24237360271762
H           -8.43607629221938       -3.48001926269914        1.40668950830718
H           -6.56265673767471       -1.94462325976811        1.93775151082880
H           -1.98974031084122       -0.49814413535866        1.26284023240982
H            1.61397278554249        1.12845383733893        1.90632170040452
H            1.04357444981321        3.51399730326186        2.23182753239436
H           -1.42708283567954        0.87109901571667       -1.11327436302513
H           -4.14741519799897        4.76297504255413       -2.20997810588702
H           -4.74528325674754        7.14432375881754       -1.85417098935102
H           -3.51806914400254        8.47541314412510       -0.17308269444656
H           -1.70036954161550        7.41785083361420        1.14318690997330
H            1.21124353231890       -2.89223691692237        1.09454884047935
H            3.55054256009719       -3.69164818740559        1.20767466656989
H            2.61888491394407        0.82005805864202       -0.54046356741536
H            7.38406843598221        1.56677352362389       -1.21600912120239
H            9.72938518272256        0.76710448051892       -1.09655968790977
H           10.20753782250192       -1.49467109550176       -0.22468890201806
H            8.33786468395862       -2.94441358083340        0.52195607329977
H            0.54145000380132       -2.57433355593584       -1.51551550966794
H           -1.31092423242775       -4.15843298033130       -1.97604666223128

 projected vibrational frequencies (cm⁻¹)
eigval :       -0.00    -0.00    -0.00     0.00     0.00     0.00
eigval :       12.66    13.47    15.01    18.61    22.19    29.36
eigval :       33.62    38.31    44.63    83.75    91.26   102.82
eigval :      104.62   105.45   116.26   127.01   131.13   136.16
eigval :      146.01   149.23   158.19   165.49   186.97   202.48
eigval :      213.52   246.53   253.78   259.05   274.41   280.23
eigval :      292.47   311.79   328.77   357.31   367.84   369.21
eigval :      369.57   371.30   375.54   382.73   388.35   391.22
eigval :      395.65   401.77   403.79   406.39   410.35   422.42
eigval :      424.95   437.65   448.91   453.26   473.55   476.03
eigval :      499.77   509.90   515.41   531.61   577.25   583.17
eigval :      599.29   601.79   608.58   614.19   620.87   625.71
eigval :      628.06   639.98   649.58   653.20   664.05   669.38
eigval :      670.08   680.70   681.95   683.83   685.36   685.58
eigval :      689.84   726.62   765.82   768.31   770.42   770.52
eigval :      779.01   788.54   789.12   817.47   823.33   839.17
eigval :      841.86   868.55   875.58   880.07   881.58   890.71
eigval :      893.07   895.71   895.79   913.20   917.11   917.55
eigval :      919.38   926.25   926.98   929.90   930.07   933.18
eigval :      933.44   941.85   950.79   977.45  1016.60  1032.47
eigval :     1077.55  1081.05  1081.41  1082.53  1084.19  1084.53
eigval :     1116.12  1117.12  1118.89  1143.36  1155.04  1162.50
eigval :     1167.11  1171.17  1173.83  1175.70  1182.69  1186.01
eigval :     1192.71  1208.68  1215.87  1217.60  1220.52  1226.84
eigval :     1232.00  1236.48  1239.77  1249.84  1251.12  1261.09
eigval :     1268.42  1288.39  1298.75  1314.85  1332.43  1334.90
eigval :     1343.78  1350.60  1363.32  1378.52  1393.51  1402.18
eigval :     1409.90  1418.94  1420.01  1420.90  1430.60  1447.36
eigval :     1447.65  1451.49  1453.89  1494.41  1510.77  1517.09
eigval :     1535.50  1539.47  1545.85  1548.30  1550.44  1560.25
eigval :     1568.71  1571.17  1572.41  1572.74  1580.38  1628.94
eigval :     1655.40  1669.27  1675.63  3081.36  3084.06  3084.11
eigval :     3087.17  3088.42  3089.76  3090.53  3090.62  3091.05
eigval :     3091.50  3092.28  3093.81  3095.48  3096.95  3097.02
eigval :     3097.03  3098.60  3100.30  3100.42  3100.80  3101.29

   temp. (K)  partition function   enthalpy   heat capacity  entropy
                                   cal/mol     cal/K/mol   cal/K/mol   J/K/mol
 298.15  VIB  0.249E+18            22168.614    138.101    136.872
         ROT  0.110E+09              888.752      2.981     39.769
         INT  0.273E+26            23057.366    141.082    176.641
         TR   0.155E+29             1481.254      4.968     45.210
         TOT                       24538.6200   146.0503   221.8510   928.2248

       T/K    H(0)-H(T)+PV         H(T)/Eh          T*S/Eh         G(T)/Eh
   ------------------------------------------------------------------------
    298.15    0.391048E-01    0.533131E+00    0.105409E+00    0.427723E+00
   ------------------------------------------------------------------------

         :::::::::::::::::::::::::::::::::::::::::::::::::::::
         ::                  THERMODYNAMIC                  ::
         :::::::::::::::::::::::::::::::::::::::::::::::::::::
         :: total free energy        -127.480423027603 Eh   ::
         ::.................................................::
         :: total energy             -127.908145878043 Eh   ::
         :: zero point energy           0.494026658177 Eh   ::
         :: G(RRHO) w/o ZPVE           -0.066303807737 Eh   ::
         :: G(RRHO) contrib.            0.427722850440 Eh   ::
         :::::::::::::::::::::::::::::::::::::::::::::::::::::

           -------------------------------------------------
          | TOTAL ENERGY             -127.908145878043 Eh   |
          | TOTAL ENTHALPY           -127.375014439832 Eh   |
          | TOTAL FREE ENERGY        -127.480423027603 Eh   |
          | GRADIENT NORM               0.000095085464 Eh/α |
           -------------------------------------------------

 * finished run on 2025/08/21 at 17:31:26.357
