   * xtb version 6.7.1 (edcfbbe) compiled by 'albert@albert-system' on 2024-07-22

   ID    Z sym.   atoms
    1    8 O      1, 10, 22, 30, 38, 46
    2    6 C      2-9, 11-13, 15-21, 23-29, 31-37, 39-45, 47-49
    3    7 N      14
    4    1 H      50-70

          program call               : xtb data2507/gas/NAQ3/NAQ3_gas_S0_crest.xyz --gfn 2 --ohess vtight --parallel 40 --molden --ceasefiles --namespace data2507/gas/NAQ3/NAQ3_gas_S0_finalOpt
          :  Hamiltonian                  GFN2-xTB          :
 * total energy  :  -127.9639060 Eh     change       -0.2779700E-08 Eh
 * total energy  :  -127.9639069 Eh     change       -0.8720983E-06 Eh
 * total energy  :  -127.9639080 Eh     change       -0.1071123E-05 Eh
 * total energy  :  -127.9639097 Eh     change       -0.1707642E-05 Eh
 * total energy  :  -127.9639101 Eh     change       -0.3909506E-06 Eh
 * total energy  :  -127.9639106 Eh     change       -0.4683333E-06 Eh
 * total energy  :  -127.9639110 Eh     change       -0.4136815E-06 Eh
 * total energy  :  -127.9639112 Eh     change       -0.2344433E-06 Eh
 * total energy  :  -127.9639112 Eh     change        0.3714651E-07 Eh
 * total energy  :  -127.9639113 Eh     change       -0.1526160E-06 Eh
 * total energy  :  -127.9639114 Eh     change       -0.6982242E-07 Eh
   *** GEOMETRY OPTIMIZATION CONVERGED AFTER 11 ITERATIONS ***

 final structure:
================
70
 xtb: 6.7.1 (edcfbbe)
O           -3.57576022599386       -5.13246287845462       -1.71089391734539
C           -3.75663083542174       -4.19173597317100       -0.95940465169064
C           -5.06658804494481       -3.94227645294880       -0.31697122568853
C           -6.12611975980063       -4.79690317701154       -0.60955099606291
C           -7.36780196106802       -4.60551536415810       -0.03154002066215
C           -7.56621620632969       -3.55411218535880        0.85143016133249
C           -6.52180167917337       -2.69945254444519        1.15209753871306
C           -5.26699212377297       -2.88033120847872        0.57489231038941
C           -4.18250173618689       -1.94210654915170        0.92958200339496
O           -4.34046653236172       -1.03652281457664        1.72561415092328
C           -2.88240503607091       -2.16879851339795        0.25454970499085
C           -1.84123685425090       -1.29471909159661        0.52820268439783
C           -0.59463155380818       -1.45364578883111       -0.07379083809858
N            0.43872055571007       -0.55479053780300        0.20281950166148
C            0.13935470885848        0.79772251554200        0.39580147410247
C            0.84195457269500        1.55926651223008        1.33427836928039
C            0.52844374068097        2.88778912898899        1.51958333533725
C           -0.48880054409282        3.49862409546160        0.78649417279453
C           -1.19364650549209        2.73912117471530       -0.15621196980451
C           -0.87329919003348        1.40299990344130       -0.34479131460817
C           -2.28210486033984        3.32021077005053       -0.97749673558089
O           -2.88511849526031        2.65874783782037       -1.80076933909785
C           -2.58594600292052        4.74507863267302       -0.73318879956883
C           -3.60151399597023        5.34751803002762       -1.47220547494805
C           -3.91979790133337        6.67901866865699       -1.27886166909870
C           -3.22374416619213        7.42778969028237       -0.34115075590066
C           -2.21318287998494        6.84126390532968        0.39857934040597
C           -1.88296687990531        5.50131259461549        0.21396143502760
C           -0.79173566581492        4.92169426578172        1.02921512847052
O           -0.18132723026857        5.58083854459499        1.85065927838595
C            1.75839967346388       -0.99874936968752        0.28012267591340
C            2.05779783443957       -2.26382713911631        0.79763662800669
C            3.36513583120245       -2.69022492403434        0.87015910123693
C            4.41503705953148       -1.87954194384998        0.43766673735971
C            4.12022130588230       -0.61064800244510       -0.07838503099918
C            2.80277839875652       -0.18452123831621       -0.15538150390290
C            5.18172751022651        0.30680621517807       -0.55685745891451
O            4.92170220532857        1.40834781593952       -1.00174373763435
C            6.56666406940058       -0.19626266870680       -0.45339145893225
C            7.60808929968039        0.62173027800594       -0.88576652528336
C            8.92030497642702        0.19328964448423       -0.80753121234976
C            9.20864958054512       -1.06315908902729       -0.29498176121264
C            8.18351036105758       -1.88477741788170        0.13699468210649
C            6.85790934479906       -1.46524152199421        0.06445393896772
C            5.79693777290129       -2.38265925260522        0.53767567654846
O            6.05123431361078       -3.48802170017251        0.98084120653669
C           -0.40016201413979       -2.51809587040172       -0.95955041431241
C           -1.43173124495182       -3.39038501229403       -1.22843318053596
C           -2.68379879762058       -3.23381680919923       -0.63371735966701
H           -5.94930252180836       -5.60973781949491       -1.29838724433948
H           -8.18134771584546       -5.27494707352458       -0.26785415870188
H           -8.53465237168443       -3.40238877468540        1.30411944566876
H           -6.65334265150205       -1.87493866804604        1.83714163227099
H           -2.01992915400608       -0.49085723110097        1.22743340997609
H            1.62293336566616        1.09874013915780        1.92063814369192
H            1.05939263748697        3.48317350944812        2.24711071945478
H           -1.42471575211106        0.84615516250305       -1.08841446223636
H           -4.13013949223257        4.74565064063546       -2.19660084101136
H           -4.70940518414723        7.13437546191221       -1.85767559984445
H           -3.46982263492011        8.46792739298816       -0.18809585578878
H           -1.65830371333692        7.40569809768213        1.13341189419902
H            1.25902574096785       -2.89907484217211        1.15016162368597
H            3.60646627173563       -3.66177505752521        1.27472831430781
H            2.60562152224852        0.79215952156969       -0.57293205391635
H            7.36037252820013        1.59573342947865       -1.28123112810656
H            9.71875261853927        0.83688634320784       -1.14518505458914
H           10.23239501666258       -1.40061351063381       -0.23280212270464
H            8.38541306374991       -2.86665507070011        0.53899930600892
H            0.55800152123398       -2.64442185650085       -1.44114265419858
H           -1.29499492839074       -4.21024179270284       -1.91763854071100

          :  Hamiltonian                  GFN2-xTB          :
         :: gradient norm              0.000037837953 Eh/a0 ::
         :: HOMO-LUMO gap              1.501517962739 eV    ::
         :: SCC energy              -130.032705345414 Eh    ::
         :: -> dispersion             -0.100210966395 Eh    ::
         :: repulsion energy           2.068793956985 Eh    ::

    * Orbital Energies and Occupations

         #    Occupation            Energy/Eh            Energy/eV
      -------------------------------------------------------------
         1        2.0000           -0.7204473             -19.6044
       ...           ...                  ...                  ...
       103        2.0000           -0.4338507             -11.8057
       104        2.0000           -0.4325763             -11.7710
       105        2.0000           -0.4321903             -11.7605
       106        2.0000           -0.4312250             -11.7342
       107        2.0000           -0.4308473             -11.7240
       108        2.0000           -0.4295810             -11.6895
       109        2.0000           -0.4161136             -11.3230
       110        2.0000           -0.4148057             -11.2874
       111        2.0000           -0.4134078             -11.2494
       112        2.0000           -0.3989359             -10.8556
       113        2.0000           -0.3975296             -10.8173
       114        2.0000           -0.3960029             -10.7758
       115        2.0000           -0.3875733             -10.5464 (HOMO)
       116                         -0.3323934              -9.0449 (LUMO)
       117                         -0.3308377              -9.0026
       118                         -0.3261350              -8.8746
       119                         -0.2880580              -7.8385
       120                         -0.2859184              -7.7802
       121                         -0.2807649              -7.6400
       122                         -0.2598601              -7.0712
       123                         -0.2579693              -7.0197
       124                         -0.2532503              -6.8913
       125                         -0.2514227              -6.8416
       126                         -0.2495814              -6.7915
       ...                                ...                  ...
       217                          0.7273779              19.7930
      -------------------------------------------------------------
                  HL-Gap            0.0551799 Eh            1.5015 eV

     #   Z          covCN         q      C6AA      α(0)
     1   8 O        0.858    -0.366    21.009     6.145
     2   6 C        2.830     0.224    23.288     7.908
     3   6 C        2.974    -0.011    28.290     8.725
     4   6 C        2.924    -0.015    28.389     8.738
     5   6 C        2.918    -0.019    28.483     8.752
     6   6 C        2.917    -0.020    28.499     8.754
     7   6 C        2.924    -0.015    28.378     8.736
     8   6 C        2.974    -0.012    28.312     8.728
     9   6 C        2.831     0.227    23.240     7.900
    10   8 O        0.858    -0.362    20.928     6.133
    11   6 C        2.974    -0.010    28.252     8.719
    12   6 C        2.927    -0.033    28.827     8.805
    13   6 C        2.924     0.071    26.409     8.427
    14   7 N        2.753    -0.050    22.205     6.999
    15   6 C        2.924     0.071    26.404     8.427
    16   6 C        2.919    -0.038    28.935     8.821
    17   6 C        2.923    -0.014    28.355     8.732
    18   6 C        2.974    -0.017    28.419     8.744
    19   6 C        2.974    -0.009    28.240     8.717
    20   6 C        2.927    -0.032    28.809     8.802
    21   6 C        2.831     0.227    23.235     7.899
    22   8 O        0.858    -0.362    20.935     6.135
    23   6 C        2.974    -0.012    28.307     8.727
    24   6 C        2.924    -0.015    28.379     8.736
    25   6 C        2.917    -0.020    28.502     8.755
    26   6 C        2.918    -0.019    28.484     8.752
    27   6 C        2.924    -0.015    28.388     8.737
    28   6 C        2.974    -0.011    28.283     8.724
    29   6 C        2.830     0.225    23.278     7.906
    30   8 O        0.858    -0.364    20.982     6.141
    31   6 C        2.922     0.071    26.413     8.428
    32   6 C        2.919    -0.041    29.021     8.834
    33   6 C        2.923    -0.016    28.406     8.740
    34   6 C        2.974    -0.020    28.492     8.756
    35   6 C        2.974    -0.011    28.292     8.725
    36   6 C        2.927    -0.035    28.882     8.813
    37   6 C        2.831     0.226    23.261     7.903
    38   8 O        0.858    -0.362    20.934     6.134
    39   6 C        2.974    -0.013    28.329     8.731
    40   6 C        2.924    -0.015    28.384     8.737
    41   6 C        2.917    -0.020    28.501     8.754
    42   6 C        2.918    -0.019    28.482     8.752
    43   6 C        2.924    -0.015    28.392     8.738
    44   6 C        2.974    -0.012    28.300     8.726
    45   6 C        2.830     0.224    23.301     7.910
    46   8 O        0.858    -0.367    21.030     6.148
    47   6 C        2.919    -0.040    28.986     8.829
    48   6 C        2.923    -0.015    28.392     8.738
    49   6 C        2.974    -0.018    28.451     8.749
    50   1 H        0.926     0.070     2.089     2.260
    51   1 H        0.926     0.050     2.325     2.385
    52   1 H        0.926     0.049     2.329     2.387
    53   1 H        0.926     0.068     2.103     2.268
    54   1 H        0.926     0.069     2.092     2.262
    55   1 H        0.926     0.050     2.321     2.382
    56   1 H        0.926     0.075     2.028     2.227
    57   1 H        0.926     0.069     2.093     2.263
    58   1 H        0.926     0.068     2.105     2.269
    59   1 H        0.926     0.049     2.333     2.388
    60   1 H        0.926     0.049     2.328     2.386
    61   1 H        0.926     0.070     2.089     2.260
    62   1 H        0.926     0.049     2.328     2.386
    63   1 H        0.926     0.074     2.045     2.237
    64   1 H        0.926     0.070     2.091     2.261
    65   1 H        0.926     0.069     2.100     2.266
    66   1 H        0.926     0.050     2.326     2.385
    67   1 H        0.926     0.050     2.323     2.384
    68   1 H        0.926     0.070     2.090     2.261
    69   1 H        0.926     0.050     2.322     2.383
    70   1 H        0.926     0.074     2.039     2.233

molecular dipole:
                 x           y           z       tot (Debye)
 q only:       -0.157       0.185      -0.049
   full:       -0.165       0.201      -0.067       0.683

 projected vibrational frequencies (cm⁻¹)
eigval :       -0.00    -0.00    -0.00     0.00     0.00     0.00
eigval :       12.28    12.98    14.91    18.71    20.95    29.02
eigval :       31.34    36.38    37.38    81.41    90.76   101.30
eigval :      102.73   103.27   104.02   126.96   130.74   132.17
eigval :      144.61   146.92   158.31   162.02   186.45   198.88
eigval :      210.52   245.45   253.28   257.93   275.54   278.01
eigval :      289.63   311.65   338.92   368.40   368.93   370.68
eigval :      371.44   372.57   373.04   386.77   390.60   392.14
eigval :      397.67   400.49   401.87   403.96   410.41   414.15
eigval :      425.70   435.47   448.33   450.80   474.01   474.33
eigval :      502.41   522.16   523.12   529.58   589.21   593.86
eigval :      609.31   611.24   616.34   625.36   625.56   630.57
eigval :      637.27   658.82   659.55   672.91   674.35   674.90
eigval :      682.95   683.78   685.71   687.70   688.96   689.30
eigval :      693.80   766.28   769.98   773.35   773.52   773.94
eigval :      790.15   790.98   791.10   817.78   841.45   844.46
eigval :      848.68   873.96   878.68   892.05   895.36   895.73
eigval :      896.87   898.35   899.73   924.49   927.89   929.48
eigval :      930.55   930.65   930.79   933.29   934.41   934.47
eigval :      934.63   953.66   953.85   987.75  1026.07  1037.85
eigval :     1081.90  1082.13  1082.85  1085.09  1085.17  1085.20
eigval :     1116.35  1117.27  1118.98  1152.15  1168.98  1169.83
eigval :     1174.54  1174.58  1174.63  1183.00  1195.93  1198.07
eigval :     1218.62  1219.79  1220.71  1228.15  1232.51  1234.65
eigval :     1239.87  1250.03  1250.81  1252.24  1269.77  1270.36
eigval :     1294.75  1309.97  1318.50  1332.37  1334.65  1334.98
eigval :     1340.19  1348.79  1349.84  1402.18  1410.00  1417.55
eigval :     1420.86  1421.08  1421.74  1456.48  1456.58  1456.69
eigval :     1463.82  1469.69  1471.46  1545.73  1553.06  1553.50
eigval :     1563.16  1564.13  1572.18  1575.10  1575.26  1575.33
eigval :     1576.06  1576.36  1580.38  1672.79  1673.76  1676.99
eigval :     1686.73  1687.32  1688.05  3083.31  3083.53  3083.89
eigval :     3088.85  3089.68  3090.02  3090.17  3090.38  3090.85
eigval :     3091.52  3093.33  3093.95  3096.19  3096.29  3096.42
eigval :     3099.81  3099.94  3100.19  3100.53  3101.09  3101.51

   temp. (K)  partition function   enthalpy   heat capacity  entropy
                                   cal/mol     cal/K/mol   cal/K/mol   J/K/mol
 298.15  VIB  0.430E+18            22104.336    136.709    136.986
         ROT  0.110E+09              888.752      2.981     39.775
         INT  0.473E+26            22993.088    139.690    176.760
         TR   0.155E+29             1481.254      4.968     45.210
         TOT                       24474.3420   144.6577   221.9704   928.7240

       T/K    H(0)-H(T)+PV         H(T)/Eh          T*S/Eh         G(T)/Eh
   ------------------------------------------------------------------------
    298.15    0.390023E-01    0.536445E+00    0.105465E+00    0.430979E+00
   ------------------------------------------------------------------------

         :::::::::::::::::::::::::::::::::::::::::::::::::::::
         ::                  THERMODYNAMIC                  ::
         :::::::::::::::::::::::::::::::::::::::::::::::::::::
         :: total free energy        -127.532932153097 Eh   ::
         ::.................................................::
         :: total energy             -127.963911388430 Eh   ::
         :: zero point energy           0.497442171248 Eh   ::
         :: G(RRHO) w/o ZPVE           -0.066462935915 Eh   ::
         :: G(RRHO) contrib.            0.430979235333 Eh   ::
         :::::::::::::::::::::::::::::::::::::::::::::::::::::

           -------------------------------------------------
          | TOTAL ENERGY             -127.963911388430 Eh   |
          | TOTAL ENTHALPY           -127.427466870535 Eh   |
          | TOTAL FREE ENERGY        -127.532932153097 Eh   |
          | GRADIENT NORM               0.000037788362 Eh/α |
          | HOMO-LUMO GAP               1.501521119742 eV   |
           -------------------------------------------------

 * finished run on 2025/08/21 at 17:31:15.163
