   * xtb version 6.7.1 (edcfbbe) compiled by 'albert@albert-system' on 2024-07-22

   ID    Z sym.   atoms
    1    8 O      1, 10, 22, 30, 38, 46
    2    6 C      2-9, 11-13, 15-21, 23-29, 31-37, 39-45, 47-49
    3    7 N      14
    4    1 H      50-70

          program call               : xtb data2507/gas/NAQ3/NAQ3_gas_T1_crest.xyz --gfn 2 --spinpol --tblite --uhf 2 --ohess vtight --parallel 40 --molden --ceasefiles --namespace data2507/gas/NAQ3/NAQ3_gas_T1_finalOpt
 * total energy  :  -127.9076975 Eh     change       -0.3682061E-08 Eh
 * total energy  :  -127.9077421 Eh     change       -0.4458080E-04 Eh
 * total energy  :  -127.9078139 Eh     change       -0.7176532E-04 Eh
 * total energy  :  -127.9079136 Eh     change       -0.9976999E-04 Eh
 * total energy  :  -127.8911449 Eh     change        0.1676872E-01 Eh
 * total energy  :  -127.9072093 Eh     change       -0.1606439E-01 Eh
 * total energy  :  -127.9080018 Eh     change       -0.7925190E-03 Eh
 * total energy  :  -127.9081170 Eh     change       -0.1151954E-03 Eh
 * total energy  :  -127.9081256 Eh     change       -0.8599599E-05 Eh
 * total energy  :  -127.9081290 Eh     change       -0.3325020E-05 Eh
 * total energy  :  -127.9081426 Eh     change       -0.2153152E-06 Eh
 * total energy  :  -127.9081432 Eh     change       -0.5860596E-06 Eh
 * total energy  :  -127.9081437 Eh     change       -0.4918278E-06 Eh
 * total energy  :  -127.9081440 Eh     change       -0.3775408E-06 Eh
 * total energy  :  -127.9081443 Eh     change       -0.2920592E-06 Eh
 * total energy  :  -127.9081445 Eh     change       -0.1332796E-06 Eh
 * total energy  :  -127.9081447 Eh     change       -0.2511270E-06 Eh
 * total energy  :  -127.9081448 Eh     change       -0.1190914E-06 Eh
 * total energy  :  -127.9081449 Eh     change       -0.5939633E-07 Eh
   *** GEOMETRY OPTIMIZATION CONVERGED AFTER 31 ITERATIONS ***

 final structure:
================
70
 xtb: 6.7.1 (edcfbbe)
O           -3.49979650787226       -5.09464173552610       -1.82486974344831
C           -3.68299825013777       -4.18258158835699       -1.01500200432872
C           -4.95323006126371       -3.99084527068683       -0.31665034848024
C           -6.00373404991622       -4.87217671375596       -0.60479955676099
C           -7.22459554106386       -4.72695698007959        0.01023941425136
C           -7.42657996817453       -3.70001832313351        0.93212343397449
C           -6.40642588565331       -2.82798390421802        1.22875111358132
C           -5.15369411540406       -2.96259903033563        0.61408074421937
C           -4.10577011507242       -2.01482912267980        0.98158906619122
O           -4.26893971962179       -1.12616982266102        1.81814583813138
C           -2.83949681657458       -2.19898850241926        0.27259954366277
C           -1.80583356588123       -1.30179646700777        0.53620621865062
C           -0.57891181218759       -1.42608518991529       -0.09626509605623
N            0.44177129069433       -0.51370582939294        0.17759969662586
C            0.12641896986570        0.83157792976236        0.36845689407043
C            0.82408312242464        1.60668379952432        1.30385573787981
C            0.48782320683568        2.92805393304849        1.48937112404959
C           -0.54858010647149        3.51867999542788        0.76413706444157
C           -1.24127583939739        2.74875044565984       -0.18081564945354
C           -0.90043439077345        1.41804311974525       -0.36913241933291
C           -2.33900556356361        3.31358198814188       -1.00136386671566
O           -2.91854287341397        2.64628146758235       -1.83819771020082
C           -2.67838552507943        4.72431989593285       -0.73780335130000
C           -3.71658004327574        5.30689479649135       -1.46275898436475
C           -4.06897093851568        6.62662935196683       -1.25353403630652
C           -3.38557139279508        7.38548690133731       -0.31342960338860
C           -2.35390029952043        6.82017661725464        0.41210141497799
C           -1.98872885868453        5.49050461311327        0.21245214325142
C           -0.88081506783990        4.93405462731848        1.01580971550636
O           -0.27536466737606        5.60058261073902        1.83680307771480
C            1.75873814765543       -0.95300800416697        0.27013711747728
C            2.05177715918858       -2.23258745346345        0.76410502074855
C            3.35690757997159       -2.66025372206368        0.83673179511196
C            4.41154485645012       -1.83901215339058        0.43179282135599
C            4.12210676742306       -0.56157767322675       -0.06966816596738
C            2.80567045546664       -0.13180918047270       -0.14588442974728
C            5.18688541535333        0.35823588707758       -0.53377927448149
O            4.92735867424251        1.46551540937374       -0.97061835148619
C            6.56598486618557       -0.14992614273936       -0.42874909203905
C            7.61265674344718        0.67032722215434       -0.84786226560009
C            8.92243556539688        0.23801554611928       -0.76941776357853
C            9.20638575272999       -1.02515613439390       -0.26787899600733
C            8.17874210137380       -1.84830660679960        0.15135434739288
C            6.85279666833163       -1.42579188390287        0.07791373725370
C            5.79236656066299       -2.34336892388949        0.53964495034853
O            6.03899615224448       -3.45392417222012        0.97958865481902
C           -0.37023328493650       -2.48670650123611       -1.00245013787075
C           -1.37873456082651       -3.37329653522550       -1.26070136409998
C           -2.64166158379093       -3.23223512873662       -0.66010009046107
H           -5.82057431056974       -5.65584340347398       -1.32487006971662
H           -8.02814003394911       -5.40944641173038       -0.22294059720851
H           -8.38533201880055       -3.58970714176970        1.41643214350091
H           -6.53410769494736       -2.02500217982347        1.93947959989511
H           -1.98137841245446       -0.51857838277588        1.25913253136854
H            1.60994492434124        1.15665458603234        1.89167636954211
H            1.00913362640524        3.53487756077355        2.21449544278433
H           -1.44171321555584        0.85152993390838       -1.11292089869404
H           -4.23410691967520        4.69785714107146       -2.18911876431159
H           -4.87505939717726        7.06618094729209       -1.82168046935257
H           -3.65899398718685        8.41685288068143       -0.14817395631152
H           -1.80873010003403        7.39197672620263        1.14846543371518
H            1.24908173944794       -2.86796088424108        1.10683019599871
H            3.59794356521564       -3.63867231216560        1.22472339973739
H            2.61151289430301        0.84821080213537       -0.55721885391138
H            7.36825774691785        1.64877884075676       -1.23425042509679
H            9.72381410890730        0.88252920943983       -1.09825941157521
H           10.22931635298647       -1.36493461730912       -0.20510434078384
H            8.37642319324233       -2.83441555741303        0.54495881111354
H            0.57869054307694       -2.57153841137749       -1.51006385389828
H           -1.25133186205289       -4.18321179159106       -1.96368952810672

 projected vibrational frequencies (cm⁻¹)
eigval :       -0.00    -0.00    -0.00     0.00     0.00     0.00
eigval :       12.69    13.44    14.98    18.97    21.93    29.35
eigval :       33.36    38.42    44.84    83.67    91.17   102.91
eigval :      104.65   105.49   116.30   127.08   131.78   135.77
eigval :      146.06   149.20   158.50   165.43   187.01   202.66
eigval :      213.58   246.54   253.71   259.18   274.49   280.36
eigval :      292.54   311.67   329.22   357.20   367.82   369.05
eigval :      369.64   371.19   375.49   382.66   388.27   391.37
eigval :      395.70   401.63   403.87   406.46   410.30   422.47
eigval :      424.90   437.75   448.96   453.07   473.72   476.01
eigval :      499.95   509.77   515.36   531.62   577.29   583.17
eigval :      599.42   601.79   608.63   613.92   620.68   625.90
eigval :      628.14   639.99   649.56   653.19   664.00   669.45
eigval :      670.23   680.75   682.14   683.92   685.34   685.58
eigval :      689.79   726.61   765.86   768.31   770.50   770.55
eigval :      779.03   788.58   789.20   817.46   823.22   839.10
eigval :      841.93   868.57   875.63   880.08   881.78   891.23
eigval :      893.20   895.77   895.87   913.36   917.17   917.58
eigval :      919.42   926.26   927.17   929.98   930.11   933.22
eigval :      933.48   941.76   950.79   977.79  1017.41  1032.15
eigval :     1076.88  1080.92  1081.46  1082.61  1084.44  1084.55
eigval :     1116.07  1117.18  1118.97  1142.46  1156.33  1161.22
eigval :     1167.38  1171.73  1173.81  1175.50  1183.12  1186.77
eigval :     1192.43  1208.63  1216.05  1217.71  1220.83  1227.06
eigval :     1232.11  1236.63  1239.73  1249.71  1251.09  1261.16
eigval :     1268.23  1288.18  1298.52  1314.95  1332.22  1334.85
eigval :     1343.79  1350.44  1363.33  1378.50  1393.60  1402.01
eigval :     1409.93  1419.14  1420.07  1421.05  1429.68  1447.34
eigval :     1448.02  1450.79  1454.01  1494.76  1511.08  1517.00
eigval :     1534.71  1539.28  1545.98  1548.14  1550.22  1560.47
eigval :     1568.20  1570.88  1572.35  1572.77  1580.49  1630.05
eigval :     1655.81  1669.45  1675.58  3081.24  3083.94  3083.98
eigval :     3087.14  3088.33  3089.69  3090.45  3090.52  3090.94
eigval :     3091.50  3092.09  3093.71  3095.33  3096.76  3096.78
eigval :     3096.88  3098.55  3100.15  3100.26  3100.72  3101.21

   temp. (K)  partition function   enthalpy   heat capacity  entropy
                                   cal/mol     cal/K/mol   cal/K/mol   J/K/mol
 298.15  VIB  0.247E+18            22166.701    138.097    136.852
         ROT  0.110E+09              888.752      2.981     39.769
         INT  0.270E+26            23055.453    141.078    176.621
         TR   0.155E+29             1481.254      4.968     45.210
         TOT                       24536.7071   146.0460   221.8315   928.1431

       T/K    H(0)-H(T)+PV         H(T)/Eh          T*S/Eh         G(T)/Eh
   ------------------------------------------------------------------------
    298.15    0.391017E-01    0.533133E+00    0.105399E+00    0.427734E+00
   ------------------------------------------------------------------------

         :::::::::::::::::::::::::::::::::::::::::::::::::::::
         ::                  THERMODYNAMIC                  ::
         :::::::::::::::::::::::::::::::::::::::::::::::::::::
         :: total free energy        -127.480411222313 Eh   ::
         ::.................................................::
         :: total energy             -127.908145009525 Eh   ::
         :: zero point energy           0.494031376300 Eh   ::
         :: G(RRHO) w/o ZPVE           -0.066297589088 Eh   ::
         :: G(RRHO) contrib.            0.427733787212 Eh   ::
         :::::::::::::::::::::::::::::::::::::::::::::::::::::

           -------------------------------------------------
          | TOTAL ENERGY             -127.908145009525 Eh   |
          | TOTAL ENTHALPY           -127.375011901542 Eh   |
          | TOTAL FREE ENERGY        -127.480411222313 Eh   |
          | GRADIENT NORM               0.000221457156 Eh/α |
           -------------------------------------------------

 * finished run on 2025/08/21 at 17:37:48.325
