   * xtb version 6.7.1 (edcfbbe) compiled by 'albert@albert-system' on 2024-07-22

   ID    Z sym.   atoms
    1    8 O      1, 10, 22, 30, 38, 46
    2    6 C      2-9, 11-13, 15-21, 23-29, 31-37, 39-45, 47-49
    3    7 N      14
    4    1 H      50-70

          program call               : xtb data2507/gas/NAQ3/NAQ3.xyz --gfn 2 --ohess vtight --parallel 40 --molden --ceasefiles --namespace data2507/gas/NAQ3/NAQ3_gas_S0_preOpt
          :  Hamiltonian                  GFN2-xTB          :
 * total energy  :  -127.9454546 Eh     change       -0.3691753E-08 Eh
 * total energy  :  -127.9560353 Eh     change       -0.1058071E-01 Eh
 * total energy  :  -127.9608087 Eh     change       -0.4773377E-02 Eh
 * total energy  :  -127.9623452 Eh     change       -0.1536526E-02 Eh
 * total energy  :  -127.9630536 Eh     change       -0.7084637E-03 Eh
 * total energy  :  -127.9632325 Eh     change       -0.1788791E-03 Eh
 * total energy  :  -127.9633115 Eh     change       -0.7898799E-04 Eh
 * total energy  :  -127.9633874 Eh     change       -0.7590244E-04 Eh
 * total energy  :  -127.9634658 Eh     change       -0.7842450E-04 Eh
 * total energy  :  -127.9635407 Eh     change       -0.7483850E-04 Eh
 * total energy  :  -127.9639095 Eh     change       -0.2222095E-06 Eh
 * total energy  :  -127.9639097 Eh     change       -0.2338044E-06 Eh
 * total energy  :  -127.9639100 Eh     change       -0.2494393E-06 Eh
 * total energy  :  -127.9639103 Eh     change       -0.2901927E-06 Eh
 * total energy  :  -127.9639106 Eh     change       -0.3151383E-06 Eh
 * total energy  :  -127.9639109 Eh     change       -0.3078194E-06 Eh
 * total energy  :  -127.9639111 Eh     change       -0.2401391E-06 Eh
 * total energy  :  -127.9639113 Eh     change       -0.1556535E-06 Eh
 * total energy  :  -127.9639114 Eh     change       -0.8488490E-07 Eh
   *** GEOMETRY OPTIMIZATION CONVERGED AFTER 62 ITERATIONS ***

 final structure:
================
70
 xtb: 6.7.1 (edcfbbe)
O           -3.63781024048918       -5.06553363601925       -1.80867261090634
C           -3.80819238766885       -4.13294657446413       -1.04467954054651
C           -5.11903917084018       -3.86903880662573       -0.40993940817569
C           -6.19149304603957       -4.69919983345904       -0.72500304479597
C           -7.43458180848623       -4.49362921856592       -0.15495267862051
C           -7.62145297136794       -3.45238743555247        0.74245768398420
C           -6.56413618448652       -2.62211865161365        1.06556500251157
C           -5.30772237809764       -2.81743775269854        0.49661100829841
C           -4.20916422104056       -1.90541000130927        0.87561969633496
O           -4.35721245592604       -1.01021915628514        1.68518710395215
C           -2.90767769762107       -2.14525116526281        0.20779945788444
C           -1.85298236784020       -1.29499518361748        0.50399821671046
C           -0.60425126512324       -1.46793851537640       -0.08965992551158
N            0.44403335006869       -0.59430765409859        0.21026771397617
C            0.17166363787617        0.76064191566472        0.42398235421658
C            0.88602774289633        1.49167811628493        1.37780951416515
C            0.60135764543768        2.82380054339891        1.58240621242061
C           -0.39827614883848        3.46855761590901        0.85416645978892
C           -1.11574753175323        2.73945180882980       -0.10290883941850
C           -0.82420747507276        1.39960866478345       -0.31108196584783
C           -2.18757253079515        3.35729487660668       -0.91925068960278
O           -2.80246143858534        2.72196004079983       -1.75422462997976
C           -2.45958107910983        4.78510190647486       -0.65520851890813
C           -3.45799202343175        5.42152766429802       -1.38910709113700
C           -3.74586072483755        6.75724413629081       -1.17795390770992
C           -3.03605615650165        7.47624886953276       -0.22734671943423
C           -2.04247690780032        6.85577903079729        0.50767413901826
C           -1.74304856987725        5.51117367066506        0.30528500885708
C           -0.66934474911380        4.89451532676247        1.11658827600883
O           -0.04752965218225        5.52727083147948        1.95015636743211
C            1.75395964856980       -1.06646833584711        0.29023478326617
C            2.02371412842125       -2.34390347916483        0.79337486689170
C            3.32160962789396       -2.79764759200481        0.86987875460454
C            4.39082104331777       -2.00313842107368        0.45505294997571
C            4.12555066298011       -0.72246356498161       -0.04775710539672
C            2.81764008865564       -0.26849704716236       -0.12816921196861
C            5.20875053636626        0.17842276374394       -0.50878827921093
O            4.97422471367103        1.28998079832870       -0.94277783587679
C            6.58236961927195       -0.35414660475541       -0.40231714926732
C            7.64307084152038        0.44678883231454       -0.81948951090713
C            8.94573125864483       -0.00920749700378       -0.73743397791894
C            9.20503731006401       -1.27641258345284       -0.23597342822575
C            8.16053426295577       -2.08136239983860        0.18072341844208
C            6.84423645826676       -1.63420561356350        0.10382183923744
C            5.76163731167147       -2.53493423791461        0.55977777300015
O            5.99041766704567       -3.64971333376199        0.99311853851904
C           -0.42187602794252       -2.52181699280240       -0.99056431984910
C           -1.46695825481122       -3.37040363870449       -1.28195003787751
C           -2.72101178920140       -3.19988884587520       -0.69532298804390
H           -6.02353058834004       -5.50444515322704       -1.42487936416821
H           -8.25821270748330       -5.14405445466119       -0.40876192584228
H           -8.59095212120696       -3.28963807358515        1.18900065019489
H           -6.68659222768123       -1.80597842339661        1.76222590522426
H           -2.02287406220193       -0.49900785457744        1.21434166871478
H            1.65367681215960        1.00484914782713        1.96051045437105
H            1.14201690788403        3.39585542101894        2.32140639324175
H           -1.38435260569315        0.86689790252912       -1.06577454873672
H           -3.99772224845421        4.84252035639862       -2.12387157560079
H           -4.52242628723209        7.23907450945738       -1.75296777074788
H           -3.25819860376967        8.51965855565963       -0.06055816414563
H           -1.47740323106284        7.39660775598012        1.25242600539571
H            1.20956931130583       -2.96716889069363        1.13185764957200
H            3.54027513026111       -3.77878621883586        1.26406300407096
H            2.64324169976469        0.71709275813291       -0.53479081544708
H            7.41785747821721        1.42969545730897       -1.20628496307209
H            9.75932479842386        0.62131000670665       -1.06340152533308
H           10.22127296803602       -1.63529652832282       -0.17065817547541
H            8.33973102993408       -3.07125348916152        0.57372987681875
H            0.53799581057001       -2.65849772135862       -1.46588481126512
H           -1.33936956415986       -4.18185770329589       -1.98274969212570

          :  Hamiltonian                  GFN2-xTB          :
         :: gradient norm              0.000023286894 Eh/a0 ::
         :: HOMO-LUMO gap              1.500507715944 eV    ::
         :: SCC energy              -130.032702247625 Eh    ::
         :: -> dispersion             -0.100210782861 Eh    ::
         :: repulsion energy           2.068790884792 Eh    ::

    * Orbital Energies and Occupations

         #    Occupation            Energy/Eh            Energy/eV
      -------------------------------------------------------------
         1        2.0000           -0.7204999             -19.6058
       ...           ...                  ...                  ...
       103        2.0000           -0.4338959             -11.8069
       104        2.0000           -0.4325544             -11.7704
       105        2.0000           -0.4322380             -11.7618
       106        2.0000           -0.4311980             -11.7335
       107        2.0000           -0.4308233             -11.7233
       108        2.0000           -0.4295528             -11.6887
       109        2.0000           -0.4161737             -11.3247
       110        2.0000           -0.4147784             -11.2867
       111        2.0000           -0.4133713             -11.2484
       112        2.0000           -0.3989927             -10.8571
       113        2.0000           -0.3975048             -10.8167
       114        2.0000           -0.3959699             -10.7749
       115        2.0000           -0.3875725             -10.5464 (HOMO)
       116                         -0.3324297              -9.0459 (LUMO)
       117                         -0.3308161              -9.0020
       118                         -0.3261218              -8.8742
       119                         -0.2880817              -7.8391
       120                         -0.2859071              -7.7799
       121                         -0.2807467              -7.6395
       122                         -0.2598923              -7.0720
       123                         -0.2579465              -7.0191
       124                         -0.2532911              -6.8924
       125                         -0.2514052              -6.8411
       126                         -0.2495641              -6.7910
       ...                                ...                  ...
       217                          0.7274033              19.7937
      -------------------------------------------------------------
                  HL-Gap            0.0551428 Eh            1.5005 eV

     #   Z          covCN         q      C6AA      α(0)
     1   8 O        0.858    -0.366    21.009     6.145
     2   6 C        2.830     0.224    23.288     7.908
     3   6 C        2.974    -0.011    28.290     8.725
     4   6 C        2.924    -0.015    28.389     8.738
     5   6 C        2.918    -0.019    28.483     8.752
     6   6 C        2.917    -0.020    28.499     8.754
     7   6 C        2.924    -0.015    28.378     8.736
     8   6 C        2.974    -0.012    28.312     8.728
     9   6 C        2.831     0.227    23.240     7.900
    10   8 O        0.858    -0.362    20.927     6.133
    11   6 C        2.974    -0.010    28.252     8.719
    12   6 C        2.927    -0.033    28.827     8.805
    13   6 C        2.924     0.071    26.409     8.427
    14   7 N        2.753    -0.050    22.205     6.999
    15   6 C        2.924     0.071    26.404     8.427
    16   6 C        2.919    -0.038    28.937     8.821
    17   6 C        2.923    -0.014    28.355     8.732
    18   6 C        2.974    -0.017    28.420     8.745
    19   6 C        2.974    -0.009    28.240     8.717
    20   6 C        2.927    -0.032    28.810     8.802
    21   6 C        2.831     0.227    23.235     7.899
    22   8 O        0.858    -0.362    20.935     6.134
    23   6 C        2.974    -0.012    28.307     8.727
    24   6 C        2.924    -0.015    28.379     8.736
    25   6 C        2.917    -0.020    28.502     8.755
    26   6 C        2.918    -0.019    28.484     8.752
    27   6 C        2.924    -0.015    28.388     8.737
    28   6 C        2.974    -0.011    28.283     8.724
    29   6 C        2.830     0.225    23.278     7.906
    30   8 O        0.858    -0.364    20.984     6.142
    31   6 C        2.923     0.071    26.413     8.428
    32   6 C        2.919    -0.041    29.019     8.834
    33   6 C        2.923    -0.016    28.406     8.740
    34   6 C        2.974    -0.020    28.490     8.755
    35   6 C        2.974    -0.011    28.292     8.725
    36   6 C        2.927    -0.035    28.880     8.813
    37   6 C        2.831     0.226    23.261     7.903
    38   8 O        0.858    -0.362    20.933     6.134
    39   6 C        2.974    -0.013    28.329     8.731
    40   6 C        2.924    -0.015    28.383     8.737
    41   6 C        2.917    -0.020    28.500     8.754
    42   6 C        2.918    -0.019    28.482     8.752
    43   6 C        2.924    -0.015    28.392     8.738
    44   6 C        2.974    -0.012    28.300     8.726
    45   6 C        2.830     0.224    23.301     7.910
    46   8 O        0.858    -0.367    21.029     6.148
    47   6 C        2.919    -0.040    28.987     8.829
    48   6 C        2.923    -0.015    28.392     8.738
    49   6 C        2.974    -0.018    28.452     8.749
    50   1 H        0.926     0.070     2.090     2.261
    51   1 H        0.926     0.050     2.325     2.385
    52   1 H        0.926     0.049     2.329     2.387
    53   1 H        0.926     0.068     2.103     2.268
    54   1 H        0.926     0.069     2.092     2.262
    55   1 H        0.926     0.050     2.322     2.383
    56   1 H        0.926     0.075     2.028     2.227
    57   1 H        0.926     0.069     2.093     2.262
    58   1 H        0.926     0.068     2.105     2.269
    59   1 H        0.926     0.049     2.333     2.388
    60   1 H        0.926     0.049     2.328     2.386
    61   1 H        0.926     0.070     2.089     2.260
    62   1 H        0.926     0.049     2.328     2.386
    63   1 H        0.926     0.074     2.045     2.236
    64   1 H        0.926     0.070     2.090     2.261
    65   1 H        0.926     0.069     2.100     2.266
    66   1 H        0.926     0.050     2.325     2.385
    67   1 H        0.926     0.050     2.323     2.383
    68   1 H        0.926     0.070     2.090     2.261
    69   1 H        0.926     0.050     2.323     2.384
    70   1 H        0.926     0.074     2.039     2.233

molecular dipole:
                 x           y           z       tot (Debye)
 q only:       -0.147       0.186      -0.051
   full:       -0.154       0.203      -0.069       0.671

 projected vibrational frequencies (cm⁻¹)
eigval :       -0.00    -0.00    -0.00    -0.00     0.00     0.00
eigval :       12.28    12.97    14.90    18.71    20.95    29.01
eigval :       31.33    36.40    37.40    81.42    90.71   101.30
eigval :      102.73   103.27   104.02   126.91   130.75   132.20
eigval :      144.62   146.90   158.30   162.05   186.57   198.80
eigval :      210.51   245.43   253.27   257.96   275.60   277.88
eigval :      289.66   311.62   338.83   368.39   368.93   370.67
eigval :      371.43   372.58   373.03   386.74   390.67   392.19
eigval :      397.71   400.48   401.87   403.98   410.45   414.13
eigval :      425.71   435.51   448.24   450.80   474.00   474.33
eigval :      502.40   522.26   523.04   529.56   589.23   593.83
eigval :      609.33   611.25   616.31   625.37   625.53   630.57
eigval :      637.28   658.80   659.56   672.91   674.34   674.92
eigval :      682.93   683.76   685.72   687.70   689.01   689.25
eigval :      693.82   766.29   769.96   773.36   773.52   773.94
eigval :      790.15   790.99   791.11   817.77   841.48   844.44
eigval :      848.58   873.94   878.69   891.92   895.40   895.77
eigval :      896.86   898.41   899.89   924.47   927.91   929.45
eigval :      930.55   930.64   930.79   933.22   934.41   934.47
eigval :      934.64   953.67   953.84   987.73  1026.07  1037.81
eigval :     1081.90  1082.13  1082.85  1085.09  1085.17  1085.20
eigval :     1116.38  1117.31  1118.99  1152.10  1168.96  1169.86
eigval :     1174.54  1174.59  1174.64  1183.04  1195.95  1198.04
eigval :     1218.61  1219.75  1220.68  1228.14  1232.51  1234.63
eigval :     1239.88  1250.02  1250.80  1252.26  1269.83  1270.32
eigval :     1294.74  1309.85  1318.47  1332.43  1334.65  1334.99
eigval :     1340.23  1348.80  1349.84  1402.18  1409.97  1417.56
eigval :     1420.85  1421.08  1421.74  1456.48  1456.58  1456.70
eigval :     1463.82  1469.62  1471.44  1545.73  1553.06  1553.48
eigval :     1563.16  1564.12  1572.18  1575.09  1575.26  1575.34
eigval :     1576.06  1576.36  1580.35  1672.82  1673.74  1676.98
eigval :     1686.74  1687.34  1688.08  3083.30  3083.53  3083.90
eigval :     3088.84  3089.67  3090.01  3090.17  3090.39  3090.85
eigval :     3091.55  3093.27  3093.97  3096.18  3096.28  3096.44
eigval :     3099.80  3099.94  3100.20  3100.55  3101.10  3101.52

   temp. (K)  partition function   enthalpy   heat capacity  entropy
                                   cal/mol     cal/K/mol   cal/K/mol   J/K/mol
 298.15  VIB  0.431E+18            22104.505    136.710    136.989
         ROT  0.110E+09              888.752      2.981     39.776
         INT  0.474E+26            22993.258    139.690    176.764
         TR   0.155E+29             1481.254      4.968     45.210
         TOT                       24474.5115   144.6586   221.9747   928.7423

       T/K    H(0)-H(T)+PV         H(T)/Eh          T*S/Eh         G(T)/Eh
   ------------------------------------------------------------------------
    298.15    0.390026E-01    0.536444E+00    0.105467E+00    0.430976E+00
   ------------------------------------------------------------------------

         :::::::::::::::::::::::::::::::::::::::::::::::::::::
         ::                  THERMODYNAMIC                  ::
         :::::::::::::::::::::::::::::::::::::::::::::::::::::
         :: total free energy        -127.532935093698 Eh   ::
         ::.................................................::
         :: total energy             -127.963911362829 Eh   ::
         :: zero point energy           0.497441013807 Eh   ::
         :: G(RRHO) w/o ZPVE           -0.066464744676 Eh   ::
         :: G(RRHO) contrib.            0.430976269131 Eh   ::
         :::::::::::::::::::::::::::::::::::::::::::::::::::::

           -------------------------------------------------
          | TOTAL ENERGY             -127.963911362829 Eh   |
          | TOTAL ENTHALPY           -127.427467732354 Eh   |
          | TOTAL FREE ENERGY        -127.532935093698 Eh   |
          | GRADIENT NORM               0.000023332330 Eh/α |
          | HOMO-LUMO GAP               1.500511518103 eV   |
           -------------------------------------------------

 * finished run on 2025/08/21 at 17:27:15.545
