   * xtb version 6.7.1 (edcfbbe) compiled by 'albert@albert-system' on 2024-07-22

   ID    Z sym.   atoms
    1    6 C      1-9, 11-15, 19-21, 23-36, 38-57
    2    7 N      10, 22, 37
    3   16 S      16
    4    8 O      17, 18
    5    1 H      58-94

          program call               : xtb data2507/toluene/m-CZ-DPS-DMAC/m-CZ-DPS-DMAC_toluene_T1_crest.xyz --gfn 2 --uhf 2 --gbsa toluene --ohess vtight --parallel 40 --molden --ceasefiles --namespace data2507/toluene/m-CZ-DPS-DMAC/m-CZ-DPS-DMAC_toluene_T1_finalOpt
      * Solvation model:               GBSA
        Solvent                        toluene
        Solvent mass                       9.2140E+01 g/mol
          :  Hamiltonian                  GFN2-xTB          :
 * total energy  :  -148.2787329 Eh     change        0.1181374E-07 Eh
 * total energy  :  -148.2790692 Eh     change       -0.3362557E-03 Eh
 * total energy  :  -148.2793029 Eh     change       -0.2337469E-03 Eh
 * total energy  :  -148.2793316 Eh     change       -0.2864354E-04 Eh
 * total energy  :  -148.2793808 Eh     change       -0.4924706E-04 Eh
 * total energy  :  -148.2794047 Eh     change       -0.2386131E-04 Eh
 * total energy  :  -148.2794635 Eh     change       -0.5876960E-04 Eh
 * total energy  :  -148.2795173 Eh     change       -0.5383162E-04 Eh
 * total energy  :  -148.2795420 Eh     change       -0.2471112E-04 Eh
 * total energy  :  -148.2795949 Eh     change       -0.5294004E-04 Eh
 * total energy  :  -148.2801164 Eh     change       -0.1360694E-05 Eh
 * total energy  :  -148.2801177 Eh     change       -0.1348548E-05 Eh
 * total energy  :  -148.2801190 Eh     change       -0.1332321E-05 Eh
 * total energy  :  -148.2801203 Eh     change       -0.1263001E-05 Eh
 * total energy  :  -148.2801214 Eh     change       -0.1131681E-05 Eh
 * total energy  :  -148.2801224 Eh     change       -0.1001598E-05 Eh
 * total energy  :  -148.2801233 Eh     change       -0.8779757E-06 Eh
 * total energy  :  -148.2801242 Eh     change       -0.8629758E-06 Eh
 * total energy  :  -148.2801242 Eh     change       -0.7967458E-08 Eh
   *** GEOMETRY OPTIMIZATION CONVERGED AFTER 68 ITERATIONS ***

 final structure:
================
94
 xtb: 6.7.1 (edcfbbe)
C            5.96159047468877        1.43802815395073        1.40526169408195
C            5.15123725721022        0.26680437902379        1.99403120815108
C            5.52546476588808        0.06445406689816        3.47747056283634
C            3.67427646126130        0.58660829656961        1.92222612323233
C            3.18312012061574        1.72855316565432        2.54063474816773
C            1.83526762218607        2.03577706891028        2.54582026770821
C            0.93370531145005        1.17821880950524        1.93137052015364
C            1.38879031811072        0.04124497364291        1.30534279404604
C            2.75927026228178       -0.26393473655679        1.27682127016314
N            3.18987121426155       -1.39817854833700        0.62499789691499
C            2.21789633363938       -2.22205995863237       -0.01713823514075
C            1.73291906376046       -3.35662311908491        0.64950944775370
C            0.74231785897168       -4.12793636315982        0.03770046423478
C            0.23040227417300       -3.77167041476172       -1.18660828942051
C            0.73793903018676       -2.64804137970199       -1.85931532880094
S           -0.17731405535782       -1.93882433260997       -3.18820122731998
O            0.72215827549637       -1.22226521256851       -4.08143332953100
O           -1.01902267853477       -2.96322013988536       -3.78724058192561
C           -1.16103243877788       -0.77379084497227       -2.30953015862983
C           -2.19835401762356       -1.24888334899237       -1.49425766968762
C           -2.74953136334634       -0.41895861287405       -0.54035616119251
N           -3.78408933623432       -0.89072664267031        0.28418762682274
C           -5.01005899672951       -0.29062012683480        0.47397959712788
C           -5.53024143525272        0.85580100377191       -0.11057685743123
C           -6.81276045013352        1.23627007993266        0.23815691228028
C           -7.56877075113568        0.49054219085705        1.13995766012782
C           -7.06608213678706       -0.66757726032365        1.70703469688075
C           -5.78089989705181       -1.06817342640133        1.37180536230335
C           -4.96512684313655       -2.19701877458016        1.73272007649482
C           -5.15606370075769       -3.28799086983162        2.56801311281391
C           -4.12935692616647       -4.20611943838710        2.70211512354457
C           -2.92280347310379       -4.03939075996292        2.02577428035644
C           -2.70880012309322       -2.96166779304377        1.18607263230858
C           -3.74330398908372       -2.04802046612925        1.03209678403379
C           -2.26933938622513        0.89068452982443       -0.36068740799328
C           -1.23091475986475        1.36001852847859       -1.18425079623722
N           -0.73940585786353        2.66029644191614       -1.00282120500209
C            0.59449412782199        3.01376623719864       -0.93783297609693
C            1.73002002524982        2.22295891364190       -1.04468089934106
C            2.96297621269902        2.83659884764327       -0.93029646511308
C            3.07587154396779        4.20522956680160       -0.70103365453197
C            1.94974400221203        4.99752153574653       -0.57035779363515
C            0.70152107843742        4.40266451349605       -0.68566288060103
C           -0.64211096419595        4.90753832749926       -0.60837161805454
C           -1.17414471946562        6.17290415703274       -0.40654661267019
C           -2.54900127584593        6.32548202202119       -0.42955357728793
C           -3.38529380116609        5.23811891985051       -0.67007455357296
C           -2.87556276292909        3.96850434191685       -0.87247544985346
C           -1.49861578283921        3.79977723434515       -0.81730110149158
C           -0.68308536055660        0.53601923651448       -2.14909091359965
C            1.73990422395975       -1.87388268802844       -1.26090389692100
C            4.51649481102499       -1.75838455860911        0.57606363407511
C            4.89156857876709       -2.90675528363682       -0.13937717006556
C            6.20726136272379       -3.30566122137560       -0.18790954282793
C            7.17779672027729       -2.56474678044924        0.47364937250003
C            6.81520492885151       -1.42367051260201        1.16617900428741
C            5.49686334919364       -0.99294527076858        1.23164640329746
H            5.74940665772445        1.54086057070733        0.34363572137428
H            5.70753047439710        2.37029802093646        1.89909275753061
H            7.02668462136459        1.26732143889277        1.52704322928879
H            4.94576105319332       -0.75386037554064        3.89990032098316
H            6.58026963579433       -0.17282140789866        3.57734110143571
H            5.31862074437953        0.96434234119180        4.04864448794428
H            3.86562620975484        2.39839836964968        3.03876393558963
H            1.48740349110701        2.93429858849091        3.03121731797374
H           -0.12298681927357        1.39494512722078        1.93976229413681
H            0.68709373731254       -0.62072318052744        0.82361619289882
H            2.12051069697653       -3.61634527530846        1.62093115672471
H            0.36990116697706       -5.00650210912275        0.54266150406484
H           -0.54965952165306       -4.33950412871840       -1.66951560879031
H           -2.56363601405892       -2.25075716991464       -1.65404329096216
H           -4.95549597404599        1.41883985183936       -0.82883172269006
H           -7.23874927201288        2.12556371062325       -0.20209909284747
H           -8.56675292983742        0.81864871219382        1.38991054328511
H           -7.66208402565970       -1.25242611417567        2.39104012440755
H           -6.08571715557228       -3.41474557062745        3.10163139524346
H           -4.25969331526225       -5.06358260505128        3.34552620521417
H           -2.13627672651502       -4.76623898892744        2.16115400620699
H           -1.77087364290629       -2.83743487548862        0.66576616945645
H           -2.66635634385903        1.50603810992496        0.42902090058913
H            1.65264856020020        1.16112808274315       -1.20974896627631
H            3.85618056539886        2.23844257389182       -1.02614298508610
H            4.05645528027865        4.65004115959385       -0.62254985799484
H            2.03601983276486        6.05705232241439       -0.38390550539659
H           -0.52563778875084        7.02000833408082       -0.24306339130545
H           -2.98281221516447        7.30179237871791       -0.27277909020937
H           -4.45394283081217        5.38898147794294       -0.70551761701628
H           -3.52957381829639        3.13851457860024       -1.08434636059974
H            0.08034994295039        0.88011409766773       -2.82765606504257
H            2.11641464234453       -1.01535799522965       -1.79493124798730
H            4.13421379106230       -3.47465513921858       -0.65610762176960
H            6.47800050862136       -4.19198070799479       -0.74093806502495
H            8.21156170664821       -2.87281209128581        0.44404927691848
H            7.58468056253963       -0.85811292762252        1.66713374666715

          :  Hamiltonian                  GFN2-xTB          :
         :: gradient norm              0.000078473930 Eh/a0 ::
         :: HOMO-LUMO gap              0.206919736734 eV    ::
         :: SCC energy              -150.870689772338 Eh    ::
         :: -> dispersion             -0.152692648693 Eh    ::
         :: -> Gsolv                  -0.069918995249 Eh    ::
         :: repulsion energy           2.590565595466 Eh    ::

    * Orbital Energies and Occupations

         #    Occupation            Energy/Eh            Energy/eV
      -------------------------------------------------------------
         1        2.0000           -0.7516683             -20.4539
       ...           ...                  ...                  ...
       126        2.0000           -0.4132870             -11.2461
       127        2.0000           -0.4129077             -11.2358
       128        2.0000           -0.4123743             -11.2213
       129        2.0000           -0.4100953             -11.1593
       130        2.0000           -0.4072909             -11.0829
       131        2.0000           -0.4041840             -10.9984
       132        2.0000           -0.3933771             -10.7043
       133        2.0000           -0.3865548             -10.5187
       134        2.0000           -0.3860890             -10.5060
       135        1.9548           -0.3710027             -10.0955
       136        1.6157           -0.3685516             -10.0288
       137        1.4295           -0.3678340             -10.0093
       138        0.9802           -0.2610621              -7.1039 (HOMO)
       139        0.0163           -0.2534580              -6.8969 (LUMO)
       140        0.0034           -0.2519622              -6.8562
       141        0.0000           -0.2470042              -6.7213
       142                         -0.2382886              -6.4842
       143                         -0.2378897              -6.4733
       144                         -0.2372337              -6.4555
       145                         -0.2347503              -6.3879
       146                         -0.2321989              -6.3185
       147                         -0.2301957              -6.2639
       148                         -0.2298049              -6.2533
       149                         -0.2111620              -5.7460
       ...                                ...                  ...
       270                          1.1551222              31.4325
      -------------------------------------------------------------
                  HL-Gap            0.0076041 Eh            0.2069 eV

     #   Z          covCN         q      C6AA      α(0)
     1   6 C        3.761    -0.109    22.629     6.781
     2   6 C        3.909     0.025    20.090     6.371
     3   6 C        3.762    -0.109    22.636     6.782
     4   6 C        2.978     0.003    27.960     8.674
     5   6 C        2.925    -0.031    28.771     8.796
     6   6 C        2.917    -0.027    28.681     8.782
     7   6 C        2.918    -0.025    28.621     8.773
     8   6 C        2.922    -0.043    29.077     8.843
     9   6 C        2.931     0.063    26.597     8.458
    10   7 N        2.756    -0.008    21.419     6.874
    11   6 C        2.927     0.053    26.806     8.491
    12   6 C        2.917    -0.067    29.679     8.934
    13   6 C        2.916    -0.031    28.771     8.796
    14   6 C        2.954    -0.042    29.049     8.840
    15   6 C        2.965    -0.102    30.577     9.070
    16  16 S        3.853     0.869   110.487    17.691
    17   8 O        0.860    -0.596    26.017     6.839
    18   8 O        0.860    -0.597    26.048     6.843
    19   6 C        2.963    -0.105    30.654     9.081
    20   6 C        2.964    -0.054    29.335     8.884
    21   6 C        2.908     0.058    26.697     8.472
    22   7 N        2.803    -0.024    21.706     6.919
    23   6 C        3.076     0.048    26.838     8.494
    24   6 C        2.910    -0.044    29.093     8.845
    25   6 C        2.922    -0.032    28.809     8.802
    26   6 C        2.920    -0.036    28.896     8.815
    27   6 C        2.912    -0.031    28.770     8.795
    28   6 C        3.065    -0.014    28.293     8.722
    29   6 C        3.066    -0.014    28.289     8.721
    30   6 C        2.912    -0.031    28.779     8.797
    31   6 C        2.920    -0.036    28.892     8.814
    32   6 C        2.923    -0.032    28.803     8.801
    33   6 C        2.909    -0.044    29.103     8.846
    34   6 C        3.077     0.048    26.848     8.495
    35   6 C        2.920    -0.090    30.265     9.021
    36   6 C        2.906     0.060    26.644     8.464
    37   7 N        2.800    -0.021    21.657     6.912
    38   6 C        3.074     0.047    26.871     8.499
    39   6 C        2.910    -0.045    29.117     8.848
    40   6 C        2.923    -0.032    28.808     8.802
    41   6 C        2.920    -0.036    28.889     8.814
    42   6 C        2.912    -0.032    28.789     8.798
    43   6 C        3.066    -0.013    28.276     8.720
    44   6 C        3.065    -0.013    28.280     8.720
    45   6 C        2.912    -0.031    28.775     8.796
    46   6 C        2.920    -0.036    28.886     8.814
    47   6 C        2.922    -0.033    28.818     8.803
    48   6 C        2.910    -0.045    29.105     8.846
    49   6 C        3.073     0.047    26.861     8.498
    50   6 C        2.962    -0.056    29.383     8.891
    51   6 C        2.967    -0.050    29.228     8.868
    52   6 C        2.930     0.062    26.601     8.458
    53   6 C        2.922    -0.045    29.106     8.847
    54   6 C        2.917    -0.026    28.643     8.776
    55   6 C        2.917    -0.028    28.699     8.785
    56   6 C        2.924    -0.032    28.787     8.799
    57   6 C        2.978     0.002    27.982     8.677
    58   1 H        0.925     0.038     2.475     2.460
    59   1 H        0.925     0.056     2.246     2.343
    60   1 H        0.925     0.056     2.250     2.346
    61   1 H        0.925     0.040     2.454     2.450
    62   1 H        0.925     0.056     2.247     2.344
    63   1 H        0.925     0.056     2.243     2.342
    64   1 H        0.926     0.058     2.221     2.331
    65   1 H        0.926     0.050     2.325     2.384
    66   1 H        0.926     0.043     2.415     2.430
    67   1 H        0.926     0.036     2.496     2.471
    68   1 H        0.926     0.042     2.422     2.434
    69   1 H        0.926     0.044     2.396     2.420
    70   1 H        0.926     0.031     2.576     2.510
    71   1 H        0.926     0.036     2.503     2.474
    72   1 H        0.926     0.035     2.523     2.484
    73   1 H        0.926     0.039     2.462     2.454
    74   1 H        0.926     0.039     2.469     2.457
    75   1 H        0.926     0.041     2.440     2.443
    76   1 H        0.926     0.041     2.430     2.438
    77   1 H        0.926     0.039     2.461     2.453
    78   1 H        0.926     0.038     2.474     2.460
    79   1 H        0.926     0.031     2.570     2.507
    80   1 H        0.926     0.046     2.366     2.405
    81   1 H        0.926     0.029     2.605     2.524
    82   1 H        0.926     0.034     2.534     2.489
    83   1 H        0.926     0.042     2.419     2.432
    84   1 H        0.926     0.043     2.404     2.425
    85   1 H        0.926     0.042     2.428     2.437
    86   1 H        0.926     0.038     2.470     2.458
    87   1 H        0.926     0.039     2.466     2.456
    88   1 H        0.926     0.037     2.490     2.468
    89   1 H        0.926     0.042     2.428     2.437
    90   1 H        0.926     0.032     2.563     2.504
    91   1 H        0.926     0.043     2.407     2.426
    92   1 H        0.926     0.046     2.373     2.409
    93   1 H        0.926     0.050     2.323     2.384
    94   1 H        0.926     0.057     2.237     2.339

molecular dipole:
                 x           y           z       tot (Debye)
 q only:        2.619       2.602       5.814
   full:        2.468       2.289       5.320      16.002

 projected vibrational frequencies (cm⁻¹)
eigval :       -0.00    -0.00    -0.00    -0.00     0.00     0.00
eigval :        1.81     8.68    14.96    18.56    27.76    28.20
eigval :       37.96    39.27    42.57    51.13    57.75    65.80
eigval :       73.50    86.65    96.07    98.87   108.27   112.53
eigval :      119.32   126.34   129.20   138.70   147.52   150.68
eigval :      176.78   184.07   187.38   194.88   203.26   209.56
eigval :      217.09   225.60   238.65   241.78   255.24   256.33
eigval :      264.61   269.90   274.21   291.88   299.27   303.42
eigval :      319.62   325.29   329.48   343.73   365.61   366.27
eigval :      366.77   379.49   386.55   392.31   394.90   408.68
eigval :      415.53   420.65   422.82   432.59   433.26   439.96
eigval :      448.60   454.68   482.44   490.53   500.12   502.02
eigval :      515.30   515.49   516.11   525.65   535.84   536.19
eigval :      537.25   539.94   542.98   561.78   568.82   577.29
eigval :      584.82   587.67   589.69   610.91   618.49   632.27
eigval :      637.57   645.86   648.43   654.35   673.08   673.35
eigval :      688.17   689.60   704.14   708.42   709.13   737.34
eigval :      745.47   751.38   756.98   757.59   764.53   765.23
eigval :      768.71   770.18   772.55   774.37   775.34   778.40
eigval :      815.12   820.76   825.00   851.21   856.09   860.31
eigval :      869.94   870.78   871.14   871.42   874.75   892.94
eigval :      897.08   897.94   901.38   902.30   902.57   903.59
eigval :      912.01   915.02   915.72   916.15   916.91   919.43
eigval :      919.94   922.14   924.53   925.00   930.73   935.27
eigval :      956.28   972.30   983.89  1009.42  1010.69  1010.97
eigval :     1021.79  1042.26  1054.77  1060.94  1066.67  1068.15
eigval :     1069.33  1071.44  1078.85  1090.15  1103.42  1103.52
eigval :     1105.86  1108.99  1116.54  1136.36  1137.55  1140.90
eigval :     1142.07  1151.84  1156.96  1162.44  1165.41  1172.41
eigval :     1172.65  1173.80  1176.11  1180.50  1181.09  1187.89
eigval :     1196.52  1208.42  1220.12  1225.86  1228.60  1229.62
eigval :     1232.26  1238.38  1242.88  1254.33  1261.75  1280.52
eigval :     1285.38  1287.99  1290.30  1290.50  1298.97  1312.07
eigval :     1320.55  1326.01  1328.92  1333.65  1335.96  1340.77
eigval :     1343.91  1356.02  1359.98  1361.08  1372.39  1383.52
eigval :     1394.18  1398.43  1408.65  1410.34  1410.90  1412.66
eigval :     1415.42  1423.95  1427.76  1448.99  1450.14  1450.68
eigval :     1460.07  1461.56  1468.46  1477.54  1479.35  1479.68
eigval :     1480.20  1488.71  1492.07  1493.72  1540.36  1544.36
eigval :     1554.51  1558.93  1559.77  1566.04  1573.22  1577.40
eigval :     1577.56  1580.34  1581.63  1583.96  1597.51  3030.75
eigval :     3037.17  3051.43  3054.85  3057.40  3064.37  3078.10
eigval :     3078.53  3079.67  3080.10  3081.31  3081.62  3084.39
eigval :     3086.09  3088.18  3088.35  3089.48  3091.59  3093.26
eigval :     3093.94  3095.11  3095.44  3096.40  3096.73  3097.00
eigval :     3098.05  3099.91  3103.59  3104.91  3106.12  3107.62
eigval :     3108.61  3110.25  3110.66  3111.34  3114.20  3117.53

   temp. (K)  partition function   enthalpy   heat capacity  entropy
                                   cal/mol     cal/K/mol   cal/K/mol   J/K/mol
 298.15  VIB  0.978E+22            27814.064    176.350    173.477
         ROT  0.983E+08              888.752      2.981     39.554
         INT  0.962E+30            28702.816    179.331    213.031
         TR   0.201E+29             1481.254      4.968     45.727
         TOT                       30184.0704   184.2994   258.7577  1082.6422

       T/K    H(0)-H(T)+PV         H(T)/Eh          T*S/Eh         G(T)/Eh
   ------------------------------------------------------------------------
    298.15    0.481014E-01    0.765420E+00    0.122944E+00    0.642475E+00
   ------------------------------------------------------------------------

         :::::::::::::::::::::::::::::::::::::::::::::::::::::
         ::                  THERMODYNAMIC                  ::
         :::::::::::::::::::::::::::::::::::::::::::::::::::::
         :: total free energy        -147.637648699874 Eh   ::
         ::.................................................::
         :: total energy             -148.280124180525 Eh   ::
         :: zero point energy           0.717318229750 Eh   ::
         :: G(RRHO) w/o ZPVE           -0.074842749098 Eh   ::
         :: G(RRHO) contrib.            0.642475480651 Eh   ::
         :::::::::::::::::::::::::::::::::::::::::::::::::::::

           -------------------------------------------------
          | TOTAL ENERGY             -148.280124180525 Eh   |
          | TOTAL ENTHALPY           -147.514704572791 Eh   |
          | TOTAL FREE ENERGY        -147.637648699874 Eh   |
          | GRADIENT NORM               0.000077254069 Eh/α |
          | HOMO-LUMO GAP               0.206918116141 eV   |
           -------------------------------------------------

 * finished run on 2025/08/22 at 12:50:24.944
