   * xtb version 6.7.1 (edcfbbe) compiled by 'albert@albert-system' on 2024-07-22

   ID    Z sym.   atoms
    1    6 C      1-9, 11-15, 19-21, 23-36, 38-57
    2    7 N      10, 22, 37
    3   16 S      16
    4    8 O      17, 18
    5    1 H      58-94

          program call               : xtb data2507/toluene/m-CZ-DPS-DMAC/m-CZ-DPS-DMAC.xyz --gfn 2 --gbsa toluene --ohess vtight --parallel 40 --molden --ceasefiles --namespace data2507/toluene/m-CZ-DPS-DMAC/m-CZ-DPS-DMAC_toluene_S0_preOpt
      * Solvation model:               GBSA
        Solvent                        toluene
        Solvent mass                       9.2140E+01 g/mol
          :  Hamiltonian                  GFN2-xTB          :
 * total energy  :  -148.3453057 Eh     change       -0.8641621E-09 Eh
 * total energy  :  -148.3653420 Eh     change       -0.2003629E-01 Eh
 * total energy  :  -148.3712473 Eh     change       -0.5905250E-02 Eh
 * total energy  :  -148.3721475 Eh     change       -0.9001922E-03 Eh
 * total energy  :  -148.3725434 Eh     change       -0.3958963E-03 Eh
 * total energy  :  -148.3726899 Eh     change       -0.1465175E-03 Eh
 * total energy  :  -148.3727852 Eh     change       -0.9531466E-04 Eh
 * total energy  :  -148.3728553 Eh     change       -0.7011884E-04 Eh
 * total energy  :  -148.3729176 Eh     change       -0.6230522E-04 Eh
 * total energy  :  -148.3729729 Eh     change       -0.5525191E-04 Eh
 * total energy  :  -148.3736384 Eh     change       -0.1840377E-05 Eh
 * total energy  :  -148.3736401 Eh     change       -0.1728843E-05 Eh
 * total energy  :  -148.3736404 Eh     change       -0.3099338E-06 Eh
 * total energy  :  -148.3736418 Eh     change       -0.1388922E-05 Eh
 * total energy  :  -148.3736422 Eh     change       -0.3787695E-06 Eh
 * total energy  :  -148.3736426 Eh     change       -0.4780659E-06 Eh
 * total energy  :  -148.3736433 Eh     change       -0.6312080E-06 Eh
 * total energy  :  -148.3736436 Eh     change       -0.3412487E-06 Eh
 * total energy  :  -148.3736436 Eh     change       -0.4175772E-07 Eh
   *** GEOMETRY OPTIMIZATION CONVERGED AFTER 128 ITERATIONS ***

 final structure:
================
94
 xtb: 6.7.1 (edcfbbe)
C            6.97747176305214        0.27445632117087        1.80990220344655
C            6.17030224864203        0.09642159253462        0.50991321962231
C            6.80346240907338        0.91941007951509       -0.62778448441272
C            6.19514306407295       -1.36893833892357        0.11786860334632
C            7.41151636363847       -1.97894153746725       -0.16027038377195
C            7.49866514254911       -3.30168300323056       -0.55293841184151
C            6.33838981235628       -4.04190057079980       -0.69234663988148
C            5.11707802619194       -3.46172255848359       -0.41894163933540
C            5.02928919933726       -2.13328613034433        0.00714961407677
N            3.78544970972508       -1.58092174586138        0.29274405734392
C            2.62384938383764       -2.37537583339273        0.14552337772425
C            2.32609330205753       -3.37986724620952        1.06378087995405
C            1.17915297414243       -4.14360599208085        0.92212599796229
C            0.30236317253492       -3.89612399614839       -0.12280991723215
C            0.60592792003865       -2.89679230137531       -1.02779761571157
S           -0.56675669360077       -2.48469484678664       -2.32165730181070
O            0.14376188005591       -1.86686410840535       -3.41953140390141
O           -1.37679324175080       -3.64232636885034       -2.62628958652717
C           -1.60359081843694       -1.23663803008740       -1.54535079268638
C           -2.92419672842877       -1.52106388909347       -1.27624753042485
C           -3.71442995233547       -0.54556017794145       -0.66394305875212
N           -5.05520794100437       -0.80285312733801       -0.38135275676728
C           -6.12712304143687        0.01899358599797       -0.69146300391753
C           -6.14865207146350        1.23168650548230       -1.36475226634467
C           -7.37579299234797        1.83516767557408       -1.56982958852896
C           -8.55863975577340        1.24791032633325       -1.12707748668022
C           -8.54559393963685        0.02770845311764       -0.48035028459170
C           -7.32437188686336       -0.59726875163846       -0.26324969389710
C           -6.95109898212204       -1.84894341515052        0.33770566888878
C           -7.67339799982023       -2.86579797589396        0.94901922917273
C           -6.98689984910169       -3.95022476748873        1.45900239636899
C           -5.59798280458787       -4.02039940519906        1.37872037988016
C           -4.85831125586470       -3.02012755387054        0.77522888894644
C           -5.54507473356673       -1.94186706283938        0.23685381154669
C           -3.15566261644872        0.69033266460152       -0.34744597916311
C           -1.81694278875803        0.96063784855190       -0.62604456112207
N           -1.26445166321614        2.19790157555487       -0.30180222315768
C           -1.40764214497374        2.86293348891205        0.90632532436503
C           -2.05075089088962        2.46281063536279        2.06882880035889
C           -2.00635119237431        3.31380610706494        3.15814186014705
C           -1.33296528237549        4.53172517193222        3.10361606182018
C           -0.66719542960175        4.92250831248198        1.95840085974929
C           -0.69664788143452        4.08301154091564        0.85226503423142
C           -0.09908170031886        4.15381526364536       -0.45334147664262
C            0.69183613843538        5.10400602012725       -1.08583423304226
C            1.09933923713458        4.86680015906657       -2.38357252075958
C            0.71196883249704        3.70894981173932       -3.05383887145093
C           -0.07671031093025        2.75004011922129       -2.44487438499954
C           -0.46453801294788        2.96962949667821       -1.13116710722263
C           -1.02989627959490       -0.02402214653013       -1.22476852075093
C            1.75487518823962       -2.14186812690418       -0.91692527775421
C            3.64211658643937       -0.24422723248888        0.65052067108414
C            2.37486517532329        0.26231379147631        0.95625533721221
C            2.20278499149381        1.58320194359615        1.31476537737023
C            3.29734428254335        2.42558213547911        1.38222060628400
C            4.55463535534822        1.92054966621665        1.10884225045454
C            4.75719634471009        0.59401346142414        0.74993442423356
H            6.52257017690161       -0.30545867304867        2.61118101790075
H            8.00092658027145       -0.06553634503443        1.67906490955205
H            7.00011520160272        1.31779821827219        2.11181140546586
H            6.80539383616234        1.97845677975373       -0.38627948474305
H            7.82953459368890        0.61059327326226       -0.80576800307909
H            6.23792091697363        0.77811698096507       -1.54743177866126
H            8.32302908093979       -1.40777854308523       -0.07187180913323
H            8.46147693613242       -3.74481430205796       -0.75821431416916
H            6.37921320065819       -5.07133628835509       -1.01675879673712
H            4.21735948492899       -4.04358702401636       -0.54692040648620
H            3.00421118634064       -3.55860465853609        1.88474649420880
H            0.96262620766136       -4.92496120228636        1.63386182184375
H           -0.59894572792749       -4.47124498836701       -0.26116748574808
H           -3.32812302831383       -2.47649385491428       -1.56910584775101
H           -5.24279310628076        1.68778325388902       -1.73387790575868
H           -7.41708223811316        2.78141113500521       -2.08902694916870
H           -9.49728211341189        1.75186187632917       -1.30379160345252
H           -9.46353446402319       -0.43764846432493       -0.15459770018479
H           -8.74823267435823       -2.80294392224016        1.02665221280561
H           -7.52971283674331       -4.75315211847427        1.93542494495077
H           -5.08675747347166       -4.87319715820467        1.80060757013332
H           -3.78145356521854       -3.07685634051828        0.73386747333544
H           -3.76825193030942        1.44853030107460        0.11509034952282
H           -2.55682922167603        1.51201792886355        2.13536989633315
H           -2.50235952269908        3.02411971800611        4.07273959903216
H           -1.32421946826125        5.17017651310160        3.97453338236017
H           -0.12737631841535        5.85652063371892        1.92121076460047
H            0.97632658518509        6.00934807869761       -0.57137476660252
H            1.71834304208136        5.58999176058887       -2.89358867484175
H            1.03057464322033        3.55597339986649       -4.07462011153162
H           -0.38199692793619        1.86708407700766       -2.98607354294964
H            0.01126911800569        0.15303936504200       -1.43438113258687
H            1.97343070080358       -1.38885161616528       -1.65814196282928
H            1.51483078873150       -0.38898101746312        0.92331861663238
H            1.21517932172725        1.95124689309968        1.54793754863677
H            3.17553362269096        3.46153859387006        1.65878249927726
H            5.40296177081270        2.58341822375732        1.18473683721484

          :  Hamiltonian                  GFN2-xTB          :
         :: gradient norm              0.000156129390 Eh/a0 ::
         :: HOMO-LUMO gap              1.999554360574 eV    ::
         :: SCC energy              -150.982358632256 Eh    ::
         :: -> dispersion             -0.141994152648 Eh    ::
         :: -> Gsolv                  -0.062702410398 Eh    ::
         :: repulsion energy           2.608714982839 Eh    ::

    * Orbital Energies and Occupations

         #    Occupation            Energy/Eh            Energy/eV
      -------------------------------------------------------------
         1        2.0000           -0.7829534             -21.3052
       ...           ...                  ...                  ...
       125        2.0000           -0.4164988             -11.3335
       126        2.0000           -0.4109606             -11.1828
       127        2.0000           -0.4100882             -11.1591
       128        2.0000           -0.4100253             -11.1574
       129        2.0000           -0.4084738             -11.1151
       130        2.0000           -0.4054314             -11.0323
       131        2.0000           -0.3995658             -10.8727
       132        2.0000           -0.3941578             -10.7256
       133        2.0000           -0.3837567             -10.4426
       134        2.0000           -0.3836999             -10.4410
       135        2.0000           -0.3713836             -10.1059
       136        2.0000           -0.3710818             -10.0977
       137        2.0000           -0.3503096              -9.5324 (HOMO)
       138                         -0.2768274              -7.5329 (LUMO)
       139                         -0.2621412              -7.1332
       140                         -0.2592770              -7.0553
       141                         -0.2569244              -6.9913
       142                         -0.2490174              -6.7761
       143                         -0.2473171              -6.7298
       144                         -0.2270314              -6.1778
       145                         -0.2268654              -6.1733
       146                         -0.2262501              -6.1566
       147                         -0.2210285              -6.0145
       148                         -0.2200547              -5.9880
       ...                                ...                  ...
       270                          1.1682368              31.7893
      -------------------------------------------------------------
                  HL-Gap            0.0734823 Eh            1.9996 eV

     #   Z          covCN         q      C6AA      α(0)
     1   6 C        3.761    -0.105    22.552     6.770
     2   6 C        3.909     0.021    20.162     6.382
     3   6 C        3.761    -0.105    22.547     6.769
     4   6 C        2.979    -0.012    28.308     8.727
     5   6 C        2.928    -0.037    28.916     8.819
     6   6 C        2.917    -0.045    29.118     8.849
     7   6 C        2.919    -0.034    28.849     8.808
     8   6 C        2.924    -0.060    29.503     8.907
     9   6 C        2.926     0.056    26.733     8.479
    10   7 N        2.753    -0.069    22.570     7.056
    11   6 C        2.928     0.079    26.236     8.400
    12   6 C        2.921    -0.033    28.817     8.803
    13   6 C        2.921    -0.020    28.499     8.754
    14   6 C        2.954    -0.029    28.715     8.789
    15   6 C        2.971    -0.074    29.839     8.960
    16  16 S        3.827     0.953   108.004    17.491
    17   8 O        0.860    -0.576    25.540     6.776
    18   8 O        0.860    -0.570    25.391     6.756
    19   6 C        2.969    -0.073    29.821     8.957
    20   6 C        2.957    -0.048    29.182     8.861
    21   6 C        2.913     0.075    26.316     8.412
    22   7 N        2.801    -0.037    21.960     6.960
    23   6 C        3.068     0.045    26.930     8.509
    24   6 C        2.910    -0.052    29.280     8.873
    25   6 C        2.924    -0.033    28.819     8.804
    26   6 C        2.920    -0.040    28.994     8.830
    27   6 C        2.913    -0.033    28.819     8.803
    28   6 C        3.066    -0.015    28.311     8.725
    29   6 C        3.066    -0.015    28.311     8.725
    30   6 C        2.913    -0.033    28.823     8.803
    31   6 C        2.920    -0.040    28.997     8.831
    32   6 C        2.924    -0.033    28.823     8.804
    33   6 C        2.910    -0.051    29.275     8.872
    34   6 C        3.069     0.044    26.935     8.510
    35   6 C        2.925    -0.059    29.463     8.902
    36   6 C        2.912     0.076    26.312     8.411
    37   7 N        2.801    -0.037    21.951     6.958
    38   6 C        3.066     0.045    26.922     8.508
    39   6 C        2.910    -0.052    29.286     8.874
    40   6 C        2.924    -0.033    28.815     8.803
    41   6 C        2.920    -0.040    28.983     8.828
    42   6 C        2.912    -0.032    28.806     8.801
    43   6 C        3.065    -0.013    28.279     8.720
    44   6 C        3.066    -0.013    28.282     8.720
    45   6 C        2.913    -0.032    28.809     8.801
    46   6 C        2.920    -0.040    28.982     8.828
    47   6 C        2.924    -0.033    28.812     8.802
    48   6 C        2.910    -0.051    29.266     8.871
    49   6 C        3.067     0.045    26.916     8.507
    50   6 C        2.965    -0.051    29.271     8.874
    51   6 C        2.965    -0.037    28.905     8.819
    52   6 C        2.927     0.056    26.749     8.482
    53   6 C        2.924    -0.061    29.523     8.910
    54   6 C        2.919    -0.033    28.831     8.805
    55   6 C        2.917    -0.044    29.092     8.845
    56   6 C        2.928    -0.036    28.905     8.817
    57   6 C        2.979    -0.012    28.303     8.727
    58   1 H        0.925     0.032     2.557     2.501
    59   1 H        0.925     0.043     2.403     2.424
    60   1 H        0.925     0.043     2.403     2.424
    61   1 H        0.925     0.043     2.403     2.424
    62   1 H        0.925     0.043     2.406     2.426
    63   1 H        0.925     0.030     2.590     2.517
    64   1 H        0.926     0.036     2.504     2.475
    65   1 H        0.926     0.028     2.609     2.526
    66   1 H        0.926     0.029     2.605     2.524
    67   1 H        0.926     0.024     2.675     2.558
    68   1 H        0.926     0.071     2.071     2.250
    69   1 H        0.926     0.073     2.054     2.241
    70   1 H        0.926     0.065     2.145     2.290
    71   1 H        0.926     0.069     2.098     2.265
    72   1 H        0.926     0.032     2.559     2.502
    73   1 H        0.926     0.035     2.517     2.481
    74   1 H        0.926     0.033     2.538     2.491
    75   1 H        0.926     0.037     2.496     2.470
    76   1 H        0.926     0.037     2.494     2.470
    77   1 H        0.926     0.034     2.535     2.490
    78   1 H        0.926     0.035     2.513     2.479
    79   1 H        0.926     0.030     2.587     2.515
    80   1 H        0.926     0.074     2.038     2.232
    81   1 H        0.926     0.033     2.544     2.494
    82   1 H        0.926     0.035     2.510     2.478
    83   1 H        0.926     0.034     2.536     2.490
    84   1 H        0.926     0.036     2.497     2.471
    85   1 H        0.926     0.038     2.479     2.462
    86   1 H        0.926     0.034     2.534     2.489
    87   1 H        0.926     0.033     2.549     2.497
    88   1 H        0.926     0.029     2.604     2.524
    89   1 H        0.926     0.062     2.176     2.307
    90   1 H        0.926     0.061     2.187     2.312
    91   1 H        0.926     0.020     2.740     2.588
    92   1 H        0.926     0.026     2.641     2.541
    93   1 H        0.926     0.029     2.598     2.521
    94   1 H        0.926     0.037     2.492     2.468

molecular dipole:
                 x           y           z       tot (Debye)
 q only:        0.309       1.009       2.798
   full:        0.298       0.809       2.490       6.698

 projected vibrational frequencies (cm⁻¹)
eigval :       -0.00    -0.00    -0.00     0.00     0.00     0.00
eigval :        6.88    10.97    19.52    20.30    23.19    24.53
eigval :       26.22    30.02    39.98    44.80    53.28    68.51
eigval :       71.67    85.11    95.82    99.61   101.53   115.75
eigval :      117.76   131.85   138.92   139.23   145.67   148.33
eigval :      171.71   181.63   190.08   198.10   209.75   220.72
eigval :      224.67   240.55   242.41   247.76   253.18   259.40
eigval :      267.22   273.32   275.51   287.88   300.43   308.35
eigval :      314.72   327.77   332.37   346.32   364.59   368.90
eigval :      374.55   384.21   395.56   397.32   402.88   411.27
eigval :      416.48   422.87   423.45   436.82   438.56   451.81
eigval :      453.92   472.46   490.03   493.76   511.61   515.89
eigval :      516.94   520.04   527.76   539.55   540.94   541.85
eigval :      544.62   546.50   547.84   562.04   584.73   585.98
eigval :      588.04   603.54   610.59   611.89   619.41   639.15
eigval :      648.74   657.68   670.66   674.37   675.11   677.18
eigval :      684.45   694.54   695.38   709.18   709.93   748.44
eigval :      751.27   759.54   768.42   769.05   770.55   776.66
eigval :      777.56   779.36   780.28   783.39   800.25   825.20
eigval :      836.63   864.90   866.81   868.24   869.94   871.92
eigval :      880.40   889.60   895.11   896.74   898.42   899.12
eigval :      903.40   906.49   908.54   909.72   913.83   914.09
eigval :      914.97   919.31   921.66   923.90   924.34   925.83
eigval :      926.11   927.68   930.06   930.33   937.33   941.38
eigval :      959.26   992.26   994.43  1010.40  1011.64  1013.91
eigval :     1031.39  1069.92  1070.51  1073.46  1073.76  1074.67
eigval :     1076.01  1083.66  1102.85  1107.29  1112.29  1114.17
eigval :     1117.00  1119.62  1123.93  1139.88  1150.78  1151.77
eigval :     1158.75  1162.75  1166.65  1173.88  1176.39  1178.61
eigval :     1179.46  1181.48  1185.70  1186.97  1196.54  1200.59
eigval :     1201.40  1211.25  1230.81  1233.10  1233.61  1234.04
eigval :     1244.40  1248.74  1249.02  1267.36  1291.78  1292.87
eigval :     1292.95  1296.88  1298.98  1302.90  1309.39  1311.90
eigval :     1323.22  1331.71  1332.53  1332.87  1354.17  1354.30
eigval :     1355.54  1358.92  1372.02  1400.27  1412.27  1412.55
eigval :     1415.91  1418.94  1425.23  1425.95  1433.92  1438.66
eigval :     1448.82  1455.44  1457.59  1472.95  1473.80  1476.03
eigval :     1484.88  1484.90  1486.37  1487.87  1492.73  1496.69
eigval :     1502.81  1539.92  1553.22  1573.31  1574.60  1574.73
eigval :     1580.34  1586.55  1587.78  1588.16  1590.55  1591.30
eigval :     1597.45  1597.54  1600.10  1611.05  1611.27  3022.05
eigval :     3024.55  3041.35  3043.10  3049.52  3053.48  3074.32
eigval :     3074.62  3075.36  3076.77  3077.14  3080.33  3081.09
eigval :     3081.14  3081.46  3082.68  3082.81  3085.56  3087.22
eigval :     3088.41  3090.12  3090.53  3091.69  3092.08  3092.84
eigval :     3094.67  3094.97  3097.65  3097.65  3098.85  3101.55
eigval :     3101.79  3102.83  3109.84  3112.24  3117.20  3128.48

   temp. (K)  partition function   enthalpy   heat capacity  entropy
                                   cal/mol     cal/K/mol   cal/K/mol   J/K/mol
 298.15  VIB  0.317E+22            27521.996    173.361    170.202
         ROT  0.117E+09              888.752      2.981     39.902
         INT  0.371E+30            28410.748    176.342    210.104
         TR   0.201E+29             1481.254      4.968     45.727
         TOT                       29892.0018   181.3098   255.8309  1070.3966

       T/K    H(0)-H(T)+PV         H(T)/Eh          T*S/Eh         G(T)/Eh
   ------------------------------------------------------------------------
    298.15    0.476359E-01    0.770328E+00    0.121554E+00    0.648775E+00
   ------------------------------------------------------------------------

         :::::::::::::::::::::::::::::::::::::::::::::::::::::
         ::                  THERMODYNAMIC                  ::
         :::::::::::::::::::::::::::::::::::::::::::::::::::::
         :: total free energy        -147.724868713556 Eh   ::
         ::.................................................::
         :: total energy             -148.373643652162 Eh   ::
         :: zero point energy           0.722692528383 Eh   ::
         :: G(RRHO) w/o ZPVE           -0.073917589777 Eh   ::
         :: G(RRHO) contrib.            0.648774938606 Eh   ::
         :::::::::::::::::::::::::::::::::::::::::::::::::::::

           -------------------------------------------------
          | TOTAL ENERGY             -148.373643652162 Eh   |
          | TOTAL ENTHALPY           -147.603315186765 Eh   |
          | TOTAL FREE ENERGY        -147.724868713556 Eh   |
          | GRADIENT NORM               0.000156180647 Eh/α |
          | HOMO-LUMO GAP               1.999553867028 eV   |
           -------------------------------------------------

 * finished run on 2025/08/22 at 12:26:49.596
