   * xtb version 6.7.1 (edcfbbe) compiled by 'albert@albert-system' on 2024-07-22

   ID    Z sym.   atoms
    1    6 C      1-9, 11-15, 19-21, 23-36, 38-57
    2    7 N      10, 22, 37
    3   16 S      16
    4    8 O      17, 18
    5    1 H      58-94

          program call               : xtb data2507/toluene/m-CZ-DPS-DMAC/m-CZ-DPS-DMAC_toluene_S0_crest.xyz --gfn 2 --gbsa toluene --ohess vtight --parallel 40 --molden --ceasefiles --namespace data2507/toluene/m-CZ-DPS-DMAC/m-CZ-DPS-DMAC_toluene_S0_finalOpt
      * Solvation model:               GBSA
        Solvent                        toluene
        Solvent mass                       9.2140E+01 g/mol
          :  Hamiltonian                  GFN2-xTB          :
 * total energy  :  -148.3723797 Eh     change       -0.1041258E-08 Eh
 * total energy  :  -148.3725497 Eh     change       -0.1700205E-03 Eh
 * total energy  :  -148.3726758 Eh     change       -0.1260889E-03 Eh
 * total energy  :  -148.3727280 Eh     change       -0.5220371E-04 Eh
 * total energy  :  -148.3728035 Eh     change       -0.7546982E-04 Eh
 * total energy  :  -148.3728889 Eh     change       -0.8541257E-04 Eh
 * total energy  :  -148.3729692 Eh     change       -0.8032153E-04 Eh
 * total energy  :  -148.3730514 Eh     change       -0.8220248E-04 Eh
 * total energy  :  -148.3731441 Eh     change       -0.9269039E-04 Eh
 * total energy  :  -148.3732418 Eh     change       -0.9768339E-04 Eh
 * total energy  :  -148.3739169 Eh     change       -0.3223254E-06 Eh
 * total energy  :  -148.3739172 Eh     change       -0.2148337E-06 Eh
 * total energy  :  -148.3739173 Eh     change       -0.1185407E-06 Eh
 * total energy  :  -148.3739174 Eh     change       -0.1230785E-06 Eh
 * total energy  :  -148.3739176 Eh     change       -0.1630357E-06 Eh
 * total energy  :  -148.3739178 Eh     change       -0.2091046E-06 Eh
 * total energy  :  -148.3739180 Eh     change       -0.2030933E-06 Eh
 * total energy  :  -148.3739182 Eh     change       -0.2138794E-06 Eh
 * total energy  :  -148.3739182 Eh     change       -0.2454982E-08 Eh
   *** GEOMETRY OPTIMIZATION CONVERGED AFTER 68 ITERATIONS ***

 final structure:
================
94
 xtb: 6.7.1 (edcfbbe)
C            4.85393520755772        2.36401488194595       -0.30980828234803
C            4.58722205397080        2.09163833611545        1.18522491222622
C            5.16193429697534        3.25904543175126        1.98798199009608
C            3.09308708969998        1.91752923620934        1.40217879490545
C            2.27477318840099        2.84681876036030        2.02673847366175
C            0.92278357977832        2.60269467372231        2.19971780161494
C            0.37024667900220        1.40960719962826        1.76935700775425
C            1.16874732445217        0.46532551651248        1.15228391768094
C            2.51873887872700        0.72582662020862        0.94966550286148
N            3.37147448314973       -0.25021878948013        0.38717725797705
C            3.14409048269316       -0.82440858833962       -0.84079509620678
C            4.03438209793709       -1.74694950723004       -1.41560689337992
C            3.77516393407018       -2.32609915927837       -2.64118338388011
C            2.62931343483521       -2.00568639156715       -3.35712795826019
C            1.79146776948892       -1.04784176532372       -2.82513862880471
S            0.31769458930009       -0.51787414016693       -3.70028581976903
O            0.54219260179466        0.79442098850587       -4.27020023377819
O           -0.09973166562626       -1.55739310248650       -4.61632251557194
C           -0.87504303473570       -0.36750516048584       -2.36269289919179
C           -1.18012941203761       -1.51376095589977       -1.66046780295462
C           -1.97446254855966       -1.41436055296000       -0.51748219283403
N           -2.23704814903851       -2.55166664964585        0.24588878498489
C           -3.46792043110821       -2.94536492846907        0.74524369438484
C           -4.71767453702605       -2.36874150058429        0.57825272033544
C           -5.80309288549810       -2.98826838844549        1.16909329218624
C           -5.65780126600211       -4.16413317740010        1.90124776131843
C           -4.42079491127948       -4.76132005397712        2.04460076526820
C           -3.31657615679501       -4.15427761622967        1.46038783685529
C           -1.92408725855684       -4.50331780465722        1.38714015870878
C           -1.18045043750735       -5.55717914280223        1.90229254141666
C            0.17838998804018       -5.58918630490415        1.65858962560166
C            0.79646902840545       -4.57836504167500        0.92659428868006
C            0.07664328119619       -3.51930665163633        0.40508722382069
C           -1.29354066037795       -3.49539680510898        0.62336085127578
C           -2.44674000321256       -0.16454874073363       -0.11905928739867
C           -2.14736055301211        0.98148342579365       -0.85455474197986
N           -2.59670170405417        2.23103190764814       -0.43125938733851
C           -1.82643224880530        3.38220732465498       -0.34491696103664
C           -0.47978895848989        3.57630478882318       -0.61470907017036
C            0.04609677051416        4.83844801673987       -0.41078845169600
C           -0.73700539588260        5.88722311065620        0.06412661014166
C           -2.07183270192277        5.69469402762499        0.36016292064664
C           -2.62264112372939        4.43601374666759        0.15751458910394
C           -3.93886911235619        3.89736093057496        0.36557802656961
C           -5.13467643119549        4.44957754270726        0.80621945908383
C           -6.25704913829488        3.64623315696337        0.85493741578216
C           -6.20036873674581        2.31507181192805        0.44947903326001
C           -5.02031388414473        1.74631479128647        0.00762720323452
C           -3.88156599140993        2.53723276020228       -0.01078683894822
C           -1.34700314263786        0.87259431828359       -1.99417618450367
C            2.03083885332019       -0.45099930709624       -1.60746405736953
C            4.56968385446060       -0.40056727841792        1.12162877945270
C            5.03579338967797       -1.65557730998628        1.49172172012674
C            6.18738222771872       -1.76818117124723        2.24916933513253
C            6.85495370986449       -0.62762726712003        2.65829217453267
C            6.35974692986127        0.62433588149861        2.33271638843245
C            5.21239024231541        0.75961764702189        1.56598477307888
H            5.92555496059821        2.43079761115949       -0.48613444252971
H            4.45222187332587        1.57906618625588       -0.94470493139342
H            4.39394446757843        3.30578711326963       -0.60152211770248
H            5.00449571074195        3.11552722044800        3.05452883500539
H            6.22714387908571        3.35702806649741        1.79508217999755
H            4.69157667955261        4.18980599530100        1.68143997355214
H            2.68253663441143        3.77708081169693        2.38604936553330
H            0.30210713399386        3.34347818869213        2.68032948359576
H           -0.67795387757939        1.20578833084957        1.92475498498909
H            0.75203643018370       -0.48155374708600        0.84355454511927
H            4.95066156744619       -1.99449435020088       -0.90535376320956
H            4.47673279688390       -3.03868621262778       -3.04732845486816
H            2.38885067874011       -2.46020681164560       -4.30395442635454
H           -0.81201744427034       -2.46426126824274       -2.01061047768936
H           -4.84790960953786       -1.47500016285106       -0.01069112426323
H           -6.78511044824558       -2.55346742786506        1.05480316841502
H           -6.52887453457941       -4.61808958296152        2.34996801759517
H           -4.31065787049307       -5.68435067477014        2.59331592560162
H           -1.65882575778451       -6.33132747685122        2.48279022423201
H            0.77477398545003       -6.40199369507255        2.04557860631444
H            1.86205380585690       -4.62310175452356        0.75870165602962
H            0.57574975174705       -2.74008025435027       -0.15134920167189
H           -3.01610359212796       -0.07942252839902        0.79397026529343
H            0.14953581735047        2.77385023419626       -0.96569318327826
H            1.09005133942012        5.01181203742825       -0.62439560129574
H           -0.28932044213378        6.85940884180574        0.20778464753926
H           -2.67877201454064        6.50139026530590        0.74241132251572
H           -5.18294835083109        5.48810516263688        1.09656539149588
H           -7.19617536201339        4.05516741818316        1.19687730022044
H           -7.09802305995592        1.71498999070356        0.47444248045815
H           -4.99715016777009        0.72361561798522       -0.33335740234029
H           -1.09393902809466        1.72899660562931       -2.59757214465401
H            1.36081480444367        0.32198489688662       -1.26880167368608
H            4.48353967087323       -2.53771902517353        1.20714090262335
H            6.55182668456524       -2.74490841817374        2.53016569380968
H            7.75523233131881       -0.70947498893141        3.24874412169684
H            6.88364200343740        1.49697073435744        2.68644742068981

          :  Hamiltonian                  GFN2-xTB          :
         :: gradient norm              0.000041268652 Eh/a0 ::
         :: HOMO-LUMO gap              2.572485463668 eV    ::
         :: SCC energy              -150.983226854070 Eh    ::
         :: -> dispersion             -0.150878634971 Eh    ::
         :: -> Gsolv                  -0.060647545357 Eh    ::
         :: repulsion energy           2.609308668730 Eh    ::

    * Orbital Energies and Occupations

         #    Occupation            Energy/Eh            Energy/eV
      -------------------------------------------------------------
         1        2.0000           -0.7774664             -21.1559
       ...           ...                  ...                  ...
       125        2.0000           -0.4208226             -11.4512
       126        2.0000           -0.4151187             -11.2960
       127        2.0000           -0.4117997             -11.2056
       128        2.0000           -0.4109658             -11.1829
       129        2.0000           -0.4103056             -11.1650
       130        2.0000           -0.4060329             -11.0487
       131        2.0000           -0.4029244             -10.9641
       132        2.0000           -0.4018391             -10.9346
       133        2.0000           -0.3845194             -10.4633
       134        2.0000           -0.3837781             -10.4431
       135        2.0000           -0.3723400             -10.1319
       136        2.0000           -0.3706089             -10.0848
       137        2.0000           -0.3631796              -9.8826 (HOMO)
       138                         -0.2686426              -7.3101 (LUMO)
       139                         -0.2614983              -7.1157
       140                         -0.2513892              -6.8406
       141                         -0.2494243              -6.7872
       142                         -0.2474523              -6.7335
       143                         -0.2434520              -6.6247
       144                         -0.2323211              -6.3218
       145                         -0.2277435              -6.1972
       146                         -0.2275376              -6.1916
       147                         -0.2260993              -6.1525
       148                         -0.2237840              -6.0895
       ...                                ...                  ...
       270                          1.1739571              31.9450
      -------------------------------------------------------------
                  HL-Gap            0.0945371 Eh            2.5725 eV

     #   Z          covCN         q      C6AA      α(0)
     1   6 C        3.761    -0.100    22.447     6.754
     2   6 C        3.910     0.023    20.125     6.376
     3   6 C        3.759    -0.110    22.654     6.786
     4   6 C        2.987    -0.005    28.132     8.700
     5   6 C        2.923    -0.037    28.915     8.818
     6   6 C        2.919    -0.034    28.850     8.808
     7   6 C        2.920    -0.033    28.823     8.804
     8   6 C        2.920    -0.048    29.204     8.862
     9   6 C        2.950     0.052    26.827     8.495
    10   7 N        2.753    -0.064    22.471     7.040
    11   6 C        2.911     0.077    26.290     8.408
    12   6 C        2.922    -0.055    29.374     8.888
    13   6 C        2.923    -0.023    28.591     8.769
    14   6 C        2.946    -0.040    29.001     8.833
    15   6 C        2.971    -0.073    29.815     8.957
    16  16 S        3.839     0.948   108.168    17.505
    17   8 O        0.860    -0.581    25.667     6.793
    18   8 O        0.860    -0.579    25.596     6.783
    19   6 C        2.970    -0.070    29.743     8.946
    20   6 C        2.972    -0.052    29.275     8.875
    21   6 C        2.912     0.075    26.316     8.412
    22   7 N        2.801    -0.037    21.962     6.960
    23   6 C        3.067     0.045    26.921     8.508
    24   6 C        2.910    -0.050    29.252     8.869
    25   6 C        2.924    -0.033    28.814     8.803
    26   6 C        2.920    -0.040    28.991     8.830
    27   6 C        2.913    -0.033    28.814     8.802
    28   6 C        3.066    -0.015    28.312     8.725
    29   6 C        3.066    -0.014    28.299     8.723
    30   6 C        2.913    -0.033    28.814     8.802
    31   6 C        2.920    -0.040    28.988     8.829
    32   6 C        2.924    -0.033    28.812     8.803
    33   6 C        2.910    -0.051    29.259     8.870
    34   6 C        3.068     0.044    26.937     8.510
    35   6 C        2.925    -0.057    29.428     8.896
    36   6 C        2.912     0.076    26.309     8.411
    37   7 N        2.800    -0.037    21.950     6.958
    38   6 C        3.066     0.045    26.916     8.507
    39   6 C        2.910    -0.048    29.180     8.858
    40   6 C        2.924    -0.032    28.788     8.799
    41   6 C        2.920    -0.039    28.980     8.828
    42   6 C        2.913    -0.033    28.828     8.804
    43   6 C        3.067    -0.014    28.297     8.723
    44   6 C        3.065    -0.014    28.307     8.724
    45   6 C        2.913    -0.033    28.816     8.802
    46   6 C        2.920    -0.040    28.991     8.830
    47   6 C        2.923    -0.033    28.819     8.804
    48   6 C        2.911    -0.051    29.255     8.869
    49   6 C        3.067     0.045    26.928     8.509
    50   6 C        2.955    -0.047    29.174     8.859
    51   6 C        2.982    -0.063    29.570     8.920
    52   6 C        2.948     0.053    26.806     8.492
    53   6 C        2.920    -0.047    29.169     8.857
    54   6 C        2.920    -0.033    28.826     8.804
    55   6 C        2.919    -0.036    28.901     8.816
    56   6 C        2.923    -0.038    28.935     8.821
    57   6 C        2.987    -0.005    28.138     8.701
    58   1 H        0.925     0.044     2.403     2.424
    59   1 H        0.925     0.032     2.563     2.504
    60   1 H        0.925     0.041     2.433     2.439
    61   1 H        0.925     0.043     2.415     2.430
    62   1 H        0.925     0.047     2.363     2.404
    63   1 H        0.925     0.046     2.375     2.410
    64   1 H        0.926     0.050     2.319     2.382
    65   1 H        0.926     0.037     2.488     2.467
    66   1 H        0.926     0.032     2.552     2.498
    67   1 H        0.926     0.031     2.573     2.509
    68   1 H        0.926     0.061     2.189     2.313
    69   1 H        0.926     0.057     2.237     2.339
    70   1 H        0.926     0.045     2.386     2.416
    71   1 H        0.926     0.058     2.216     2.328
    72   1 H        0.926     0.031     2.579     2.511
    73   1 H        0.926     0.036     2.508     2.476
    74   1 H        0.926     0.034     2.535     2.490
    75   1 H        0.926     0.037     2.493     2.469
    76   1 H        0.926     0.038     2.480     2.463
    77   1 H        0.926     0.035     2.517     2.481
    78   1 H        0.926     0.034     2.527     2.486
    79   1 H        0.926     0.024     2.675     2.558
    80   1 H        0.926     0.073     2.056     2.243
    81   1 H        0.926     0.024     2.673     2.557
    82   1 H        0.926     0.034     2.534     2.489
    83   1 H        0.926     0.035     2.516     2.480
    84   1 H        0.926     0.038     2.477     2.461
    85   1 H        0.926     0.037     2.491     2.468
    86   1 H        0.926     0.034     2.534     2.489
    87   1 H        0.926     0.036     2.509     2.477
    88   1 H        0.926     0.030     2.583     2.513
    89   1 H        0.926     0.066     2.129     2.282
    90   1 H        0.926     0.036     2.507     2.476
    91   1 H        0.926     0.042     2.420     2.433
    92   1 H        0.926     0.039     2.465     2.455
    93   1 H        0.926     0.038     2.475     2.460
    94   1 H        0.926     0.048     2.342     2.393

molecular dipole:
                 x           y           z       tot (Debye)
 q only:        1.148       0.282       3.785
   full:        1.094       0.211       3.338       8.945

 projected vibrational frequencies (cm⁻¹)
eigval :       -0.00     0.00     0.00     0.00     0.00     0.00
eigval :        6.04    12.38    14.53    20.13    24.22    29.65
eigval :       33.67    41.87    48.70    50.35    59.91    62.28
eigval :       73.00    83.06   100.88   106.46   111.23   114.54
eigval :      133.12   136.36   140.26   147.17   155.79   169.86
eigval :      174.52   177.04   183.74   189.53   216.64   227.79
eigval :      239.01   242.31   250.81   256.24   269.33   272.55
eigval :      278.14   280.50   284.82   289.64   303.86   310.27
eigval :      320.29   321.41   346.42   352.05   363.94   368.16
eigval :      376.69   393.42   396.98   402.81   404.68   421.67
eigval :      423.65   423.87   426.23   436.32   438.07   442.27
eigval :      455.14   483.36   494.03   497.55   502.08   512.27
eigval :      518.01   519.56   527.91   538.21   539.81   545.24
eigval :      550.76   558.78   559.56   565.58   574.56   583.93
eigval :      587.84   598.53   600.89   603.10   618.02   644.22
eigval :      646.61   648.72   658.79   669.55   672.95   674.95
eigval :      692.81   697.83   706.99   708.27   724.95   747.92
eigval :      752.03   757.85   762.48   767.67   768.20   774.61
eigval :      775.60   776.12   778.94   780.15   790.19   809.02
eigval :      839.66   855.73   857.01   864.05   866.35   871.40
eigval :      878.32   886.01   889.61   892.58   894.27   898.01
eigval :      898.45   901.13   904.67   905.96   909.93   912.34
eigval :      913.78   916.21   918.29   921.44   922.07   924.65
eigval :      925.75   927.92   930.36   936.93   940.00   945.12
eigval :      967.08   990.03   992.16  1008.34  1010.30  1012.14
eigval :     1029.57  1066.15  1071.27  1072.14  1074.40  1075.10
eigval :     1076.58  1082.15  1098.15  1102.70  1109.30  1112.05
eigval :     1115.51  1124.51  1124.62  1136.92  1147.54  1150.80
eigval :     1153.06  1162.53  1171.72  1176.44  1176.86  1179.32
eigval :     1179.76  1180.03  1186.63  1189.14  1189.80  1201.95
eigval :     1202.37  1209.50  1228.03  1229.06  1233.63  1234.42
eigval :     1245.89  1249.27  1255.53  1266.40  1272.30  1287.86
eigval :     1291.52  1292.39  1296.19  1299.62  1310.74  1316.68
eigval :     1325.47  1327.86  1331.30  1343.69  1354.74  1355.11
eigval :     1355.98  1359.27  1371.87  1396.30  1412.50  1413.92
eigval :     1415.52  1421.12  1424.70  1426.14  1437.94  1442.37
eigval :     1452.54  1454.29  1456.65  1463.36  1473.54  1473.60
eigval :     1481.24  1485.05  1485.35  1489.93  1492.69  1504.11
eigval :     1518.14  1541.40  1542.65  1573.51  1574.91  1575.70
eigval :     1580.74  1583.82  1587.93  1588.08  1588.51  1593.49
eigval :     1597.96  1598.43  1602.26  1611.54  1612.04  3026.54
eigval :     3029.05  3032.55  3034.73  3047.12  3052.05  3075.87
eigval :     3076.82  3076.93  3077.15  3079.50  3080.32  3082.76
eigval :     3083.57  3084.17  3085.40  3087.88  3088.10  3089.17
eigval :     3090.61  3091.73  3092.18  3093.65  3096.83  3098.30
eigval :     3099.75  3100.16  3101.62  3101.97  3104.92  3112.77
eigval :     3113.23  3115.10  3115.19  3116.97  3118.57  3119.77

   temp. (K)  partition function   enthalpy   heat capacity  entropy
                                   cal/mol     cal/K/mol   cal/K/mol   J/K/mol
 298.15  VIB  0.772E+21            27286.572    173.949    168.315
         ROT  0.983E+08              888.752      2.981     39.554
         INT  0.759E+29            28175.325    176.930    207.869
         TR   0.201E+29             1481.254      4.968     45.727
         TOT                       29656.5785   181.8977   253.5961  1061.0459

       T/K    H(0)-H(T)+PV         H(T)/Eh          T*S/Eh         G(T)/Eh
   ------------------------------------------------------------------------
    298.15    0.472608E-01    0.770446E+00    0.120492E+00    0.649955E+00
   ------------------------------------------------------------------------

         :::::::::::::::::::::::::::::::::::::::::::::::::::::
         ::                  THERMODYNAMIC                  ::
         :::::::::::::::::::::::::::::::::::::::::::::::::::::
         :: total free energy        -147.723963494528 Eh   ::
         ::.................................................::
         :: total energy             -148.373918180413 Eh   ::
         :: zero point energy           0.723185593541 Eh   ::
         :: G(RRHO) w/o ZPVE           -0.073230907656 Eh   ::
         :: G(RRHO) contrib.            0.649954685885 Eh   ::
         :::::::::::::::::::::::::::::::::::::::::::::::::::::

           -------------------------------------------------
          | TOTAL ENERGY             -148.373918180413 Eh   |
          | TOTAL ENTHALPY           -147.603471820728 Eh   |
          | TOTAL FREE ENERGY        -147.723963494528 Eh   |
          | GRADIENT NORM               0.000041261540 Eh/α |
          | HOMO-LUMO GAP               2.572485084977 eV   |
           -------------------------------------------------

 * finished run on 2025/08/22 at 12:37:47.953
