   * xtb version 6.7.1 (edcfbbe) compiled by 'albert@albert-system' on 2024-07-22

   ID    Z sym.   atoms
    1    6 C      1-9, 11-15, 19-21, 23-36, 38-57
    2    7 N      10, 22, 37
    3   16 S      16
    4    8 O      17, 18
    5    1 H      58-94

          program call               : xtb data2507/toluene/m-CZ-DPS-DMAC/m-CZ-DPS-DMAC_toluene_S0_finalOpt.xtbopt.xyz --gfn 2 --uhf 2 --gbsa toluene --ohess vtight --parallel 40 --molden --ceasefiles --namespace data2507/toluene/m-CZ-DPS-DMAC/m-CZ-DPS-DMAC_toluene_T1_preOpt
      * Solvation model:               GBSA
        Solvent                        toluene
        Solvent mass                       9.2140E+01 g/mol
          :  Hamiltonian                  GFN2-xTB          :
 * total energy  :  -148.2650411 Eh     change       -0.1832717E-08 Eh
 * total energy  :  -148.2665494 Eh     change       -0.1508287E-02 Eh
 * total energy  :  -148.2673510 Eh     change       -0.8015611E-03 Eh
 * total energy  :  -148.2675843 Eh     change       -0.2333678E-03 Eh
 * total energy  :  -148.2677513 Eh     change       -0.1669665E-03 Eh
 * total energy  :  -148.2678239 Eh     change       -0.7259948E-04 Eh
 * total energy  :  -148.2678880 Eh     change       -0.6416229E-04 Eh
 * total energy  :  -148.2679430 Eh     change       -0.5495842E-04 Eh
 * total energy  :  -148.2679944 Eh     change       -0.5142654E-04 Eh
 * total energy  :  -148.2680318 Eh     change       -0.3732906E-04 Eh
 * total energy  :  -148.2681731 Eh     change       -0.1495658E-05 Eh
 * total energy  :  -148.2681747 Eh     change       -0.1583617E-05 Eh
 * total energy  :  -148.2681763 Eh     change       -0.1627474E-05 Eh
 * total energy  :  -148.2681777 Eh     change       -0.1393804E-05 Eh
 * total energy  :  -148.2681789 Eh     change       -0.1196133E-05 Eh
 * total energy  :  -148.2681799 Eh     change       -0.1029035E-05 Eh
 * total energy  :  -148.2681808 Eh     change       -0.8875510E-06 Eh
 * total energy  :  -148.2681816 Eh     change       -0.7748694E-06 Eh
 * total energy  :  -148.2681816 Eh     change       -0.2064809E-08 Eh
   *** GEOMETRY OPTIMIZATION CONVERGED AFTER 44 ITERATIONS ***

 final structure:
================
94
 xtb: 6.7.1 (edcfbbe)
C            4.88891033605322        2.41742122468115       -0.28962818870874
C            4.59130073339374        2.13689515028695        1.19870021878038
C            5.17565582130265        3.28505099606521        2.02245416086589
C            3.09238021272966        1.99068152439954        1.39055515290968
C            2.27826364649632        2.92775931203443        2.00638969471580
C            0.91987069990619        2.70101594395353        2.15753708820583
C            0.35266468734881        1.52267738343298        1.69976689908395
C            1.14026042772420        0.57849696337670        1.07250343219451
C            2.50235648893106        0.81490716876958        0.90637620398171
N            3.34509422417671       -0.16677675873610        0.35846962600689
C            3.08305854943366       -0.78921867970810       -0.84592659459298
C            3.90798171913044       -1.82546874929976       -1.34350288614630
C            3.58234637319214       -2.47159072900839       -2.52744985580178
C            2.48045635224164       -2.09234014000219       -3.26778187014295
C            1.73826873651754       -0.98811865074168       -2.84554966847767
S            0.26993166664769       -0.49415865817299       -3.72862958946341
O            0.46563159060658        0.83964490764830       -4.27765868287709
O           -0.03898539091755       -1.54562618293312       -4.68447501756472
C           -0.95966190443180       -0.39716481129492       -2.47282985947274
C           -1.25975324088355       -1.55142737858337       -1.73581112775527
C           -1.98419021733749       -1.44382221912639       -0.56510955962079
N           -2.23282476334786       -2.58851381999567        0.20375646751521
C           -3.44790825727870       -2.98426454100577        0.72440362255172
C           -4.70084036732065       -2.40660883851832        0.58183927293024
C           -5.77614224379160       -3.02618406338292        1.19538358574918
C           -5.61244546062685       -4.20004929845090        1.92738235953153
C           -4.37007082087100       -4.79684133240973        2.05280208994013
C           -3.27729612452311       -4.19287550445047        1.44505051981045
C           -1.88589332644309       -4.53359467106961        1.34550077023049
C           -1.11999184305906       -5.58278888534847        1.83660798233958
C            0.23557971059756       -5.59916241454271        1.55943502043866
C            0.83089254387909       -4.58109830586656        0.81801948351179
C            0.08815922462720       -3.52471868693435        0.31764217161581
C           -1.27709364670092       -3.51632187535807        0.56823434701008
C           -2.42966723663541       -0.18692998511511       -0.10972636590290
C           -2.12419777979913        0.96435014159509       -0.86221766374419
N           -2.55205950807897        2.21890462508790       -0.41287445890198
C           -1.77210342745469        3.35717777160391       -0.33291949878771
C           -0.43268238322843        3.54194768362649       -0.64456636921539
C            0.11184641723374        4.80133545505450       -0.45064946745603
C           -0.65007543963764        5.85130334021922        0.05411236234670
C           -1.98107063944249        5.67045219203351        0.38856229320945
C           -2.54956842965527        4.41795569185266        0.19811604111860
C           -3.86275263032229        3.88733946265426        0.43107832054011
C           -5.04723618397754        4.43696392699216        0.90429813803745
C           -6.17397933618054        3.63512024835796        0.96185284373188
C           -6.13482281686589        2.30856749739640        0.53894250064590
C           -4.96369676876294        1.73981523154027        0.06652947519303
C           -3.82246448358355        2.52745378141815        0.03365888451401
C           -1.38339269716096        0.86153211889628       -2.02403286249230
C            2.02711481452292       -0.35125458587972       -1.64735889684687
C            4.51323456778565       -0.35564720392912        1.11948005606700
C            4.93314424785000       -1.62328906801875        1.51297104143851
C            6.06942381476702       -1.76384757908858        2.28646439241549
C            6.77353970213366       -0.64109728337913        2.68759050814423
C            6.31835737969088        0.62396635576522        2.35036707272285
C            5.18027567916832        0.79013922181934        1.57821984536656
H            5.96440410507700        2.45769842333596       -0.44791460438928
H            4.47665654499310        1.64963266537616       -0.93900384843222
H            4.45875337381698        3.37368009704205       -0.57826060263438
H            5.00047377828465        3.13196236710987        3.08463917067232
H            6.24455517977045        3.36626132946356        1.84451239788373
H            4.72564149419883        4.22652309802436        1.71920829852683
H            2.69495750935370        3.84785203908228        2.38051286839274
H            0.30479144550279        3.44186775462928        2.64425919109802
H           -0.69948019283395        1.33197285804336        1.83989025079380
H            0.71219923994959       -0.35312548576971        0.73487713749087
H            4.80339731984255       -2.10984232645224       -0.82026631931085
H            4.20810418294220       -3.28037549842200       -2.87346485110093
H            2.19345200673763       -2.58908409114612       -4.18041860790902
H           -0.93717820206680       -2.50690872640584       -2.11797978563924
H           -4.83624575519280       -1.51205412301879       -0.00451400158146
H           -6.76065473888191       -2.59347413608256        1.09952081714619
H           -6.47347272167348       -4.65486617865852        2.39439267520923
H           -4.25077271498849       -5.71568564717218        2.60636783209687
H           -1.57533794971190       -6.36688779115294        2.42196140312862
H            0.84689208204527       -6.40924263580519        1.92861679293042
H            1.89201205644226       -4.61876479378053        0.62511472352356
H            0.55873319153478       -2.73720849219595       -0.25221057279887
H           -2.94361365497090       -0.10474489795324        0.83289754843097
H            0.17166754590562        2.73633424743957       -1.02954854281859
H            1.14875538824812        4.96851099444431       -0.69821990522487
H           -0.19164395725961        6.81961494477726        0.18991284989033
H           -2.56847356936877        6.48321918754032        0.78745960588004
H           -5.08729272584602        5.47067677154076        1.21183730296448
H           -7.10384254516180        4.04520280045968        1.32706415160003
H           -7.03480605856828        1.71323178907982        0.57334798157127
H           -4.94592898670134        0.72170475275875       -0.28739308261983
H           -1.15334280498845        1.71912991184073       -2.63489369512677
H            1.42471865369771        0.49796955576950       -1.36780571932208
H            4.34623834166818       -2.48818077306629        1.24750319375216
H            6.39379485455738       -2.74825561354369        2.58764750007446
H            7.66486173960896       -0.74633692419977        3.28708018346357
H            6.86429652214421        1.48293353939878        2.70324588697853

          :  Hamiltonian                  GFN2-xTB          :
         :: gradient norm              0.000050346276 Eh/a0 ::
         :: HOMO-LUMO gap              0.108019412844 eV    ::
         :: SCC energy              -150.854377075893 Eh    ::
         :: -> dispersion             -0.151623333730 Eh    ::
         :: -> Gsolv                  -0.068022375522 Eh    ::
         :: repulsion energy           2.586195472553 Eh    ::

    * Orbital Energies and Occupations

         #    Occupation            Energy/Eh            Energy/eV
      -------------------------------------------------------------
         1        2.0000           -0.7562843             -20.5795
       ...           ...                  ...                  ...
       126        2.0000           -0.4134524             -11.2506
       127        2.0000           -0.4133833             -11.2487
       128        2.0000           -0.4124593             -11.2236
       129        2.0000           -0.4095931             -11.1456
       130        2.0000           -0.4087857             -11.1236
       131        2.0000           -0.4087327             -11.1222
       132        2.0000           -0.3968539             -10.7989
       133        2.0000           -0.3854212             -10.4878
       134        2.0000           -0.3852765             -10.4839
       135        1.9268           -0.3715995             -10.1117
       136        1.6472           -0.3697644             -10.0618
       137        1.4260           -0.3689043             -10.0384
       138        0.8801           -0.2576727              -7.0116 (HOMO)
       139        0.1010           -0.2537026              -6.9036 (LUMO)
       140        0.0188           -0.2520220              -6.8579
       141        0.0001           -0.2469389              -6.7196
       142        0.0000           -0.2428864              -6.6093
       143                         -0.2393749              -6.5137
       144                         -0.2382901              -6.4842
       145                         -0.2354986              -6.4082
       146                         -0.2308906              -6.2829
       147                         -0.2298543              -6.2547
       148                         -0.2296642              -6.2495
       149                         -0.2168761              -5.9015
       ...                                ...                  ...
       270                          1.1586289              31.5279
      -------------------------------------------------------------
                  HL-Gap            0.0039701 Eh            0.1080 eV

     #   Z          covCN         q      C6AA      α(0)
     1   6 C        3.761    -0.101    22.474     6.758
     2   6 C        3.911     0.024    20.107     6.373
     3   6 C        3.759    -0.113    22.713     6.794
     4   6 C        2.987     0.000    28.016     8.682
     5   6 C        2.922    -0.034    28.842     8.807
     6   6 C        2.919    -0.028    28.706     8.786
     7   6 C        2.919    -0.029    28.718     8.788
     8   6 C        2.919    -0.041    29.009     8.832
     9   6 C        2.955     0.053    26.813     8.493
    10   7 N        2.755    -0.022    21.666     6.913
    11   6 C        2.909     0.068    26.478     8.438
    12   6 C        2.919    -0.065    29.614     8.924
    13   6 C        2.917    -0.027    28.687     8.783
    14   6 C        2.946    -0.034    28.856     8.810
    15   6 C        2.965    -0.085    30.121     9.002
    16  16 S        3.839     0.882   110.117    17.662
    17   8 O        0.860    -0.597    26.054     6.844
    18   8 O        0.860    -0.597    26.032     6.841
    19   6 C        2.964    -0.104    30.633     9.078
    20   6 C        2.964    -0.054    29.340     8.885
    21   6 C        2.908     0.058    26.688     8.471
    22   7 N        2.802    -0.020    21.636     6.908
    23   6 C        3.071     0.047    26.874     8.500
    24   6 C        2.910    -0.044    29.099     8.845
    25   6 C        2.922    -0.035    28.873     8.812
    26   6 C        2.919    -0.035    28.867     8.811
    27   6 C        2.911    -0.032    28.806     8.801
    28   6 C        3.064    -0.015    28.320     8.727
    29   6 C        3.064    -0.015    28.309     8.725
    30   6 C        2.911    -0.033    28.812     8.802
    31   6 C        2.919    -0.035    28.869     8.811
    32   6 C        2.922    -0.036    28.884     8.813
    33   6 C        2.909    -0.045    29.113     8.847
    34   6 C        3.073     0.046    26.899     8.504
    35   6 C        2.919    -0.092    30.299     9.026
    36   6 C        2.907     0.059    26.667     8.468
    37   7 N        2.801    -0.016    21.561     6.896
    38   6 C        3.068     0.046    26.890     8.503
    39   6 C        2.909    -0.041    29.012     8.832
    40   6 C        2.922    -0.035    28.870     8.811
    41   6 C        2.919    -0.034    28.837     8.806
    42   6 C        2.911    -0.033    28.815     8.802
    43   6 C        3.065    -0.014    28.303     8.724
    44   6 C        3.063    -0.014    28.308     8.725
    45   6 C        2.911    -0.033    28.813     8.802
    46   6 C        2.919    -0.034    28.844     8.807
    47   6 C        2.922    -0.036    28.886     8.814
    48   6 C        2.910    -0.044    29.089     8.844
    49   6 C        3.071     0.046    26.888     8.502
    50   6 C        2.960    -0.052    29.290     8.877
    51   6 C        2.967    -0.055    29.369     8.889
    52   6 C        2.951     0.053    26.815     8.493
    53   6 C        2.919    -0.042    29.037     8.836
    54   6 C        2.919    -0.030    28.750     8.793
    55   6 C        2.918    -0.031    28.767     8.795
    56   6 C        2.922    -0.034    28.858     8.809
    57   6 C        2.988     0.000    28.014     8.682
    58   1 H        0.925     0.048     2.340     2.392
    59   1 H        0.925     0.033     2.546     2.495
    60   1 H        0.925     0.046     2.372     2.408
    61   1 H        0.925     0.047     2.354     2.399
    62   1 H        0.925     0.051     2.302     2.372
    63   1 H        0.925     0.050     2.314     2.379
    64   1 H        0.926     0.060     2.203     2.321
    65   1 H        0.926     0.046     2.374     2.409
    66   1 H        0.926     0.041     2.431     2.438
    67   1 H        0.926     0.039     2.466     2.456
    68   1 H        0.926     0.059     2.216     2.328
    69   1 H        0.926     0.050     2.316     2.380
    70   1 H        0.926     0.040     2.452     2.449
    71   1 H        0.926     0.036     2.504     2.475
    72   1 H        0.926     0.035     2.511     2.478
    73   1 H        0.926     0.037     2.483     2.464
    74   1 H        0.926     0.037     2.485     2.465
    75   1 H        0.926     0.039     2.460     2.453
    76   1 H        0.926     0.040     2.447     2.446
    77   1 H        0.926     0.039     2.466     2.455
    78   1 H        0.926     0.036     2.507     2.476
    79   1 H        0.926     0.026     2.648     2.545
    80   1 H        0.926     0.047     2.356     2.400
    81   1 H        0.926     0.027     2.623     2.533
    82   1 H        0.926     0.036     2.502     2.474
    83   1 H        0.926     0.040     2.447     2.446
    84   1 H        0.926     0.041     2.430     2.438
    85   1 H        0.926     0.040     2.449     2.447
    86   1 H        0.926     0.038     2.477     2.461
    87   1 H        0.926     0.038     2.482     2.464
    88   1 H        0.926     0.036     2.503     2.474
    89   1 H        0.926     0.045     2.380     2.412
    90   1 H        0.926     0.034     2.528     2.486
    91   1 H        0.926     0.051     2.313     2.378
    92   1 H        0.926     0.047     2.361     2.403
    93   1 H        0.926     0.047     2.363     2.404
    94   1 H        0.926     0.057     2.229     2.335

molecular dipole:
                 x           y           z       tot (Debye)
 q only:        1.935       0.872       5.763
   full:        1.843       0.720       5.216      14.180

 projected vibrational frequencies (cm⁻¹)
eigval :       -0.00    -0.00    -0.00     0.00     0.00     0.00
eigval :        4.98    15.19    18.60    21.07    25.70    28.21
eigval :       34.37    42.71    49.33    51.44    59.37    63.42
eigval :       76.47    84.21   100.61   103.64   109.05   113.25
eigval :      133.75   134.80   138.88   145.87   155.51   169.35
eigval :      172.39   178.11   183.06   189.16   209.67   223.90
eigval :      230.08   240.20   241.14   255.06   265.81   268.06
eigval :      272.93   279.58   284.09   291.57   301.12   308.18
eigval :      318.59   320.56   345.81   351.56   364.34   366.08
eigval :      368.30   385.71   389.32   396.76   399.71   417.21
eigval :      418.96   419.45   421.25   429.91   432.70   435.51
eigval :      454.69   456.05   485.66   489.52   495.74   496.86
eigval :      497.57   512.72   513.60   523.87   529.28   529.94
eigval :      535.30   551.24   559.50   561.00   566.38   571.82
eigval :      582.17   586.69   598.47   601.28   616.15   622.40
eigval :      629.46   632.05   643.82   649.75   667.73   668.18
eigval :      689.39   692.92   703.34   703.87   723.21   737.83
eigval :      740.82   746.66   749.85   753.59   758.95   761.43
eigval :      764.11   767.67   768.52   772.26   774.14   784.21
eigval :      808.64   813.98   825.07   846.83   851.30   852.32
eigval :      862.85   864.54   868.94   883.44   884.91   890.77
eigval :      892.27   895.28   897.20   897.70   900.71   902.13
eigval :      906.83   911.21   911.87   913.10   913.54   913.93
eigval :      917.63   920.66   929.64   930.30   934.73   943.62
eigval :      956.09   967.91   972.28  1006.89  1007.85  1007.89
eigval :     1010.85  1044.32  1046.18  1052.24  1062.42  1064.59
eigval :     1066.11  1071.29  1075.55  1081.80  1083.24  1094.36
eigval :     1099.75  1112.56  1119.16  1121.54  1132.83  1133.57
eigval :     1137.57  1146.63  1159.61  1162.40  1170.30  1170.57
eigval :     1173.07  1173.43  1174.56  1177.30  1181.07  1184.29
eigval :     1186.90  1193.72  1207.42  1218.94  1224.01  1225.33
eigval :     1225.90  1237.05  1241.13  1250.75  1262.78  1265.81
eigval :     1271.39  1272.25  1273.17  1278.30  1286.50  1307.93
eigval :     1311.55  1315.35  1324.63  1327.59  1327.93  1329.93
eigval :     1333.87  1358.38  1363.66  1374.76  1375.76  1386.38
eigval :     1395.30  1399.92  1402.32  1407.33  1410.13  1412.30
eigval :     1414.17  1419.30  1427.31  1430.89  1436.34  1438.08
eigval :     1444.50  1454.84  1456.66  1457.87  1472.08  1475.60
eigval :     1479.07  1487.08  1489.86  1500.97  1515.69  1517.57
eigval :     1536.49  1540.80  1555.73  1561.17  1563.65  1567.31
eigval :     1567.87  1569.79  1570.41  1577.01  1585.79  3031.33
eigval :     3035.24  3037.61  3038.64  3050.17  3051.40  3076.74
eigval :     3077.29  3078.18  3079.10  3079.82  3085.39  3085.82
eigval :     3086.71  3087.14  3089.78  3090.28  3090.55  3093.42
eigval :     3093.94  3094.14  3094.64  3095.50  3098.01  3099.98
eigval :     3103.37  3103.92  3104.23  3104.73  3105.28  3106.40
eigval :     3108.84  3112.24  3119.42  3120.21  3120.75  3136.95

   temp. (K)  partition function   enthalpy   heat capacity  entropy
                                   cal/mol     cal/K/mol   cal/K/mol   J/K/mol
 298.15  VIB  0.778E+21            27646.829    176.831    170.059
         ROT  0.974E+08              888.752      2.981     39.535
         INT  0.758E+29            28535.581    179.812    209.594
         TR   0.201E+29             1481.254      4.968     45.727
         TOT                       30016.8351   184.7797   255.3205  1068.2611

       T/K    H(0)-H(T)+PV         H(T)/Eh          T*S/Eh         G(T)/Eh
   ------------------------------------------------------------------------
    298.15    0.478349E-01    0.763937E+00    0.121311E+00    0.642626E+00
   ------------------------------------------------------------------------

         :::::::::::::::::::::::::::::::::::::::::::::::::::::
         ::                  THERMODYNAMIC                  ::
         :::::::::::::::::::::::::::::::::::::::::::::::::::::
         :: total free energy        -147.625555212907 Eh   ::
         ::.................................................::
         :: total energy             -148.268181600836 Eh   ::
         :: zero point energy           0.716102542265 Eh   ::
         :: G(RRHO) w/o ZPVE           -0.073476154336 Eh   ::
         :: G(RRHO) contrib.            0.642626387929 Eh   ::
         :::::::::::::::::::::::::::::::::::::::::::::::::::::

           -------------------------------------------------
          | TOTAL ENERGY             -148.268181600836 Eh   |
          | TOTAL ENTHALPY           -147.504244187038 Eh   |
          | TOTAL FREE ENERGY        -147.625555212907 Eh   |
          | GRADIENT NORM               0.000050911734 Eh/α |
          | HOMO-LUMO GAP               0.108030581690 eV   |
           -------------------------------------------------

 * finished run on 2025/08/22 at 12:38:01.811
