   * xtb version 6.7.1 (edcfbbe) compiled by 'albert@albert-system' on 2024-07-22

   ID    Z sym.   atoms
    1    8 O      1, 8
    2    6 C      2-7, 9-12, 14-33, 35-48
    3    7 N      13, 34
    4    1 H      49-80

          program call               : xtb data2507/gas/p-DTPACO/p-DTPACO_gas_S0_finalOpt.xtbopt.xyz --gfn 2 --spinpol --tblite --uhf 2 --ohess vtight --parallel 40 --molden --ceasefiles --namespace data2507/gas/p-DTPACO/p-DTPACO_gas_T1_preOpt
 * total energy  :  -124.4071133 Eh     change       -0.5112287E-07 Eh
 * total energy  :  -124.4095400 Eh     change       -0.2426638E-02 Eh
 * total energy  :  -124.4106859 Eh     change       -0.1145963E-02 Eh
 * total energy  :  -124.4111620 Eh     change       -0.4760765E-03 Eh
 * total energy  :  -124.4117282 Eh     change       -0.5661610E-03 Eh
 * total energy  :  -124.4122003 Eh     change       -0.4721324E-03 Eh
 * total energy  :  -124.4125838 Eh     change       -0.3834683E-03 Eh
 * total energy  :  -124.4128389 Eh     change       -0.2551549E-03 Eh
 * total energy  :  -124.4130401 Eh     change       -0.2011187E-03 Eh
 * total energy  :  -124.4132297 Eh     change       -0.1896549E-03 Eh
 * total energy  :  -124.4136509 Eh     change       -0.2141144E-05 Eh
 * total energy  :  -124.4136532 Eh     change       -0.2266971E-05 Eh
 * total energy  :  -124.4136553 Eh     change       -0.2138128E-05 Eh
 * total energy  :  -124.4136570 Eh     change       -0.1619362E-05 Eh
 * total energy  :  -124.4136582 Eh     change       -0.1243720E-05 Eh
 * total energy  :  -124.4136591 Eh     change       -0.9306512E-06 Eh
 * total energy  :  -124.4136601 Eh     change       -0.9504295E-06 Eh
 * total energy  :  -124.4136603 Eh     change       -0.2354490E-06 Eh
 * total energy  :  -124.4136603 Eh     change       -0.2710475E-07 Eh
   *** GEOMETRY OPTIMIZATION CONVERGED AFTER 44 ITERATIONS ***

 final structure:
================
80
 xtb: 6.7.1 (edcfbbe)
O            2.08351096881522        3.01662146663735       -0.11570904995906
C            2.23111751304187        1.78188153592715       -0.11716702748507
C            1.12273321031917        0.85740315094194       -0.13494194762615
C           -0.16206472142889        1.33000614081572        0.20830588340235
C           -1.25061081427148        0.50420122385632        0.19157722194541
C           -1.12917219881538       -0.84448673137582       -0.20050954292070
C           -2.23076982890860       -1.77571823461472       -0.19617241957125
O           -2.07825891300009       -3.00900720176030       -0.23641475017874
C           -3.61468180333023       -1.24644184424556       -0.14008107332498
C           -4.57188311775329       -1.95264700915398        0.59367779020562
C           -5.87102725641271       -1.50700167510839        0.66851653636133
C           -6.26320216969867       -0.35831639874001       -0.02601345004920
N           -7.58017789240238        0.10410125374427        0.04820722902415
C           -7.83627066702571        1.47763796220857        0.06729192094146
C           -8.95719846740756        1.99783811179354       -0.58215911684126
C           -9.20518157557995        3.35600387711111       -0.55772456842504
C           -8.34321966969587        4.21539392573400        0.10493830778445
C           -7.22697672894685        3.70431472204506        0.74832492001430
C           -6.97208999907090        2.34755584854397        0.73487437690079
C           -8.63622588118366       -0.80859083969189        0.10711224260162
C           -8.57658920898987       -2.00481321926317       -0.61038672904216
C           -9.61870695379825       -2.90786645967081       -0.54121194658366
C          -10.73386045274576       -2.63527478451606        0.23532503959434
C          -10.79892306338026       -1.44807757633968        0.94764252059413
C           -9.76094643627408       -0.53955865734717        0.88949845921983
C           -5.32238565581423        0.31459647950022       -0.81123483339089
C           -4.01938865971965       -0.12782071236080       -0.87226969992838
C            0.15475705059284       -1.31420899852589       -0.55345876070345
C            1.24415396219412       -0.48984387170384       -0.53123693671708
C            3.60991136047167        1.24232594272186       -0.07817340214393
C            3.95040544899896        0.11533229050205        0.67452684478436
C            5.25362449227629       -0.32693447422301        0.72321469872480
C            6.25985846777263        0.35511358961350        0.03256223069586
N            7.58084919071015       -0.09969924176953        0.08034018663923
C            8.63093207912785        0.81949790462436        0.14060394041405
C            8.48894434133392        2.00808494369455        0.85936642127624
C            9.52693248961919        2.91709771397905        0.90885940561825
C           10.71918530023736        2.65819096735093        0.25128834213295
C           10.86594051175899        1.47877564584161       -0.46184558299803
C            9.83322940681631        0.56442647651040       -0.52202121894120
C            7.84557877836850       -1.47157358531011        0.07911129872378
C            7.05671934677698       -2.34119552423130       -0.67637521792973
C            7.31832598391913       -3.69672327148377       -0.67173983908706
C            8.36688070599648       -4.20686716440203        0.07759013845164
C            9.15374376720066       -3.34780863928775        0.82828896364810
C            8.89812688473939       -1.99088121534129        0.83506411743124
C            5.92837602778565        1.50765263490081       -0.68702004436911
C            4.62743181000422        1.95222121667253       -0.72315421242562
H           -0.25616023086850        2.36105047709282        0.51540186832124
H           -2.20745455242257        0.88413808148674        0.51967076140509
H           -4.26341611398576       -2.83938713870476        1.12601179584510
H           -6.59328321720876       -2.03284154602918        1.27571426714372
H           -9.62134810019363        1.33103174252651       -1.11213209407796
H          -10.07295964275796        3.74724412178774       -1.06749679845415
H           -8.53953971232623        5.27639065466890        0.11927218675946
H           -6.55369420409533        4.36659813103423        1.27150615388179
H           -6.10981438434082        1.94881641946497        1.24831307237364
H           -7.71412053992910       -2.21228495572424       -1.22611904514707
H           -9.56285019413859       -3.82778805027361       -1.10358687719000
H          -11.54653089369903       -3.34346903775203        0.28582092857311
H          -11.66091189224084       -1.23188475572555        1.56103182792993
H           -9.80589142783828        0.37783148677837        1.45779118341507
H           -5.62958195576092        1.17763760855981       -1.38396624867217
H           -3.31356782472299        0.38157652460118       -1.51091699187132
H            0.24793248637929       -2.34405075874596       -0.86482154119788
H            2.20193601036052       -0.86826746335570       -0.85881094371156
H            3.19266568978957       -0.39946228905801        1.24567225700538
H            5.51011095262537       -1.19483033195043        1.31330116103586
H            7.56556107046344        2.20470554319666        1.38348494959156
H            9.40663105360622        3.83077608888683        1.47132116181120
H           11.52837985414044        3.37087819810819        0.29365129426980
H           11.78902376753523        1.27323541300588       -0.98306864827184
H            9.94333408178164       -0.34690997871884       -1.09116053697778
H            6.24798028267317       -1.94292565890982       -1.27089101696857
H            6.70408743941610       -4.35884331700361       -1.26330680042478
H            8.56872681366806       -5.26692500257771        0.07731891724703
H            9.96755288296842       -3.73843528381144        1.42083665866416
H            9.50214354788520       -1.32456541578440        1.43321357110194
H            6.70106009623585        2.03868549926594       -1.22358605114380
H            4.36555153358835        2.84320335092651       -1.27310471676129

 projected vibrational frequencies (cm⁻¹)
eigval :       -0.00    -0.00     0.00     0.00     0.00     0.00
eigval :        6.79     9.09    10.69    15.82    20.50    38.67
eigval :       39.92    43.25    48.04    50.64    53.38    62.19
eigval :       62.82    74.03    77.19    85.82    86.69   107.90
eigval :      110.78   146.03   148.11   160.95   165.14   203.43
eigval :      209.33   216.33   221.08   234.09   235.85   246.66
eigval :      263.50   267.19   304.60   310.57   316.32   320.74
eigval :      338.56   369.90   375.04   376.34   376.95   379.28
eigval :      384.14   386.78   387.15   395.42   397.55   409.67
eigval :      417.43   430.73   451.15   479.59   481.86   488.47
eigval :      500.45   510.48   533.86   554.41   565.54   580.02
eigval :      584.69   586.24   586.56   590.00   591.94   596.69
eigval :      599.70   605.43   617.52   620.41   648.01   658.51
eigval :      659.04   662.64   666.64   672.03   689.30   691.20
eigval :      700.75   725.76   756.34   756.84   756.94   760.24
eigval :      768.10   809.62   815.36   818.62   841.08   863.89
eigval :      866.30   871.42   871.57   873.53   874.34   875.94
eigval :      894.52   894.66   895.11   896.72   904.44   908.52
eigval :      908.99   910.46   912.72   917.56   917.95   925.51
eigval :      927.48   927.55   928.94   929.03   929.31   929.40
eigval :      929.76   929.86   938.37   939.69   946.06   982.11
eigval :      985.39   999.32  1003.07  1003.15  1019.13  1020.08
eigval :     1081.39  1081.48  1082.37  1082.38  1121.72  1121.74
eigval :     1124.04  1124.08  1135.79  1137.14  1141.00  1153.82
eigval :     1164.89  1171.28  1179.32  1179.72  1179.74  1179.84
eigval :     1179.85  1183.69  1192.79  1193.02  1193.06  1199.00
eigval :     1213.38  1219.53  1244.43  1252.79  1259.19  1262.25
eigval :     1267.49  1275.97  1276.04  1278.26  1278.56  1306.11
eigval :     1307.18  1308.02  1310.62  1316.43  1317.69  1321.73
eigval :     1326.76  1326.83  1328.86  1331.54  1345.95  1407.99
eigval :     1408.79  1433.46  1433.48  1440.22  1440.32  1442.13
eigval :     1443.26  1455.79  1460.13  1462.85  1462.98  1463.06
eigval :     1463.22  1473.11  1523.86  1528.21  1529.67  1557.96
eigval :     1564.91  1569.52  1569.73  1573.77  1573.99  1584.08
eigval :     1584.24  1585.25  1590.36  1591.21  3068.26  3069.97
eigval :     3079.75  3079.85  3080.35  3080.39  3081.32  3081.36
eigval :     3081.50  3081.85  3083.51  3083.55  3084.03  3084.08
eigval :     3089.90  3089.93  3090.83  3091.02  3091.78  3091.94
eigval :     3093.65  3093.89  3094.42  3094.45  3094.70  3094.96
eigval :     3101.15  3101.24  3101.81  3102.07  3102.15  3102.38

   temp. (K)  partition function   enthalpy   heat capacity  entropy
                                   cal/mol     cal/K/mol   cal/K/mol   J/K/mol
 298.15  VIB  0.561E+20            23554.410    145.298    149.840
         ROT  0.133E+09              888.752      2.981     40.149
         INT  0.744E+28            24443.163    148.279    189.989
         TR   0.150E+29             1481.254      4.968     45.140
         TOT                       25924.4165   153.2474   235.1285   983.7775

       T/K    H(0)-H(T)+PV         H(T)/Eh          T*S/Eh         G(T)/Eh
   ------------------------------------------------------------------------
    298.15    0.413132E-01    0.654941E+00    0.111717E+00    0.543223E+00
   ------------------------------------------------------------------------

         :::::::::::::::::::::::::::::::::::::::::::::::::::::
         ::                  THERMODYNAMIC                  ::
         :::::::::::::::::::::::::::::::::::::::::::::::::::::
         :: total free energy        -123.870436860026 Eh   ::
         ::.................................................::
         :: total energy             -124.413660348585 Eh   ::
         :: zero point energy           0.613627426948 Eh   ::
         :: G(RRHO) w/o ZPVE           -0.070403938389 Eh   ::
         :: G(RRHO) contrib.            0.543223488559 Eh   ::
         :::::::::::::::::::::::::::::::::::::::::::::::::::::

           -------------------------------------------------
          | TOTAL ENERGY             -124.413660348585 Eh   |
          | TOTAL ENTHALPY           -123.758719734217 Eh   |
          | TOTAL FREE ENERGY        -123.870436860026 Eh   |
          | GRADIENT NORM               0.000077962108 Eh/α |
           -------------------------------------------------

 * finished run on 2025/08/22 at 19:29:05.781
