   * xtb version 6.7.1 (edcfbbe) compiled by 'albert@albert-system' on 2024-07-22

   ID    Z sym.   atoms
    1    8 O      1, 8
    2    6 C      2-7, 9-12, 14-33, 35-48
    3    7 N      13, 34
    4    1 H      49-80

          program call               : xtb data2507/gas/p-DTPACO/p-DTPACO_gas_S0_crest.xyz --gfn 2 --ohess vtight --parallel 40 --molden --ceasefiles --namespace data2507/gas/p-DTPACO/p-DTPACO_gas_S0_finalOpt
          :  Hamiltonian                  GFN2-xTB          :
 * total energy  :  -124.4878079 Eh     change       -0.4957386E-08 Eh
 * total energy  :  -124.4878092 Eh     change       -0.1363912E-05 Eh
 * total energy  :  -124.4878122 Eh     change       -0.2962002E-05 Eh
 * total energy  :  -124.4878181 Eh     change       -0.5891681E-05 Eh
 * total energy  :  -124.4878229 Eh     change       -0.4862590E-05 Eh
 * total energy  :  -124.4878265 Eh     change       -0.3586617E-05 Eh
 * total energy  :  -124.4878310 Eh     change       -0.4430705E-05 Eh
 * total energy  :  -124.4878371 Eh     change       -0.6139831E-05 Eh
 * total energy  :  -124.4878422 Eh     change       -0.5073881E-05 Eh
 * total energy  :  -124.4878452 Eh     change       -0.2994369E-05 Eh
 * total energy  :  -124.4878962 Eh     change       -0.1819662E-05 Eh
 * total energy  :  -124.4878982 Eh     change       -0.1936774E-05 Eh
 * total energy  :  -124.4878998 Eh     change       -0.1621088E-05 Eh
 * total energy  :  -124.4879010 Eh     change       -0.1211317E-05 Eh
 * total energy  :  -124.4879021 Eh     change       -0.1058585E-05 Eh
 * total energy  :  -124.4879032 Eh     change       -0.1161397E-05 Eh
 * total energy  :  -124.4879048 Eh     change       -0.1559076E-05 Eh
 * total energy  :  -124.4879068 Eh     change       -0.2053785E-05 Eh
 * total energy  :  -124.4879069 Eh     change       -0.6333238E-08 Eh
   *** GEOMETRY OPTIMIZATION CONVERGED AFTER 44 ITERATIONS ***

 final structure:
================
80
 xtb: 6.7.1 (edcfbbe)
O            1.99852491643718        3.03281229939718       -0.68468358379106
C            2.20944394692389        1.85006636416331       -0.48842237870038
C            1.08510026906564        0.87821007419883       -0.37623654878836
C           -0.05498905183155        1.24627358761666        0.33338854798963
C           -1.12391533058440        0.37915768187779        0.44197493114437
C           -1.07699246446766       -0.86747789317853       -0.17874463686520
C           -2.18611624117768       -1.85269791359673       -0.04721655993621
O           -1.95494803704070       -3.04382224468085        0.05520670560976
C           -3.56045986960683       -1.31778970195886       -0.03293669852671
C           -4.55893613093193       -2.05310716902820        0.61060337289166
C           -5.85553575031985       -1.59852961770704        0.65831014306208
C           -6.20554306831881       -0.39481681931811        0.03544940484511
N           -7.50963504547922        0.07622787123992        0.08337986538942
C           -7.76931059657140        1.45566775163764        0.08890382947036
C           -8.85093934790083        1.96866537071824       -0.62476124212056
C           -9.11420648295247        3.32482707102801       -0.60678090602365
C           -8.30363583980845        4.18712095849867        0.11309597169069
C           -7.22686449921546        3.68152803936589        0.82291322315232
C           -6.96057071090908        2.32596402776124        0.81801232544274
C           -8.59090277594770       -0.81764068320456        0.13750293825948
C           -8.58357576581919       -1.98454129748904       -0.62474547185178
C           -9.65407408276137       -2.85611130150471       -0.56898431664350
C          -10.74638911926997       -2.57497011419532        0.23528698364764
C          -10.76044764397820       -1.41274529867003        0.98881158834576
C           -9.69113960338833       -0.53894560345940        0.94626933066505
C           -5.21391546623521        0.32353591295489       -0.64277504659253
C           -3.91367899159450       -0.12709511039860       -0.67145564166680
C            0.06198818425617       -1.23271334040927       -0.89332097072750
C            1.13283552017238       -0.36812821761982       -0.99722210799761
C            3.57267374454936        1.30792388273227       -0.34377243043492
C            3.84204797707207        0.12090254898556        0.34144743170584
C            5.13507566446966       -0.32853656642882        0.48242733561778
C            6.20584637207274        0.38936134683502       -0.06302159844036
N            7.50698206951346       -0.07109699676476        0.07411233524758
C            8.57733844617822        0.83204047936243        0.17348018648513
C            8.44750868848079        2.00511436282883        0.91501557726356
C            9.50840348487637        2.88458238732331        1.01326843592245
C           10.71142492819425        2.60529505557056        0.38578065275153
C           10.84652473386986        1.43710537072377       -0.34625261517860
C            9.78872191916205        0.55532606634737       -0.45751003250522
C            7.77370565845188       -1.44822626021582        0.13035346692354
C            7.08512076390412       -2.33619581302539       -0.69446362733941
C            7.35618805536035       -3.68962650702566       -0.63692892917240
C            8.31956665371764       -4.17539194908912        0.23191955918224
C            9.01128978736198       -3.29544460128116        1.04798930084758
C            8.74147252912554       -1.94114634416223        1.00367602844813
C            5.93728923418017        1.58458788111152       -0.74095181966001
C            4.64508676087184        2.03614134483519       -0.86611832172966
H           -0.08282709145913        2.21734750198501        0.80518968673366
H           -1.98994679334823        0.65908419390179        1.02371798678322
H           -4.28382862955821       -2.97929456026776        1.09272297780803
H           -6.61008831382520       -2.16323175126977        1.18533840577238
H           -9.47912991735752        1.29764343822428       -1.19208917918168
H           -9.95388170787469        3.71119426030027       -1.16525465317939
H           -8.51041581443952        5.24636321619024        0.12211490784922
H           -6.59415710706906        4.34596528429393        1.39250809018269
H           -6.12847299399554        1.93139562861892        1.38262419662019
H           -7.73753807633454       -2.19906547175869       -1.26109958509928
H           -9.63819172256598       -3.75666555609231       -1.16473255347290
H          -11.58204363302486       -3.25696425437368        0.27370470124482
H          -11.60661292059730       -1.18772935607576        1.62099925051863
H           -9.69924427280617        0.36357947723016        1.53977476197855
H           -5.48007457533179        1.23556040836787       -1.15636322040865
H           -3.17135560870859        0.43035772077922       -1.22342024811013
H            0.08822477590769       -2.20398826690170       -1.36479941545858
H            2.00372299460088       -0.64930995590578       -1.57134760346328
H            3.03612472952506       -0.43501624786485        0.79714968817294
H            5.33315491846859       -1.23673278214736        1.03224625459823
H            7.51406420406148        2.21802980630997        1.41510317512841
H            9.39688196591034        3.78968306997592        1.59164501013402
H           11.53896853126612        3.29327065394642        0.46795223379475
H           11.78006138716082        1.21333916765890       -0.84091433639570
H            9.89230308692227       -0.35226646497295       -1.03403640542181
H            6.34244099940789       -1.95698792538134       -1.38110820062537
H            6.81721687978300       -4.36810865510335       -1.28141813981475
H            8.53055654525714       -5.23308653289131        0.27192268805383
H            9.76152816685338       -3.66633014830348        1.73049392536693
H            9.27584578554607       -1.25638506379820        1.64579885030394
H            6.75340216627747        2.14590729541229       -1.17102603534499
H            4.43287194709269        2.95664261623082       -1.38921733848199

          :  Hamiltonian                  GFN2-xTB          :
         :: gradient norm              0.000061848819 Eh/a0 ::
         :: HOMO-LUMO gap              1.888666011321 eV    ::
         :: SCC energy              -126.738889174295 Eh    ::
         :: -> dispersion             -0.105684466634 Eh    ::
         :: repulsion energy           2.250982321988 Eh    ::

    * Orbital Energies and Occupations

         #    Occupation            Energy/Eh            Energy/eV
      -------------------------------------------------------------
         1        2.0000           -0.6966443             -18.9567
       ...           ...                  ...                  ...
       103        2.0000           -0.4147764             -11.2866
       104        2.0000           -0.4145790             -11.2813
       105        2.0000           -0.4143051             -11.2738
       106        2.0000           -0.4139378             -11.2638
       107        2.0000           -0.4124141             -11.2224
       108        2.0000           -0.4118339             -11.2066
       109        2.0000           -0.4114176             -11.1952
       110        2.0000           -0.4108692             -11.1803
       111        2.0000           -0.4104825             -11.1698
       112        2.0000           -0.3879031             -10.5554
       113        2.0000           -0.3806959             -10.3593
       114        2.0000           -0.3595817              -9.7847
       115        2.0000           -0.3590151              -9.7693 (HOMO)
       116                         -0.2896079              -7.8806 (LUMO)
       117                         -0.2714326              -7.3861
       118                         -0.2400528              -6.5322
       119                         -0.2374229              -6.4606
       120                         -0.2370708              -6.4510
       121                         -0.2353391              -6.4039
       122                         -0.2342071              -6.3731
       123                         -0.2330517              -6.3417
       124                         -0.2288256              -6.2267
       125                         -0.2284667              -6.2169
       126                         -0.2281704              -6.2088
       ...                                ...                  ...
       224                          0.6859643              18.6660
      -------------------------------------------------------------
                  HL-Gap            0.0694072 Eh            1.8887 eV

     #   Z          covCN         q      C6AA      α(0)
     1   8 O        0.858    -0.379    21.263     6.182
     2   6 C        2.828     0.224    23.300     7.910
     3   6 C        2.973    -0.006    28.166     8.705
     4   6 C        2.923    -0.020    28.495     8.754
     5   6 C        2.919    -0.027    28.668     8.780
     6   6 C        2.972    -0.007    28.200     8.711
     7   6 C        2.828     0.223    23.307     7.911
     8   8 O        0.858    -0.380    21.279     6.185
     9   6 C        2.971    -0.024    28.593     8.771
    10   6 C        2.924    -0.018    28.470     8.750
    11   6 C        2.919    -0.049    29.221     8.865
    12   6 C        2.923     0.071    26.401     8.426
    13   7 N        2.752    -0.069    22.569     7.056
    14   6 C        2.926     0.064    26.562     8.452
    15   6 C        2.922    -0.046    29.130     8.851
    16   6 C        2.920    -0.028    28.705     8.786
    17   6 C        2.919    -0.036    28.892     8.815
    18   6 C        2.920    -0.028    28.706     8.786
    19   6 C        2.922    -0.046    29.135     8.852
    20   6 C        2.926     0.064    26.562     8.452
    21   6 C        2.922    -0.045    29.129     8.851
    22   6 C        2.920    -0.028    28.703     8.786
    23   6 C        2.919    -0.036    28.892     8.814
    24   6 C        2.920    -0.028    28.708     8.786
    25   6 C        2.922    -0.046    29.131     8.851
    26   6 C        2.920    -0.049    29.219     8.864
    27   6 C        2.919    -0.027    28.685     8.783
    28   6 C        2.923    -0.019    28.479     8.751
    29   6 C        2.919    -0.027    28.665     8.780
    30   6 C        2.971    -0.024    28.607     8.773
    31   6 C        2.919    -0.027    28.684     8.783
    32   6 C        2.920    -0.049    29.217     8.864
    33   6 C        2.923     0.072    26.392     8.425
    34   7 N        2.752    -0.068    22.561     7.054
    35   6 C        2.926     0.064    26.563     8.452
    36   6 C        2.922    -0.045    29.129     8.851
    37   6 C        2.920    -0.028    28.702     8.785
    38   6 C        2.919    -0.036    28.890     8.814
    39   6 C        2.920    -0.028    28.707     8.786
    40   6 C        2.922    -0.045    29.129     8.851
    41   6 C        2.926     0.064    26.564     8.452
    42   6 C        2.922    -0.046    29.132     8.851
    43   6 C        2.920    -0.028    28.705     8.786
    44   6 C        2.919    -0.036    28.889     8.814
    45   6 C        2.920    -0.028    28.704     8.786
    46   6 C        2.922    -0.045    29.129     8.851
    47   6 C        2.919    -0.049    29.217     8.864
    48   6 C        2.924    -0.018    28.463     8.749
    49   1 H        0.926     0.052     2.290     2.366
    50   1 H        0.926     0.040     2.444     2.445
    51   1 H        0.926     0.057     2.237     2.339
    52   1 H        0.926     0.039     2.467     2.456
    53   1 H        0.926     0.034     2.535     2.490
    54   1 H        0.926     0.035     2.521     2.483
    55   1 H        0.926     0.034     2.530     2.487
    56   1 H        0.926     0.035     2.511     2.478
    57   1 H        0.926     0.033     2.541     2.493
    58   1 H        0.926     0.035     2.510     2.478
    59   1 H        0.926     0.036     2.507     2.476
    60   1 H        0.926     0.034     2.533     2.489
    61   1 H        0.926     0.034     2.524     2.484
    62   1 H        0.926     0.033     2.539     2.492
    63   1 H        0.926     0.037     2.484     2.464
    64   1 H        0.926     0.039     2.460     2.453
    65   1 H        0.926     0.055     2.259     2.350
    66   1 H        0.926     0.040     2.448     2.447
    67   1 H        0.926     0.039     2.461     2.453
    68   1 H        0.926     0.037     2.483     2.464
    69   1 H        0.926     0.035     2.513     2.479
    70   1 H        0.926     0.036     2.506     2.476
    71   1 H        0.926     0.034     2.531     2.488
    72   1 H        0.926     0.035     2.521     2.483
    73   1 H        0.926     0.034     2.536     2.490
    74   1 H        0.926     0.034     2.535     2.490
    75   1 H        0.926     0.036     2.507     2.476
    76   1 H        0.926     0.034     2.527     2.486
    77   1 H        0.926     0.035     2.519     2.482
    78   1 H        0.926     0.034     2.535     2.490
    79   1 H        0.926     0.039     2.463     2.454
    80   1 H        0.926     0.058     2.222     2.331

molecular dipole:
                 x           y           z       tot (Debye)
 q only:        0.050       0.007       0.204
   full:        0.044       0.009       0.222       0.576

 projected vibrational frequencies (cm⁻¹)
eigval :       -0.00    -0.00    -0.00     0.00     0.00     0.00
eigval :        5.67     9.50    10.11    15.89    21.91    38.37
eigval :       39.62    40.37    44.38    48.67    49.95    61.05
eigval :       62.03    73.60    76.04    79.10    89.28   110.62
eigval :      111.50   124.32   141.85   153.44   166.62   202.87
eigval :      208.94   214.85   222.88   235.84   236.20   238.36
eigval :      268.09   271.48   295.47   306.91   313.21   323.30
eigval :      341.97   358.26   367.38   377.97   378.00   380.06
eigval :      381.13   389.50   391.77   399.07   401.42   417.73
eigval :      424.02   447.30   473.80   482.63   490.38   499.33
eigval :      502.30   503.15   538.41   574.18   582.64   584.33
eigval :      586.32   588.52   593.03   594.27   595.33   607.63
eigval :      608.21   615.02   642.42   646.26   658.40   661.04
eigval :      663.85   667.38   671.34   683.23   705.29   711.81
eigval :      729.19   743.94   758.35   758.43   759.26   761.75
eigval :      774.17   822.37   825.30   826.65   869.57   870.02
eigval :      875.48   875.64   876.40   876.61   879.87   889.04
eigval :      894.97   895.62   895.83   897.16   909.70   910.04
eigval :      911.02   918.67   921.44   925.30   926.45   928.51
eigval :      928.56   929.20   929.39   929.95   930.21   931.08
eigval :      931.37   934.49   936.28   937.57   959.44   986.47
eigval :      989.76  1005.54  1005.59  1014.08  1025.03  1033.42
eigval :     1082.59  1082.64  1083.70  1083.73  1121.40  1121.41
eigval :     1123.18  1123.20  1134.68  1141.96  1141.97  1170.61
eigval :     1179.03  1180.46  1180.51  1180.56  1180.58  1185.70
eigval :     1186.03  1188.28  1193.74  1194.61  1194.65  1203.39
eigval :     1213.17  1220.24  1256.20  1263.68  1267.68  1268.56
eigval :     1277.35  1277.68  1277.90  1281.44  1282.40  1309.91
eigval :     1310.15  1317.44  1317.61  1320.42  1325.74  1325.80
eigval :     1332.23  1333.82  1335.66  1336.98  1393.76  1416.41
eigval :     1417.25  1436.25  1436.28  1441.71  1441.77  1467.46
eigval :     1468.98  1469.15  1474.10  1474.23  1483.44  1483.74
eigval :     1548.05  1548.33  1561.52  1578.59  1578.64  1580.76
eigval :     1581.52  1584.05  1584.65  1587.79  1593.95  1594.02
eigval :     1599.32  1599.41  1680.21  1682.96  3078.34  3078.51
eigval :     3078.64  3078.80  3079.23  3079.39  3079.51  3079.83
eigval :     3079.93  3079.99  3081.88  3082.46  3086.27  3086.46
eigval :     3087.55  3087.63  3088.21  3088.30  3090.90  3091.03
eigval :     3091.62  3091.75  3092.96  3093.53  3093.78  3094.16
eigval :     3097.84  3097.94  3099.52  3099.64  3099.98  3100.08

   temp. (K)  partition function   enthalpy   heat capacity  entropy
                                   cal/mol     cal/K/mol   cal/K/mol   J/K/mol
 298.15  VIB  0.913E+20            23458.151    143.716    149.805
         ROT  0.132E+09              888.752      2.981     40.136
         INT  0.120E+29            24346.903    146.697    189.941
         TR   0.150E+29             1481.254      4.968     45.140
         TOT                       25828.1568   151.6651   235.0807   983.5777

       T/K    H(0)-H(T)+PV         H(T)/Eh          T*S/Eh         G(T)/Eh
   ------------------------------------------------------------------------
    298.15    0.411598E-01    0.658218E+00    0.111694E+00    0.546523E+00
   ------------------------------------------------------------------------

         :::::::::::::::::::::::::::::::::::::::::::::::::::::
         ::                  THERMODYNAMIC                  ::
         :::::::::::::::::::::::::::::::::::::::::::::::::::::
         :: total free energy        -123.941383396069 Eh   ::
         ::.................................................::
         :: total energy             -124.487906852306 Eh   ::
         :: zero point energy           0.617058103995 Eh   ::
         :: G(RRHO) w/o ZPVE           -0.070534647758 Eh   ::
         :: G(RRHO) contrib.            0.546523456237 Eh   ::
         :::::::::::::::::::::::::::::::::::::::::::::::::::::

           -------------------------------------------------
          | TOTAL ENERGY             -124.487906852306 Eh   |
          | TOTAL ENTHALPY           -123.829688960484 Eh   |
          | TOTAL FREE ENERGY        -123.941383396069 Eh   |
          | GRADIENT NORM               0.000061848128 Eh/α |
          | HOMO-LUMO GAP               1.888665401504 eV   |
           -------------------------------------------------

 * finished run on 2025/08/22 at 19:28:52.612
