   * xtb version 6.7.1 (edcfbbe) compiled by 'albert@albert-system' on 2024-07-22

   ID    Z sym.   atoms
    1    8 O      1, 8
    2    6 C      2-7, 9-12, 14-33, 35-48
    3    7 N      13, 34
    4    1 H      49-80

          program call               : xtb data2507/gas/p-DTPACO/p-DTPACO.xyz --gfn 2 --ohess vtight --parallel 40 --molden --ceasefiles --namespace data2507/gas/p-DTPACO/p-DTPACO_gas_S0_preOpt
          :  Hamiltonian                  GFN2-xTB          :
 * total energy  :  -124.4609512 Eh     change       -0.5527696E-08 Eh
 * total energy  :  -124.4756255 Eh     change       -0.1467432E-01 Eh
 * total energy  :  -124.4816425 Eh     change       -0.6016901E-02 Eh
 * total energy  :  -124.4834621 Eh     change       -0.1819619E-02 Eh
 * total energy  :  -124.4845381 Eh     change       -0.1076075E-02 Eh
 * total energy  :  -124.4850483 Eh     change       -0.5101994E-03 Eh
 * total energy  :  -124.4853067 Eh     change       -0.2584039E-03 Eh
 * total energy  :  -124.4855015 Eh     change       -0.1947036E-03 Eh
 * total energy  :  -124.4856336 Eh     change       -0.1321664E-03 Eh
 * total energy  :  -124.4857226 Eh     change       -0.8899711E-04 Eh
 * total energy  :  -124.4869575 Eh     change       -0.3912018E-06 Eh
 * total energy  :  -124.4869579 Eh     change       -0.3607916E-06 Eh
 * total energy  :  -124.4869581 Eh     change       -0.2697264E-06 Eh
 * total energy  :  -124.4869584 Eh     change       -0.2277016E-06 Eh
 * total energy  :  -124.4869585 Eh     change       -0.1656607E-06 Eh
 * total energy  :  -124.4869587 Eh     change       -0.1598833E-06 Eh
 * total energy  :  -124.4869588 Eh     change       -0.1576000E-06 Eh
 * total energy  :  -124.4869590 Eh     change       -0.1180085E-06 Eh
 * total energy  :  -124.4869590 Eh     change       -0.8749826E-07 Eh
   *** GEOMETRY OPTIMIZATION CONVERGED AFTER 118 ITERATIONS ***

 final structure:
================
80
 xtb: 6.7.1 (edcfbbe)
O            2.33089763554801       -3.04057551108428        2.71345313019173
C            2.34318862912918       -2.40185047785838        1.67742930761777
C            1.14586396976827       -2.35809334856637        0.79288779433283
C            1.25573638869365       -2.37256509442805       -0.59641640567285
C            0.11841905832575       -2.38486718371899       -1.37825925136824
C           -1.14586192586388       -2.35807347299429       -0.79287682198364
C           -2.34318688365305       -2.40182431947826       -1.67741783990414
O           -2.33089082628134       -3.04053099903784       -2.71345325397614
C           -3.53434727200833       -1.64763042638462       -1.23931887589390
C           -3.45429223754326       -0.51053952811221       -0.43357646318073
C           -4.59238366993261        0.17806122535686       -0.07739367904426
C           -5.85217253571582       -0.25231082951298       -0.50887509485752
N           -7.00030443936474        0.43391988136657       -0.13806975042610
C           -6.97129825129350        1.82330031209760        0.05815736400914
C           -6.22919509195523        2.64319124012618       -0.79048587947127
C           -6.21263479725950        4.01063972822663       -0.59453706700898
C           -6.93891936868690        4.58018980778059        0.43852918484956
C           -7.68322086721045        3.76950289089206        1.27972427417897
C           -7.69968091939367        2.40015389832489        1.09704013700507
C           -8.21350987528715       -0.25070181701015        0.03677690833448
C           -8.23772500890688       -1.50108408199538        0.65227617861208
C           -9.43618648140459       -2.16580168036038        0.82647586678343
C          -10.62379510126298       -1.59355221847351        0.40090732726010
C          -10.60470679973801       -0.34809413173354       -0.20504401809845
C           -9.41029145138395        0.32096413413301       -0.39105737205426
C           -5.93133752158044       -1.38423448915341       -1.32815451807128
C           -4.78993998278185       -2.05784979490364       -1.69396050305948
C           -1.25573423247602       -2.37255547114604        0.59642689591924
C           -0.11841731894534       -2.38487911212528        1.37826971061497
C            3.53435152851838       -1.64766201049526        1.23932888192278
C            4.78994534537503       -2.05788933646972        1.69396067813009
C            5.93134268394020       -1.38427251495885        1.32815652428838
C            5.85217630956019       -0.25234169356097        0.50888712771413
N            7.00030789276163        0.43388847053275        0.13807944582294
C            8.21350824599626       -0.25073512239654       -0.03679142225436
C            9.41029920466349        0.32093011334370        0.39101785234358
C           10.60471028895056       -0.34812895788688        0.20498033437837
C           10.62378502455460       -1.59358735188152       -0.40097085304396
C            9.43616732698963       -2.16583556584967       -0.82651576796765
C            8.23770981181777       -1.50111738677465       -0.65229134084653
C            6.97130092734408        1.82327023881167       -0.05814052703705
C            6.22921675154837        2.64315775522981        0.79052247926907
C            6.21265590328394        4.01060742786769        0.59458192809029
C            6.93892121201981        4.58016214468868       -0.43849536058890
C            7.68320176264196        3.76947822287710       -1.27971183900953
C            7.69966205183216        2.40012813401858       -1.09703597749954
C            4.59238632946204        0.17803770088269        0.07741605364531
C            3.45429518199846       -0.51056381521490        0.43359736150904
H            2.23112724228404       -2.40410524174851       -1.05948796060768
H            0.18844566680174       -2.41279874191499       -2.45563172365836
H           -2.49185969108927       -0.15257243461609       -0.09857363700283
H           -4.51819879354400        1.05492481452787        0.54879410701595
H           -5.67301474104623        2.20146234851929       -1.60439541813110
H           -5.63602677548003        4.63625526121430       -1.25973907943648
H           -6.92632550472471        5.64932988961671        0.58585661821475
H           -8.25005028917015        4.20518507792038        2.08912928258695
H           -8.27518946712459        1.76785476934322        1.75717227173670
H           -7.31365358711922       -1.94333797146168        0.99481897460943
H           -9.44298234661009       -3.13342096438319        1.30593034261755
H          -11.55840329476045       -2.11466661428868        0.54160828391535
H          -11.52565717209511        0.10347908739252       -0.54292606425634
H           -9.39526093817404        1.28887306531027       -0.87035017328355
H           -6.89542900467980       -1.71533049537523       -1.68445753218751
H           -4.84547137650116       -2.92084027292636       -2.34046549989416
H           -2.23112543294500       -2.40408179033292        1.05949849647019
H           -0.18844499003233       -2.41280247869850        2.45564221638215
H            4.84547730270718       -2.92088271137970        2.34046180481253
H            6.89543513508430       -1.71537222699426        1.68445337238593
H            9.39527899912698        1.28883814288654        0.87031273673879
H           11.52566781717042        0.10344331233302        0.54284427557778
H           11.55838988254953       -2.11470241141852       -0.54169124525250
H            9.44295271150146       -3.13345462836521       -1.30597081695422
H            7.31363147182156       -1.94336955007937       -0.99481778758701
H            5.67304866810610        2.20142489117593        1.60443826854556
H            5.63606015961836        4.63622008511273        1.25979719794832
H            6.92632540105198        5.64930306035906       -0.58581720266034
H            8.25001660271943        4.20516381965025       -2.08912524243031
H            8.27515802978023        1.76783173241720       -1.75718167742460
H            4.51820070981576        1.05490759600273       -0.54876276589446
H            2.49186200020175       -0.15259000297280        0.09860371253340

          :  Hamiltonian                  GFN2-xTB          :
         :: gradient norm              0.000022614248 Eh/a0 ::
         :: HOMO-LUMO gap              1.850984282627 eV    ::
         :: SCC energy              -126.737507621507 Eh    ::
         :: -> dispersion             -0.105396046052 Eh    ::
         :: repulsion energy           2.250548580929 Eh    ::

    * Orbital Energies and Occupations

         #    Occupation            Energy/Eh            Energy/eV
      -------------------------------------------------------------
         1        2.0000           -0.6973392             -18.9756
       ...           ...                  ...                  ...
       103        2.0000           -0.4156148             -11.3095
       104        2.0000           -0.4154742             -11.3056
       105        2.0000           -0.4154679             -11.3055
       106        2.0000           -0.4150938             -11.2953
       107        2.0000           -0.4141072             -11.2684
       108        2.0000           -0.4125004             -11.2247
       109        2.0000           -0.4121554             -11.2153
       110        2.0000           -0.4114011             -11.1948
       111        2.0000           -0.4113514             -11.1934
       112        2.0000           -0.3885778             -10.5737
       113        2.0000           -0.3819453             -10.3933
       114        2.0000           -0.3599655              -9.7952
       115        2.0000           -0.3596477              -9.7865 (HOMO)
       116                         -0.2916252              -7.9355 (LUMO)
       117                         -0.2715381              -7.3889
       118                         -0.2410576              -6.5595
       119                         -0.2379559              -6.4751
       120                         -0.2379555              -6.4751
       121                         -0.2361586              -6.4262
       122                         -0.2350923              -6.3972
       123                         -0.2337620              -6.3610
       124                         -0.2298836              -6.2555
       125                         -0.2293927              -6.2421
       126                         -0.2289694              -6.2306
       ...                                ...                  ...
       224                          0.6858987              18.6643
      -------------------------------------------------------------
                  HL-Gap            0.0680225 Eh            1.8510 eV

     #   Z          covCN         q      C6AA      α(0)
     1   8 O        0.858    -0.377    21.226     6.177
     2   6 C        2.828     0.224    23.300     7.910
     3   6 C        2.972    -0.007    28.184     8.708
     4   6 C        2.919    -0.027    28.666     8.780
     5   6 C        2.923    -0.019    28.480     8.752
     6   6 C        2.972    -0.007    28.184     8.708
     7   6 C        2.828     0.224    23.300     7.910
     8   8 O        0.858    -0.377    21.226     6.177
     9   6 C        2.971    -0.023    28.586     8.770
    10   6 C        2.919    -0.028    28.688     8.783
    11   6 C        2.920    -0.050    29.231     8.866
    12   6 C        2.923     0.072    26.397     8.426
    13   7 N        2.752    -0.069    22.578     7.057
    14   6 C        2.925     0.064    26.559     8.451
    15   6 C        2.922    -0.046    29.142     8.853
    16   6 C        2.920    -0.028    28.712     8.787
    17   6 C        2.919    -0.036    28.900     8.816
    18   6 C        2.920    -0.028    28.708     8.786
    19   6 C        2.922    -0.046    29.134     8.851
    20   6 C        2.926     0.064    26.560     8.452
    21   6 C        2.922    -0.046    29.133     8.851
    22   6 C        2.920    -0.028    28.704     8.786
    23   6 C        2.919    -0.036    28.891     8.814
    24   6 C        2.920    -0.028    28.704     8.786
    25   6 C        2.922    -0.045    29.129     8.851
    26   6 C        2.920    -0.048    29.202     8.862
    27   6 C        2.924    -0.018    28.465     8.749
    28   6 C        2.919    -0.027    28.666     8.780
    29   6 C        2.923    -0.019    28.480     8.752
    30   6 C        2.971    -0.023    28.586     8.770
    31   6 C        2.924    -0.018    28.465     8.749
    32   6 C        2.920    -0.048    29.202     8.862
    33   6 C        2.923     0.072    26.397     8.426
    34   7 N        2.752    -0.069    22.578     7.057
    35   6 C        2.926     0.064    26.560     8.452
    36   6 C        2.922    -0.045    29.129     8.851
    37   6 C        2.920    -0.028    28.704     8.786
    38   6 C        2.919    -0.036    28.891     8.814
    39   6 C        2.920    -0.028    28.704     8.786
    40   6 C        2.922    -0.046    29.133     8.851
    41   6 C        2.925     0.064    26.559     8.451
    42   6 C        2.922    -0.046    29.142     8.853
    43   6 C        2.920    -0.028    28.712     8.787
    44   6 C        2.919    -0.036    28.900     8.816
    45   6 C        2.920    -0.028    28.708     8.786
    46   6 C        2.922    -0.046    29.134     8.851
    47   6 C        2.920    -0.050    29.231     8.866
    48   6 C        2.919    -0.028    28.688     8.783
    49   1 H        0.926     0.041     2.431     2.438
    50   1 H        0.926     0.056     2.247     2.344
    51   1 H        0.926     0.037     2.495     2.470
    52   1 H        0.926     0.036     2.497     2.471
    53   1 H        0.926     0.034     2.526     2.485
    54   1 H        0.926     0.035     2.522     2.484
    55   1 H        0.926     0.033     2.537     2.491
    56   1 H        0.926     0.035     2.522     2.483
    57   1 H        0.926     0.034     2.534     2.489
    58   1 H        0.926     0.034     2.533     2.489
    59   1 H        0.926     0.035     2.510     2.477
    60   1 H        0.926     0.034     2.530     2.487
    61   1 H        0.926     0.035     2.520     2.483
    62   1 H        0.926     0.034     2.537     2.491
    63   1 H        0.926     0.039     2.460     2.453
    64   1 H        0.926     0.058     2.225     2.333
    65   1 H        0.926     0.041     2.431     2.438
    66   1 H        0.926     0.056     2.247     2.344
    67   1 H        0.926     0.058     2.225     2.333
    68   1 H        0.926     0.039     2.460     2.453
    69   1 H        0.926     0.034     2.537     2.491
    70   1 H        0.926     0.035     2.520     2.483
    71   1 H        0.926     0.034     2.530     2.487
    72   1 H        0.926     0.035     2.510     2.477
    73   1 H        0.926     0.034     2.533     2.489
    74   1 H        0.926     0.034     2.526     2.485
    75   1 H        0.926     0.035     2.522     2.484
    76   1 H        0.926     0.033     2.537     2.491
    77   1 H        0.926     0.035     2.522     2.483
    78   1 H        0.926     0.034     2.534     2.489
    79   1 H        0.926     0.036     2.497     2.471
    80   1 H        0.926     0.037     2.495     2.470

molecular dipole:
                 x           y           z       tot (Debye)
 q only:        0.000       1.849       0.000
   full:        0.000       2.019       0.000       5.131

 projected vibrational frequencies (cm⁻¹)
eigval :       -0.00    -0.00    -0.00    -0.00     0.00     0.00
eigval :        4.98     8.75     9.48    19.11    23.21    35.31
eigval :       37.44    45.35    48.71    48.82    54.65    61.09
eigval :       65.14    69.43    69.79    82.03    92.85   111.86
eigval :      112.50   128.44   146.70   146.73   163.37   190.89
eigval :      216.49   217.22   224.70   235.58   236.37   245.68
eigval :      260.00   265.29   293.83   311.56   313.55   330.95
eigval :      337.85   367.55   371.98   376.12   377.90   378.03
eigval :      381.36   382.58   387.40   389.96   399.21   406.02
eigval :      442.25   445.85   472.80   485.22   487.90   499.05
eigval :      501.46   502.73   552.56   558.97   582.69   583.85
eigval :      586.40   587.30   592.70   592.85   597.28   609.36
eigval :      612.95   621.86   636.54   644.17   657.64   661.23
eigval :      662.70   667.07   669.26   690.41   696.46   716.40
eigval :      729.25   742.38   757.82   758.36   758.45   761.78
eigval :      770.40   823.55   824.63   833.77   870.32   871.95
eigval :      875.65   875.67   876.24   876.87   879.55   886.95
eigval :      894.74   895.44   895.46   896.63   909.18   910.03
eigval :      911.34   919.08   921.83   926.13   927.45   928.58
eigval :      928.59   929.29   929.50   929.96   930.45   930.61
eigval :      931.09   935.09   937.01   937.64   959.53   986.52
eigval :      989.78  1005.48  1005.51  1014.10  1025.19  1033.07
eigval :     1082.67  1082.67  1083.71  1083.71  1121.38  1121.38
eigval :     1123.18  1123.19  1134.23  1141.60  1141.64  1169.76
eigval :     1178.11  1180.46  1180.48  1180.57  1180.57  1185.43
eigval :     1185.82  1187.76  1192.81  1194.65  1194.66  1203.14
eigval :     1212.85  1219.74  1255.54  1263.04  1267.36  1268.42
eigval :     1277.19  1277.73  1277.95  1281.47  1282.41  1310.08
eigval :     1310.39  1317.56  1317.73  1321.17  1325.71  1325.77
eigval :     1331.62  1333.33  1335.95  1337.18  1394.73  1415.44
eigval :     1415.44  1436.20  1436.20  1441.71  1441.76  1466.30
eigval :     1468.98  1469.20  1474.24  1474.34  1483.47  1483.48
eigval :     1549.54  1549.57  1560.73  1578.53  1578.54  1581.44
eigval :     1581.90  1584.96  1585.84  1586.12  1594.02  1594.09
eigval :     1599.50  1599.51  1680.78  1682.98  3078.11  3078.16
eigval :     3078.62  3078.67  3079.13  3079.13  3079.32  3079.37
eigval :     3079.70  3079.70  3081.27  3081.58  3086.77  3086.79
eigval :     3087.48  3087.49  3088.23  3088.23  3090.64  3090.67
eigval :     3091.52  3091.53  3092.24  3092.33  3093.88  3094.00
eigval :     3098.79  3098.82  3099.33  3099.36  3099.92  3099.95

   temp. (K)  partition function   enthalpy   heat capacity  entropy
                                   cal/mol     cal/K/mol   cal/K/mol   J/K/mol
 298.15  VIB  0.835E+20            23448.366    143.920    149.868
         ROT  0.681E+08              888.752      2.981     38.823
         INT  0.568E+28            24337.118    146.900    188.691
         TR   0.150E+29             1481.254      4.968     45.140
         TOT                       25818.3718   151.8686   233.8303   978.3459

       T/K    H(0)-H(T)+PV         H(T)/Eh          T*S/Eh         G(T)/Eh
   ------------------------------------------------------------------------
    298.15    0.411442E-01    0.658194E+00    0.111100E+00    0.547094E+00
   ------------------------------------------------------------------------

         :::::::::::::::::::::::::::::::::::::::::::::::::::::
         ::                  THERMODYNAMIC                  ::
         :::::::::::::::::::::::::::::::::::::::::::::::::::::
         :: total free energy        -123.939865020741 Eh   ::
         ::.................................................::
         :: total energy             -124.486959040579 Eh   ::
         :: zero point energy           0.617050141760 Eh   ::
         :: G(RRHO) w/o ZPVE           -0.069956121922 Eh   ::
         :: G(RRHO) contrib.            0.547094019837 Eh   ::
         :::::::::::::::::::::::::::::::::::::::::::::::::::::

           -------------------------------------------------
          | TOTAL ENERGY             -124.486959040579 Eh   |
          | TOTAL ENTHALPY           -123.828764704347 Eh   |
          | TOTAL FREE ENERGY        -123.939865020741 Eh   |
          | GRADIENT NORM               0.000022596369 Eh/α |
          | HOMO-LUMO GAP               1.850986042461 eV   |
           -------------------------------------------------

 * finished run on 2025/08/22 at 19:20:16.485
