   * xtb version 6.7.1 (edcfbbe) compiled by 'albert@albert-system' on 2024-07-22

   ID    Z sym.   atoms
    1    8 O      1, 8
    2    6 C      2-7, 9-12, 14-33, 35-48
    3    7 N      13, 34
    4    1 H      49-80

          program call               : xtb data2507/gas/p-DTPACO/p-DTPACO_gas_T1_crest.xyz --gfn 2 --spinpol --tblite --uhf 2 --ohess vtight --parallel 40 --molden --ceasefiles --namespace data2507/gas/p-DTPACO/p-DTPACO_gas_T1_finalOpt
 * total energy  :  -124.4136303 Eh     change        0.4463004E-08 Eh
 * total energy  :  -124.4136457 Eh     change       -0.1538248E-04 Eh
 * total energy  :  -124.4136526 Eh     change       -0.6894855E-05 Eh
 * total energy  :  -124.4136550 Eh     change       -0.2443843E-05 Eh
 * total energy  :  -124.4136586 Eh     change       -0.3592480E-05 Eh
 * total energy  :  -124.4136620 Eh     change       -0.3414262E-05 Eh
 * total energy  :  -124.4136645 Eh     change       -0.2459827E-05 Eh
 * total energy  :  -124.4136670 Eh     change       -0.2547094E-05 Eh
 * total energy  :  -124.4136693 Eh     change       -0.2295730E-05 Eh
 * total energy  :  -124.4136712 Eh     change       -0.1863569E-05 Eh
 * total energy  :  -124.4136811 Eh     change       -0.2957102E-05 Eh
 * total energy  :  -124.4136836 Eh     change       -0.2433072E-05 Eh
 * total energy  :  -124.4136859 Eh     change       -0.2369668E-05 Eh
 * total energy  :  -124.4136880 Eh     change       -0.2100593E-05 Eh
 * total energy  :  -124.4136903 Eh     change       -0.2221543E-05 Eh
 * total energy  :  -124.4136917 Eh     change       -0.1447383E-05 Eh
 * total energy  :  -124.4136925 Eh     change       -0.8159736E-06 Eh
 * total energy  :  -124.4136931 Eh     change       -0.5779357E-06 Eh
 * total energy  :  -124.4136931 Eh     change       -0.1368127E-07 Eh
   *** GEOMETRY OPTIMIZATION CONVERGED AFTER 22 ITERATIONS ***

 final structure:
================
80
 xtb: 6.7.1 (edcfbbe)
O            2.07144322648030        3.02408498525361        0.08669339352933
C            2.22662154398650        1.79061834815977        0.07614702144257
C            1.12551116027467        0.85798945422145        0.09079875801612
C           -0.15772752900731        1.32720827889050        0.44552950692114
C           -1.24410395989535        0.49836267580483        0.43963881276412
C           -1.12057827302506       -0.85209532535586        0.05515489344350
C           -2.22427486999670       -1.78227611936276        0.05884279792866
O           -2.07008760290713       -3.01629485047353        0.06218717449148
C           -3.60662512208628       -1.25049393716718        0.04203495531464
C           -4.60636658063022       -1.95862768659278        0.71600465285769
C           -5.90941856283844       -1.51878389991041        0.70652924781786
C           -6.26141306100442       -0.37318490808025       -0.01433164468049
N           -7.58366633481108        0.07998373690720       -0.03189040001890
C           -7.84855198157351        1.45198177677046       -0.03293446394600
C           -8.91894483090807        1.96643540092280       -0.76672112640650
C           -9.17437053870673        3.32342734154790       -0.76246505628355
C           -8.36988794425166        4.18710658543878       -0.03613627491760
C           -7.30378859103633        3.68166926123411        0.69130326185942
C           -7.04198746149362        2.32618861959162        0.69809991940573
C           -8.63507550319027       -0.83920190567562       -0.05479677671354
C           -8.51308458368415       -2.03498556748236       -0.76522467327481
C           -9.55280214589013       -2.94330676163636       -0.77818998385848
C          -10.72697787482462       -2.67675085666835       -0.09177556931604
C          -10.85371511129421       -1.49037160527385        0.61359323064304
C           -9.81907848296183       -0.57657546188060        0.63723908383306
C           -5.27424538046305        0.30525164368087       -0.73544841257659
C           -3.96863193465706       -0.13208495944425       -0.71337116168619
C            0.16321803976206       -1.32257448174760       -0.29503746135943
C            1.24925168768802       -0.49326253570700       -0.29104407615906
C            3.61059797519960        1.26067890023418        0.05404666166964
C            3.99797680972569        0.14939281115886        0.80686969212671
C            5.30287768352409       -0.29062498925858        0.78503281880995
C            6.26326385591941        0.37738505134043        0.01949025851594
N            7.58367992882165       -0.08004765956963       -0.01164324987490
C            8.63698387788145        0.83713734236916       -0.04631767011455
C            8.55097728932203        2.03830426445715        0.66010899228555
C            9.59122101473837        2.94505796381009        0.61572365069537
C           10.73018177004989        2.67150588902124       -0.12510813636908
C           10.82114395386724        1.47963928490068       -0.82672055698733
C            9.78555968598944        0.56717741261828       -0.79286365444680
C            7.84662236796699       -1.45227268542025       -0.00687573662253
C            7.00620286534369       -2.33441423274445       -0.68864092352838
C            7.26756861526283       -3.68996108879693       -0.67811432917566
C            8.36684389143595       -4.18779837007191        0.00374407150389
C            9.20520271556519       -3.31627181986924        0.68069320416338
C            8.95051122402954       -1.95915138492485        0.68123124495354
C            5.88707139232009        1.51733778193842       -0.69801141312393
C            4.58552107898981        1.96068645927572       -0.66251730767754
H           -0.25280924959030        2.35958159752192        0.74779165248114
H           -2.20059286083231        0.87642412738566        0.77127593761712
H           -4.32846440043487       -2.84370088944441        1.26762725817280
H           -6.66739210061001       -2.04748425740754        1.26588550345439
H           -9.53709215657359        1.29623655594788       -1.34580084108711
H          -10.00207423296174        3.71043020096213       -1.33788971256880
H           -8.57174712803250        5.24715784347131       -0.03771252497323
H           -6.67581682939932        4.34741686050253        1.26407533010785
H           -6.21931280445735        1.93148041532276        1.27563541073328
H           -7.60409919100621       -2.23770003409148       -1.31170310544675
H           -9.44835120440776       -3.86253496357684       -1.33473458380198
H          -11.53765035460465       -3.38887173447752       -0.10578751007932
H          -11.76233219613320       -1.27884829921525        1.15734442348811
H           -9.91321111873730        0.34029911678843        1.20029928925101
H           -5.54768116708146        1.16695721348916       -1.32700137642473
H           -3.22621715553649        0.37991673563443       -1.30673205592383
H            0.25871052215541       -2.35547078583794       -0.59536359873679
H            2.20559828440840       -0.87210755220547       -0.62202831206492
H            3.27649629891973       -0.35536920045544        1.43151739954379
H            5.59649312677679       -1.14701756366068        1.37461423102704
H            7.66953592966281        2.24654323146616        1.24808861397586
H            9.51507807650115        3.86864787956954        1.16963252290270
H           11.54130936602638        3.38257545398472       -0.15621004777018
H           11.70192225354612        1.26274156493654       -1.41253646486873
H            9.85103683551669       -0.35424172412093       -1.35257802323807
H            6.15737254338449       -1.94608308069524       -1.23159911893217
H            6.61284698004405       -4.36183569992196       -1.21249861485411
H            8.56826676228808       -5.24792389715091        0.00816031326829
H           10.05942942117029       -3.69708761451191        1.22037400240973
H            9.59580655601111       -1.28278752207744        1.22226646705399
H            6.62438170472232        2.03852306956394       -1.29099957729328
H            4.28931911694083        2.84107176441273       -1.21210321920726

 projected vibrational frequencies (cm⁻¹)
eigval :       -0.00     0.00     0.00     0.00     0.00     0.00
eigval :        6.71     9.11    10.63    15.87    20.48    38.60
eigval :       39.79    43.20    47.90    50.61    53.24    62.19
eigval :       62.75    74.00    77.11    85.89    86.72   108.39
eigval :      110.69   146.18   148.14   160.89   165.18   203.17
eigval :      209.33   216.32   220.98   234.02   235.89   246.54
eigval :      263.75   267.14   304.52   310.63   316.45   320.57
eigval :      338.57   370.19   375.05   376.31   376.86   379.27
eigval :      384.23   387.06   387.17   395.69   397.55   409.77
eigval :      417.39   430.75   451.26   479.73   481.77   488.19
eigval :      500.40   510.29   533.56   554.32   565.26   579.95
eigval :      584.62   586.23   586.49   590.01   591.89   596.69
eigval :      599.73   605.45   617.75   619.99   648.02   658.49
eigval :      659.00   662.62   666.72   671.92   689.30   691.29
eigval :      700.88   725.63   756.23   756.83   756.87   760.17
eigval :      768.05   809.57   815.34   818.51   841.23   863.70
eigval :      866.20   871.42   871.52   873.43   874.18   876.15
eigval :      894.52   894.61   895.05   896.68   904.45   908.53
eigval :      908.99   910.51   912.71   917.49   917.91   925.46
eigval :      927.47   927.51   928.93   928.99   929.28   929.35
eigval :      929.69   929.81   938.34   939.69   946.05   982.09
eigval :      985.41   999.35  1003.07  1003.12  1019.13  1020.45
eigval :     1081.37  1081.49  1082.34  1082.34  1121.68  1121.69
eigval :     1124.00  1124.05  1135.77  1137.08  1140.44  1152.06
eigval :     1164.69  1171.29  1179.02  1179.69  1179.71  1179.81
eigval :     1179.81  1184.20  1192.77  1192.98  1193.02  1199.06
eigval :     1213.43  1219.75  1245.15  1252.48  1259.22  1262.48
eigval :     1267.48  1275.94  1276.01  1278.24  1278.51  1305.82
eigval :     1307.10  1308.14  1310.65  1316.98  1317.69  1322.52
eigval :     1326.79  1326.85  1328.89  1332.22  1344.53  1408.22
eigval :     1408.75  1433.41  1433.45  1440.27  1440.36  1441.77
eigval :     1442.86  1455.74  1459.90  1462.76  1462.95  1463.00
eigval :     1463.14  1473.31  1522.95  1528.16  1529.18  1557.55
eigval :     1564.81  1569.43  1569.56  1573.70  1573.85  1583.91
eigval :     1584.03  1585.19  1590.42  1591.44  3068.61  3069.20
eigval :     3079.65  3079.69  3080.29  3080.31  3081.25  3081.30
eigval :     3081.43  3081.57  3083.44  3083.45  3083.95  3083.99
eigval :     3089.81  3089.82  3090.83  3090.86  3091.83  3092.01
eigval :     3093.58  3093.76  3094.26  3094.37  3094.66  3094.74
eigval :     3101.09  3101.16  3101.82  3102.04  3102.11  3102.33

   temp. (K)  partition function   enthalpy   heat capacity  entropy
                                   cal/mol     cal/K/mol   cal/K/mol   J/K/mol
 298.15  VIB  0.573E+20            23555.412    145.292    149.851
         ROT  0.133E+09              888.752      2.981     40.147
         INT  0.760E+28            24444.164    148.273    189.998
         TR   0.150E+29             1481.254      4.968     45.140
         TOT                       25925.4180   153.2410   235.1377   983.8162

       T/K    H(0)-H(T)+PV         H(T)/Eh          T*S/Eh         G(T)/Eh
   ------------------------------------------------------------------------
    298.15    0.413148E-01    0.654920E+00    0.111722E+00    0.543198E+00
   ------------------------------------------------------------------------

         :::::::::::::::::::::::::::::::::::::::::::::::::::::
         ::                  THERMODYNAMIC                  ::
         :::::::::::::::::::::::::::::::::::::::::::::::::::::
         :: total free energy        -123.870494895678 Eh   ::
         ::.................................................::
         :: total energy             -124.413693094974 Eh   ::
         :: zero point energy           0.613604929265 Eh   ::
         :: G(RRHO) w/o ZPVE           -0.070406729969 Eh   ::
         :: G(RRHO) contrib.            0.543198199296 Eh   ::
         :::::::::::::::::::::::::::::::::::::::::::::::::::::

           -------------------------------------------------
          | TOTAL ENERGY             -124.413693094974 Eh   |
          | TOTAL ENTHALPY           -123.758773382382 Eh   |
          | TOTAL FREE ENERGY        -123.870494895678 Eh   |
          | GRADIENT NORM               0.000082287133 Eh/α |
           -------------------------------------------------

 * finished run on 2025/08/22 at 19:39:42.201
