   * xtb version 6.7.1 (edcfbbe) compiled by 'albert@albert-system' on 2024-07-22

   ID    Z sym.   atoms
    1    6 C      1-4, 6-16, 18-22, 24-37, 39-43, 45-58, 60-63
    2    7 N      5, 17, 23, 38, 44, 59
    3    1 H      64-105

          program call               : xtb data2507/toluene/TRZ3DPA/TRZ3DPA_toluene_T1_crest.xyz --gfn 2 --uhf 2 --gbsa toluene --ohess vtight --parallel 40 --molden --ceasefiles --namespace data2507/toluene/TRZ3DPA/TRZ3DPA_toluene_T1_finalOpt
      * Solvation model:               GBSA
        Solvent                        toluene
        Solvent mass                       9.2140E+01 g/mol
          :  Hamiltonian                  GFN2-xTB          :
 * total energy  :  -161.0417117 Eh     change        0.6212304E-08 Eh
 * total energy  :  -161.0418799 Eh     change       -0.1681714E-03 Eh
 * total energy  :  -161.0419396 Eh     change       -0.5977581E-04 Eh
 * total energy  :  -161.0419462 Eh     change       -0.6553155E-05 Eh
 * total energy  :  -161.0419536 Eh     change       -0.7433139E-05 Eh
 * total energy  :  -161.0419609 Eh     change       -0.7252686E-05 Eh
 * total energy  :  -161.0419673 Eh     change       -0.6365737E-05 Eh
 * total energy  :  -161.0419710 Eh     change       -0.3740479E-05 Eh
 * total energy  :  -161.0419735 Eh     change       -0.2512720E-05 Eh
 * total energy  :  -161.0419761 Eh     change       -0.2596933E-05 Eh
 * total energy  :  -161.0419945 Eh     change        0.2112727E-06 Eh
 * total energy  :  -161.0419949 Eh     change       -0.4400100E-06 Eh
 * total energy  :  -161.0419949 Eh     change        0.1595683E-07 Eh
 * total energy  :  -161.0419950 Eh     change       -0.8832242E-07 Eh
 * total energy  :  -161.0419953 Eh     change       -0.2487835E-06 Eh
 * total energy  :  -161.0419954 Eh     change       -0.1489704E-06 Eh
 * total energy  :  -161.0419957 Eh     change       -0.3084411E-06 Eh
 * total energy  :  -161.0419960 Eh     change       -0.2687008E-06 Eh
 * total energy  :  -161.0419961 Eh     change       -0.9291253E-07 Eh
   *** GEOMETRY OPTIMIZATION CONVERGED AFTER 50 ITERATIONS ***

 final structure:
================
105
 xtb: 6.7.1 (edcfbbe)
C            2.31661130272902       -9.23440543876082       -2.18239304295932
C            1.86818917976620       -8.01934896991131       -2.67737239212309
C            0.96393780307624       -7.26178882187852       -1.95932071174726
C            0.49522140204490       -7.71233486241320       -0.72305830484383
N           -0.41830898445618       -6.94842063943558        0.00782457217755
C           -1.42414222945956       -7.57410020384495        0.74973005181083
C           -1.82621120619695       -7.04687860004687        1.97904597292944
C           -2.82626939252797       -7.66301051402223        2.70529673754598
C           -3.43797196623954       -8.81100868327755        2.22523082639616
C           -3.04208864996086       -9.33907563272428        1.00592837008911
C           -2.04593524565654       -8.72891420825877        0.26934574619870
C           -0.33205279636507       -5.55352012197290       -0.00656020923651
C            0.91592340065121       -4.91566533449824       -0.00360290025482
C            0.99769164089105       -3.54524124673365       -0.01637380699553
C           -0.16167696349769       -2.75375943276384       -0.02848489768866
C           -0.07479199777790       -1.31301351152070       -0.03317496166231
N            1.13829497598361       -0.74679090221057       -0.02165428400777
C            1.18197325811605        0.59197337497269       -0.02023768507970
C            2.47283556976063        1.23702206997052       -0.01382115545161
C            2.57897424365885        2.63697795918515       -0.02434372939225
C            3.80653657094972        3.25165088049328       -0.01499468771569
C            4.98293885729598        2.49005014698679        0.00227343171297
N            6.23409417470911        3.11325151847629        0.01328454046428
C            6.44180682861203        4.27370896060795       -0.73700556563614
C            7.26332553345404        5.29406507683147       -0.25183717920358
C            7.46540772320426        6.43790824001085       -0.99865763481793
C            6.85200296556162        6.58857204797886       -2.23292621060920
C            6.03139475988477        5.58124203488482       -2.71702865914189
C            5.82614338008861        4.43088074013590       -1.98093117160544
C            7.27390106833940        2.57032790394115        0.77300620792845
C            8.58943832062032        2.60800580468067        0.30475236848784
C            9.61125136681468        2.06572777505079        1.05902748718883
C            9.34281578279435        1.47437498577784        2.28398552121939
C            8.03847411315126        1.43159585722257        2.75228992709587
C            7.00946848128110        1.97490352907771        2.00858065966713
C            4.88412673743320        1.09194179055798        0.00950595608816
C            3.65529610206127        0.48021218869699        0.00322301606427
N            0.08399691197125        1.36065389988798       -0.02192466375274
C           -1.09593403745235        0.72817593148288       -0.03409527066034
C           -2.30195343325451        1.52264422367046       -0.03102122198763
C           -2.24079009153313        2.92396276999989        0.01862196023850
C           -3.38696905378334        3.67976494633903        0.02713570121105
C           -4.64529353811907        3.06400236812483       -0.01180233480482
N           -5.81259183358857        3.83261109440809        0.00150771563852
C           -5.87669165714760        4.98708330632199        0.78680130774146
C           -5.24991467475583        5.02869182785830        2.03433477225139
C           -5.30970748298605        6.17390988002237        2.80386081067384
C           -5.99406559886410        7.29098551680644        2.34973347408941
C           -6.61926389969811        7.25466450291478        1.11275710214002
C           -6.56223076244563        6.11634796165707        0.33294512839589
C           -6.90996551500118        3.44721194433387       -0.77327482526689
C           -8.21132353194448        3.63145962992964       -0.30040066945315
C           -9.29136967334899        3.25093873262857       -1.07229352761061
C           -9.09644648103193        2.67746827299735       -2.31946401299742
C           -7.80667046791075        2.48663880510156       -2.79112322338628
C           -6.71931760012304        2.86813433238129       -2.02992598150873
C           -4.71326939285075        1.66519506286967       -0.06285706214743
C           -3.56517644355491        0.91225448093278       -0.07267301718799
N           -1.21307918428214       -0.60584658026162       -0.04538693206025
C           -1.40845503863253       -3.39893361049426       -0.03144463666461
C           -1.49341174018241       -4.76905634798267       -0.02257000920323
C            0.95504949217064       -8.93428740407732       -0.22628753240518
C            1.85553199153724       -9.68586828125347       -0.95521116072014
H            3.02152484339105       -9.82424300760192       -2.74832817523148
H            2.21879749595777       -7.66191019053574       -3.63444684088998
H            0.60507554763503       -6.32119603437079       -2.35079787166374
H           -1.34261818284597       -6.15832706813154        2.35779938217587
H           -3.12478521178738       -7.24793967853849        3.65667395660942
H           -4.21861088433907       -9.28967451415738        2.79672216807042
H           -3.51920712936542      -10.22828924039723        0.62099138907024
H           -1.74924848472324       -9.13240631834416       -0.68748935326913
H            1.81529791205322       -5.51394617732470        0.02249627667368
H            1.95613546861385       -3.04947880304688       -0.00539772643908
H            1.67054872054631        3.21940582765727       -0.02924607671001
H            3.87466149246349        4.32999452619904       -0.00754496848776
H            7.73029620893267        5.18455211544486        0.71587003033722
H            8.09934671356128        7.22149429386922       -0.61057688174953
H            7.01122820355159        7.48483101407931       -2.81301243059289
H            5.55356388416835        5.68825855389039       -3.67977083039088
H            5.19675261705200        3.64107942820445       -2.36424304734976
H            8.79823373286087        3.05406071440896       -0.65642537905053
H           10.62346064769742        2.09648662633451        0.68350630334899
H           10.14389585868387        1.04934065841426        2.86941379576379
H            7.82113462163790        0.97806829844588        3.70816664104238
H            5.99495213600442        1.95109612593054        2.37878052332108
H            5.78712069448984        0.49851689126909        0.00716091402214
H            3.57498383245990       -0.59586036510258        0.00083636649054
H           -1.26981952639756        3.39429738201046        0.04118700998976
H           -3.32718769118625        4.75832344461562        0.05231660617598
H           -4.72577133186965        4.15524888223885        2.39379854171326
H           -4.82465739288288        6.19123612453700        3.76877363842564
H           -6.03898778869647        8.18348694662382        2.95515587852633
H           -7.14792563533246        8.12306256925718        0.74823629546909
H           -7.03688566835380        6.09491228011674       -0.63694811609400
H           -8.36447778734937        4.06399116105346        0.67728150514119
H          -10.29253749922270        3.39495218260433       -0.69362604645735
H           -9.94315324885913        2.37990376461121       -2.91915882049167
H           -7.64563932210999        2.04474964249141       -3.76345965523959
H           -5.71500977059862        2.73064411322100       -2.40303711574162
H           -5.68008550789108        1.18297872589940       -0.08075388150078
H           -3.61260323232950       -0.16537624392988       -0.10193870725964
H           -2.29982610841286       -2.79112681579773       -0.05072616674922
H           -2.45864412532555       -5.25439559781765       -0.04037691183391
H            0.60784798284208       -9.28037385213931        0.73611923202782
H            2.20691699039005      -10.62688717775426       -0.55836922325471

          :  Hamiltonian                  GFN2-xTB          :
         :: gradient norm              0.000113866745 Eh/a0 ::
         :: HOMO-LUMO gap              0.002724415894 eV    ::
         :: SCC energy              -164.000876903886 Eh    ::
         :: -> dispersion             -0.143130165451 Eh    ::
         :: -> Gsolv                  -0.078091970218 Eh    ::
         :: repulsion energy           2.958880813048 Eh    ::

    * Orbital Energies and Occupations

         #    Occupation            Energy/Eh            Energy/eV
      -------------------------------------------------------------
         1        2.0000           -0.6731357             -18.3170
       ...           ...                  ...                  ...
       139        2.0000           -0.4103801             -11.1670
       140        2.0000           -0.4075106             -11.0889
       141        2.0000           -0.4073983             -11.0859
       142        2.0000           -0.4073054             -11.0833
       143        2.0000           -0.4049404             -11.0190
       144        2.0000           -0.4002455             -10.8912
       145        2.0000           -0.4000337             -10.8855
       146        1.9532           -0.3580520              -9.7431
       147        1.9496           -0.3579765              -9.7410
       148        1.7243           -0.3561054              -9.6901
       149        1.6934           -0.3559631              -9.6862
       150        1.6795           -0.3559016              -9.6846
       151        0.5132           -0.2721348              -7.4052 (HOMO)
       152        0.4868           -0.2720347              -7.4024 (LUMO)
       153                         -0.2430972              -6.6150
       154                         -0.2368952              -6.4462
       155                         -0.2368898              -6.4461
       156                         -0.2368548              -6.4451
       157                         -0.2316357              -6.3031
       158                         -0.2316205              -6.3027
       159                         -0.2316152              -6.3026
       160                         -0.2271240              -6.1804
       161                         -0.2271109              -6.1800
       162                         -0.2270760              -6.1791
       ...                                ...                  ...
       294                          0.6930391              18.8586
      -------------------------------------------------------------
                  HL-Gap            0.0001001 Eh            0.0027 eV

     #   Z          covCN         q      C6AA      α(0)
     1   6 C        2.919    -0.034    28.857     8.809
     2   6 C        2.919    -0.028    28.693     8.784
     3   6 C        2.921    -0.044    29.089     8.845
     4   6 C        2.924     0.064    26.561     8.452
     5   7 N        2.752    -0.050    22.213     7.000
     6   6 C        2.925     0.064    26.561     8.452
     7   6 C        2.921    -0.044    29.084     8.844
     8   6 C        2.919    -0.028    28.693     8.784
     9   6 C        2.919    -0.034    28.855     8.809
    10   6 C        2.919    -0.028    28.696     8.784
    11   6 C        2.921    -0.044    29.104     8.847
    12   6 C        2.925     0.055    26.756     8.483
    13   6 C        2.917    -0.046    29.152     8.854
    14   6 C        2.921    -0.035    28.874     8.812
    15   6 C        2.980    -0.019    28.470     8.752
    16   6 C        2.943     0.201    23.747     7.992
    17   7 N        1.844    -0.340    29.678     8.074
    18   6 C        2.943     0.200    23.755     7.994
    19   6 C        2.980    -0.019    28.470     8.752
    20   6 C        2.921    -0.035    28.877     8.812
    21   6 C        2.917    -0.046    29.152     8.854
    22   6 C        2.925     0.055    26.761     8.483
    23   7 N        2.752    -0.050    22.209     6.999
    24   6 C        2.924     0.064    26.560     8.452
    25   6 C        2.921    -0.044    29.105     8.847
    26   6 C        2.919    -0.028    28.696     8.784
    27   6 C        2.919    -0.034    28.857     8.809
    28   6 C        2.919    -0.028    28.693     8.784
    29   6 C        2.921    -0.044    29.087     8.844
    30   6 C        2.925     0.064    26.560     8.452
    31   6 C        2.921    -0.044    29.105     8.847
    32   6 C        2.919    -0.028    28.696     8.784
    33   6 C        2.919    -0.034    28.856     8.809
    34   6 C        2.919    -0.028    28.693     8.784
    35   6 C        2.921    -0.044    29.085     8.844
    36   6 C        2.917    -0.046    29.152     8.854
    37   6 C        2.921    -0.035    28.877     8.812
    38   7 N        1.843    -0.341    29.711     8.078
    39   6 C        2.943     0.201    23.733     7.990
    40   6 C        2.981    -0.019    28.467     8.752
    41   6 C        2.921    -0.035    28.869     8.811
    42   6 C        2.917    -0.046    29.153     8.854
    43   6 C        2.925     0.056    26.748     8.481
    44   7 N        2.752    -0.051    22.220     7.001
    45   6 C        2.924     0.064    26.560     8.452
    46   6 C        2.921    -0.044    29.087     8.844
    47   6 C        2.919    -0.028    28.694     8.784
    48   6 C        2.919    -0.034    28.857     8.809
    49   6 C        2.919    -0.028    28.696     8.784
    50   6 C        2.921    -0.044    29.105     8.847
    51   6 C        2.924     0.064    26.560     8.452
    52   6 C        2.921    -0.045    29.105     8.847
    53   6 C        2.919    -0.028    28.696     8.784
    54   6 C        2.919    -0.034    28.857     8.809
    55   6 C        2.919    -0.028    28.693     8.784
    56   6 C        2.921    -0.044    29.088     8.844
    57   6 C        2.917    -0.046    29.153     8.854
    58   6 C        2.921    -0.035    28.869     8.811
    59   7 N        1.844    -0.341    29.716     8.079
    60   6 C        2.921    -0.035    28.874     8.812
    61   6 C        2.917    -0.046    29.153     8.854
    62   6 C        2.921    -0.045    29.106     8.847
    63   6 C        2.919    -0.028    28.696     8.784
    64   1 H        0.926     0.039     2.456     2.451
    65   1 H        0.926     0.039     2.461     2.453
    66   1 H        0.926     0.035     2.513     2.479
    67   1 H        0.926     0.035     2.513     2.479
    68   1 H        0.926     0.039     2.460     2.453
    69   1 H        0.926     0.040     2.454     2.450
    70   1 H        0.926     0.041     2.430     2.438
    71   1 H        0.926     0.039     2.455     2.450
    72   1 H        0.926     0.037     2.484     2.464
    73   1 H        0.926     0.040     2.446     2.446
    74   1 H        0.926     0.040     2.447     2.446
    75   1 H        0.926     0.037     2.486     2.465
    76   1 H        0.926     0.039     2.455     2.450
    77   1 H        0.926     0.041     2.431     2.438
    78   1 H        0.926     0.039     2.455     2.450
    79   1 H        0.926     0.039     2.461     2.453
    80   1 H        0.926     0.035     2.513     2.479
    81   1 H        0.926     0.040     2.455     2.450
    82   1 H        0.926     0.041     2.431     2.438
    83   1 H        0.926     0.040     2.455     2.450
    84   1 H        0.926     0.039     2.460     2.453
    85   1 H        0.926     0.035     2.513     2.479
    86   1 H        0.926     0.037     2.486     2.466
    87   1 H        0.926     0.040     2.447     2.446
    88   1 H        0.926     0.040     2.443     2.444
    89   1 H        0.926     0.037     2.483     2.464
    90   1 H        0.926     0.035     2.515     2.480
    91   1 H        0.926     0.039     2.461     2.453
    92   1 H        0.926     0.039     2.455     2.450
    93   1 H        0.926     0.041     2.431     2.438
    94   1 H        0.926     0.039     2.456     2.451
    95   1 H        0.926     0.039     2.457     2.451
    96   1 H        0.926     0.041     2.432     2.439
    97   1 H        0.926     0.039     2.456     2.451
    98   1 H        0.926     0.039     2.461     2.453
    99   1 H        0.926     0.035     2.514     2.479
   100   1 H        0.926     0.037     2.482     2.464
   101   1 H        0.926     0.040     2.442     2.444
   102   1 H        0.926     0.040     2.445     2.445
   103   1 H        0.926     0.037     2.486     2.466
   104   1 H        0.926     0.039     2.457     2.451
   105   1 H        0.926     0.041     2.432     2.439

molecular dipole:
                 x           y           z       tot (Debye)
 q only:       -0.003      -0.009       0.041
   full:       -0.003      -0.009       0.038       0.100

 projected vibrational frequencies (cm⁻¹)
eigval :       -0.00    -0.00     0.00     0.00     0.00     0.00
eigval :      -13.26     2.11     7.67     9.01    11.77    13.74
eigval :       23.00    25.35    30.26    32.09    38.16    40.48
eigval :       42.20    47.02    56.67    61.04    62.69    64.76
eigval :       65.87    74.56    75.28    91.10    92.30    97.45
eigval :      102.81   103.05   127.64   136.31   160.13   161.90
eigval :      165.38   174.19   175.23   212.06   212.89   220.30
eigval :      227.72   228.47   231.02   273.59   274.38   281.83
eigval :      289.30   308.79   309.42   310.81   311.72   338.14
eigval :      341.45   343.83   370.08   372.24   374.17   375.46
eigval :      376.17   376.95   380.73   382.75   384.37   384.53
eigval :      386.70   387.94   399.38   399.43   408.71   451.73
eigval :      451.89   472.22   473.56   474.69   483.55   501.13
eigval :      501.66   503.45   529.38   540.08   554.06   566.98
eigval :      567.43   576.31   576.44   579.88   584.51   587.30
eigval :      587.86   590.88   591.30   591.52   596.25   596.50
eigval :      611.13   613.57   614.73   624.52   654.81   657.06
eigval :      657.24   661.29   662.35   662.81   663.87   677.95
eigval :      678.60   690.33   690.72   701.01   720.52   753.32
eigval :      754.76   755.79   756.88   758.25   758.85   808.59
eigval :      808.76   810.09   813.44   814.61   851.99   853.27
eigval :      856.45   867.87   868.46   870.27   870.51   871.69
eigval :      872.71   890.51   892.16   892.20   892.66   893.80
eigval :      894.43   906.26   906.77   907.61   908.34   909.09
eigval :      909.39   911.15   915.65   917.60   918.83   922.49
eigval :      922.84   924.15   924.16   925.21   926.09   926.32
eigval :      926.60   927.08   927.17   927.60   928.30   928.70
eigval :      928.75   954.44   982.32   982.73   984.47  1000.96
eigval :     1000.99  1001.49  1003.09  1008.16  1008.50  1064.75
eigval :     1079.16  1079.27  1080.10  1080.32  1080.39  1081.35
eigval :     1118.14  1118.70  1120.06  1120.95  1121.09  1121.45
eigval :     1122.84  1125.39  1126.72  1154.82  1155.30  1173.06
eigval :     1175.24  1175.62  1176.32  1177.57  1177.73  1177.91
eigval :     1178.61  1179.60  1183.63  1188.62  1188.73  1190.90
eigval :     1191.91  1192.78  1208.11  1209.98  1211.79  1254.19
eigval :     1256.26  1256.75  1269.39  1273.44  1273.98  1275.20
eigval :     1275.47  1275.99  1277.07  1299.12  1299.29  1301.29
eigval :     1302.65  1303.56  1303.70  1316.65  1316.83  1317.07
eigval :     1324.66  1324.77  1324.88  1329.42  1329.92  1335.96
eigval :     1348.52  1349.58  1377.74  1418.84  1420.90  1421.11
eigval :     1431.63  1432.05  1432.12  1438.28  1438.41  1438.76
eigval :     1457.94  1458.45  1459.52  1459.93  1460.23  1460.88
eigval :     1461.54  1462.29  1478.92  1504.79  1506.55  1507.79
eigval :     1555.68  1555.98  1565.35  1565.39  1565.55  1569.58
eigval :     1569.74  1569.91  1578.66  1579.47  1579.71  1579.80
eigval :     1585.09  1586.84  1590.04  3074.62  3075.33  3075.63
eigval :     3075.88  3076.06  3076.54  3076.55  3076.71  3077.12
eigval :     3077.13  3077.26  3077.39  3077.65  3077.70  3077.98
eigval :     3078.13  3078.30  3079.66  3085.82  3085.84  3086.17
eigval :     3086.38  3086.72  3087.39  3088.52  3088.56  3088.94
eigval :     3089.58  3090.09  3090.27  3096.05  3096.31  3096.57
eigval :     3096.92  3096.97  3097.23  3097.35  3097.66  3097.74
eigval :     3098.01  3099.06  3100.01

   temp. (K)  partition function   enthalpy   heat capacity  entropy
                                   cal/mol     cal/K/mol   cal/K/mol   J/K/mol
 298.15  VIB  0.147E+29            31738.339    192.634    204.224
         ROT  0.344E+09              888.752      2.981     42.044
         INT  0.507E+37            32627.091    195.615    246.268
         TR   0.223E+29             1481.254      4.968     45.936
         TOT                       34108.3454   200.5834   292.2045  1222.5837

       T/K    H(0)-H(T)+PV         H(T)/Eh          T*S/Eh         G(T)/Eh
   ------------------------------------------------------------------------
    298.15    0.543551E-01    0.858385E+00    0.138836E+00    0.719549E+00
   ------------------------------------------------------------------------

         :::::::::::::::::::::::::::::::::::::::::::::::::::::
         ::                  THERMODYNAMIC                  ::
         :::::::::::::::::::::::::::::::::::::::::::::::::::::
         :: total free energy        -160.322446959474 Eh   ::
         ::.................................................::
         :: total energy             -161.041996091119 Eh   ::
         :: zero point energy           0.804029823378 Eh   ::
         :: G(RRHO) w/o ZPVE           -0.084480691733 Eh   ::
         :: G(RRHO) contrib.            0.719549131645 Eh   ::
         :::::::::::::::::::::::::::::::::::::::::::::::::::::

           -------------------------------------------------
          | TOTAL ENERGY             -161.041996091119 Eh   |
          | TOTAL ENTHALPY           -160.183611159564 Eh   |
          | TOTAL FREE ENERGY        -160.322446959474 Eh   |
          | GRADIENT NORM               0.000110896839 Eh/α |
          | HOMO-LUMO GAP               0.002724547405 eV   |
           -------------------------------------------------

 * finished run on 2025/09/12 at 01:01:02.134
