   * xtb version 6.7.1 (edcfbbe) compiled by 'albert@albert-system' on 2024-07-22

   ID    Z sym.   atoms
    1    6 C      1-4, 6-16, 18-22, 24-37, 39-43, 45-58, 60-63
    2    7 N      5, 17, 23, 38, 44, 59
    3    1 H      64-105

          program call               : xtb data2507/toluene/TRZ3DPA/TRZ3DPA_toluene_S0_crest.xyz --gfn 2 --gbsa toluene --ohess vtight --parallel 40 --molden --ceasefiles --namespace data2507/toluene/TRZ3DPA/TRZ3DPA_toluene_S0_finalOpt
      * Solvation model:               GBSA
        Solvent                        toluene
        Solvent mass                       9.2140E+01 g/mol
          :  Hamiltonian                  GFN2-xTB          :
 * total energy  :  -161.1196124 Eh     change       -0.1308450E-08 Eh
 * total energy  :  -161.1197141 Eh     change       -0.1017327E-03 Eh
 * total energy  :  -161.1197576 Eh     change       -0.4349675E-04 Eh
 * total energy  :  -161.1197729 Eh     change       -0.1526060E-04 Eh
 * total energy  :  -161.1197891 Eh     change       -0.1624698E-04 Eh
 * total energy  :  -161.1198092 Eh     change       -0.2010464E-04 Eh
 * total energy  :  -161.1198376 Eh     change       -0.2841246E-04 Eh
 * total energy  :  -161.1198720 Eh     change       -0.3431072E-04 Eh
 * total energy  :  -161.1198917 Eh     change       -0.1972301E-04 Eh
 * total energy  :  -161.1198960 Eh     change       -0.4336944E-05 Eh
 * total energy  :  -161.1199463 Eh     change       -0.7072425E-06 Eh
 * total energy  :  -161.1199471 Eh     change       -0.7598823E-06 Eh
 * total energy  :  -161.1199480 Eh     change       -0.9287379E-06 Eh
 * total energy  :  -161.1199490 Eh     change       -0.9746250E-06 Eh
 * total energy  :  -161.1199499 Eh     change       -0.9165247E-06 Eh
 * total energy  :  -161.1199506 Eh     change       -0.7344401E-06 Eh
 * total energy  :  -161.1199512 Eh     change       -0.6247114E-06 Eh
 * total energy  :  -161.1199519 Eh     change       -0.6063158E-06 Eh
 * total energy  :  -161.1199519 Eh     change       -0.8688971E-08 Eh
   *** GEOMETRY OPTIMIZATION CONVERGED AFTER 44 ITERATIONS ***

 final structure:
================
105
 xtb: 6.7.1 (edcfbbe)
C            3.55349399445221        8.98844385989720        1.70599523664200
C            3.01285697832578        7.88332969262816        2.34364709383276
C            1.94605080989967        7.20539397399066        1.78468728688295
C            1.41107835121990        7.62302300600117        0.56690151789541
N            0.32132989417041        6.94333275095449       -0.00331043523960
C           -0.69487566229839        7.69017334655648       -0.62284699269207
C           -1.27129893956481        7.25014224533099       -1.81366896582729
C           -2.26658335491661        7.99318503537974       -2.41971473862290
C           -2.69295787507597        9.18560981328962       -1.85719146832580
C           -2.11628280713497        9.63099244205434       -0.67870506476930
C           -1.12675331160234        8.89022717030110       -0.06033004805950
C            0.25733515899305        5.55801682316548        0.03046120443462
C            1.42569945555816        4.78637855672161       -0.00580785827214
C            1.35773422507082        3.41292336536671        0.01615825074779
C            0.12514196628271        2.75921783856741        0.07424486763436
C            0.05663608128591        1.30389210546536        0.07481913252484
N            1.20337178344533        0.62553688086803        0.06617827981224
C            1.09371053592124       -0.70215989730089        0.03870414509685
C            2.32056798162367       -1.48749682440507        0.02960572181261
C            2.27576073624361       -2.87834632083592       -0.08702069296960
C            3.43310371227291       -3.62100957705794       -0.09863329971566
C            4.68251064001052       -2.99710527932658        0.01251174594599
N            5.84935129257670       -3.74589997801428        0.00423900028188
C            5.86156843445733       -5.05530109604679        0.51669824363853
C            6.56880920902470       -6.05899504775604       -0.14270961801325
C            6.59230905477177       -7.34288077799704        0.36865668887174
C            5.90999464506390       -7.64497879410244        1.53614293396016
C            5.20601572055449       -6.64972149082121        2.19500720788079
C            5.18274430507949       -5.36134933858611        1.69510659010747
C            7.04278004812612       -3.21479054784830       -0.51332870279746
C            8.25781096238287       -3.47751170490719        0.11751353216602
C            9.43371858296636       -2.96680588802629       -0.39881960855508
C            9.41594482793081       -2.18351148259942       -1.54155027582937
C            8.21052763071165       -1.92117305574245       -2.17262961497156
C            7.03063315665763       -2.43581849356079       -1.66952576625313
C            4.72570961853555       -1.60217011156353        0.13362745564257
C            3.56541027665234       -0.86397139883258        0.13836009483928
N           -0.06726076628247       -1.35596294000496        0.01608291177901
C           -1.16225092047401       -0.59716052262413        0.04333350808710
C           -2.45681851875314       -1.26600525537225        0.03395198658174
C           -2.53852943867257       -2.65815329239737       -0.03863792809648
C           -3.75912349421530       -3.29200968571019       -0.04909372298587
C           -4.94646557529873       -2.55210065456583        0.01714587491736
N           -6.17921820301165       -3.18873023617936        0.01139448313657
C           -6.36025867600917       -4.38778390974650       -0.69837748738119
C           -5.78281027591153       -4.55886607198752       -1.95577311608902
C           -5.97262515940938       -5.73705800359905       -2.65278290376798
C           -6.74507932175035       -6.75376632618671       -2.11444091132952
C           -7.32622805825351       -6.58498935281836       -0.86800080348984
C           -7.13484276130007       -5.41375478366714       -0.15955256542227
C           -7.26735280061597       -2.64416033403068        0.71377475206566
C           -8.54885460536650       -2.68491131958394        0.16677939719299
C           -9.62000918231677       -2.16210821377419        0.86650689783546
C           -9.43030003761320       -1.58689976826516        2.11264530895647
C           -8.15787002018429       -1.54352963014705        2.65967240776078
C           -7.08206951663974       -2.07174541606062        1.97152676805442
C           -4.86335222901356       -1.15591394100451        0.08994077999172
C           -3.64015563146966       -0.52720062694931        0.09609540959894
N           -1.14829447420404        0.73493302613340        0.07591176829992
C           -1.04007538587163        3.52751650943995        0.11832981195714
C           -0.97799706694291        4.90130503978247        0.09775468051371
C            1.95905559784771        8.73394746686852       -0.07218476067925
C            3.02029898284994        9.41072646943792        0.49886148303112
H            4.38411161024135        9.51771698577702        2.14804861676203
H            3.41774247236935        7.55069529402783        3.28824344047802
H            1.51823143176354        6.35051504458607        2.28796429686021
H           -0.93129558647881        6.32631809491505       -2.25904057838566
H           -2.70504748615033        7.64181268477652       -3.34235909083167
H           -3.46857189945424        9.76450791621139       -2.33549081081646
H           -2.44427066351471       10.55823212142399       -0.23231899715656
H           -0.68235038041947        9.23518150953029        0.86184055161568
H            2.38503044446023        5.27876846316232       -0.06556941300791
H            2.25691460859927        2.81822132748602       -0.02624097210433
H            1.31438787040676       -3.35892844128705       -0.18105200673127
H            3.38436063563868       -4.69466616602600       -0.20431566657895
H            7.09586650058871       -5.82495583835383       -1.05607729061101
H            7.14100940393669       -8.11347369398954       -0.15262669282493
H            5.92765310983132       -8.64953924596280        1.93113429136581
H            4.67726535436232       -6.87480470960604        3.10968059193821
H            4.64171366310902       -4.58351832116685        2.21416201620024
H            8.27181150302893       -4.08171732039422        1.01283598700562
H           10.36867000519375       -3.17509520293301        0.10034894028975
H           10.33562482401397       -1.78188725230685       -1.93942232478349
H            8.18810761060748       -1.31868409386478       -3.06898383840449
H            6.09304809587994       -2.24108653251250       -2.16963821043288
H            5.68041833320332       -1.10748463083668        0.23390366870547
H            3.59846921684865        0.20962431235499        0.24017992429571
H           -1.62354814398596       -3.22851518412263       -0.07708109678012
H           -3.80799099896056       -4.36984189433665       -0.09670685683553
H           -5.19041667803299       -3.76182257654194       -2.38115610288323
H           -5.52161284666232       -5.85685573142218       -3.62703805382067
H           -6.89410351080804       -7.67109765112010       -2.66381357408692
H           -7.92715421636518       -7.37373540993822       -0.43973689730028
H           -7.58305776350043       -5.28564186054929        0.81490337140905
H           -8.69700175724024       -3.12661623098142       -0.80774555582388
H          -10.60801055807532       -2.19785457454056        0.43141823156627
H          -10.26836384039521       -1.17593606860813        2.65507576388537
H           -8.00143144940643       -1.10360801894711        3.63378347316455
H           -6.09226707000675       -2.04737868782642        2.40385393119321
H           -5.77116989123224       -0.57226825029235        0.12994780221117
H           -3.57654944218197        0.54884214499939        0.14083101934215
H           -1.99124236764896        3.02160760104026        0.17611603034839
H           -1.88629441398516        5.48383652326894        0.14164646057731
H            1.54857646639038        9.05992292941263       -1.01665318815647
H            3.43757357825318       10.26923459550280       -0.00662214179592

          :  Hamiltonian                  GFN2-xTB          :
         :: gradient norm              0.000068997340 Eh/a0 ::
         :: HOMO-LUMO gap              2.013007016533 eV    ::
         :: SCC energy              -164.092246890441 Eh    ::
         :: -> dispersion             -0.143100584972 Eh    ::
         :: -> Gsolv                  -0.074720308004 Eh    ::
         :: repulsion energy           2.972295025950 Eh    ::

    * Orbital Energies and Occupations

         #    Occupation            Energy/Eh            Energy/eV
      -------------------------------------------------------------
         1        2.0000           -0.6764872             -18.4082
       ...           ...                  ...                  ...
       138        2.0000           -0.4094130             -11.1407
       139        2.0000           -0.4093380             -11.1387
       140        2.0000           -0.4086906             -11.1210
       141        2.0000           -0.4086050             -11.1187
       142        2.0000           -0.4085720             -11.1178
       143        2.0000           -0.4072822             -11.0827
       144        2.0000           -0.4066904             -11.0666
       145        2.0000           -0.4066531             -11.0656
       146        2.0000           -0.3687952             -10.0354
       147        2.0000           -0.3687820             -10.0351
       148        2.0000           -0.3567287              -9.7071
       149        2.0000           -0.3566420              -9.7047
       150        2.0000           -0.3553373              -9.6692 (HOMO)
       151                         -0.2813607              -7.6562 (LUMO)
       152                         -0.2812096              -7.6521
       153                         -0.2459250              -6.6920
       154                         -0.2341899              -6.3726
       155                         -0.2340226              -6.3681
       156                         -0.2339757              -6.3668
       157                         -0.2314897              -6.2992
       158                         -0.2314803              -6.2989
       159                         -0.2314243              -6.2974
       160                         -0.2263541              -6.1594
       161                         -0.2263402              -6.1590
       ...                                ...                  ...
       294                          0.6937510              18.8779
      -------------------------------------------------------------
                  HL-Gap            0.0739766 Eh            2.0130 eV

     #   Z          covCN         q      C6AA      α(0)
     1   6 C        2.919    -0.036    28.905     8.816
     2   6 C        2.919    -0.029    28.724     8.789
     3   6 C        2.922    -0.046    29.140     8.852
     4   6 C        2.925     0.063    26.581     8.455
     5   7 N        2.752    -0.068    22.556     7.054
     6   6 C        2.925     0.063    26.581     8.455
     7   6 C        2.922    -0.046    29.143     8.853
     8   6 C        2.919    -0.029    28.724     8.789
     9   6 C        2.919    -0.036    28.908     8.817
    10   6 C        2.919    -0.029    28.720     8.788
    11   6 C        2.922    -0.046    29.131     8.851
    12   6 C        2.922     0.072    26.397     8.425
    13   6 C        2.920    -0.050    29.242     8.868
    14   6 C        2.922    -0.028    28.700     8.785
    15   6 C        2.983    -0.022    28.547     8.764
    16   6 C        2.977     0.220    23.376     7.931
    17   7 N        1.844    -0.341    29.717     8.079
    18   6 C        2.977     0.220    23.375     7.931
    19   6 C        2.983    -0.022    28.553     8.765
    20   6 C        2.922    -0.028    28.699     8.785
    21   6 C        2.920    -0.050    29.251     8.869
    22   6 C        2.922     0.072    26.397     8.425
    23   7 N        2.752    -0.068    22.552     7.053
    24   6 C        2.925     0.063    26.581     8.455
    25   6 C        2.922    -0.045    29.120     8.849
    26   6 C        2.919    -0.029    28.717     8.788
    27   6 C        2.919    -0.036    28.898     8.815
    28   6 C        2.919    -0.029    28.722     8.789
    29   6 C        2.922    -0.046    29.131     8.851
    30   6 C        2.925     0.063    26.582     8.455
    31   6 C        2.922    -0.046    29.133     8.851
    32   6 C        2.919    -0.029    28.719     8.788
    33   6 C        2.919    -0.036    28.907     8.817
    34   6 C        2.919    -0.029    28.725     8.789
    35   6 C        2.922    -0.046    29.143     8.853
    36   6 C        2.920    -0.050    29.250     8.869
    37   6 C        2.922    -0.028    28.701     8.785
    38   7 N        1.844    -0.341    29.718     8.079
    39   6 C        2.977     0.220    23.376     7.931
    40   6 C        2.983    -0.022    28.545     8.764
    41   6 C        2.922    -0.028    28.700     8.785
    42   6 C        2.920    -0.050    29.238     8.867
    43   6 C        2.922     0.072    26.397     8.425
    44   7 N        2.752    -0.068    22.560     7.054
    45   6 C        2.925     0.063    26.580     8.455
    46   6 C        2.922    -0.046    29.142     8.853
    47   6 C        2.919    -0.029    28.724     8.789
    48   6 C        2.919    -0.036    28.907     8.817
    49   6 C        2.919    -0.029    28.720     8.788
    50   6 C        2.922    -0.046    29.130     8.851
    51   6 C        2.925     0.063    26.580     8.455
    52   6 C        2.922    -0.046    29.133     8.851
    53   6 C        2.919    -0.029    28.720     8.788
    54   6 C        2.919    -0.037    28.908     8.817
    55   6 C        2.919    -0.029    28.725     8.789
    56   6 C        2.922    -0.046    29.144     8.853
    57   6 C        2.920    -0.050    29.238     8.867
    58   6 C        2.922    -0.028    28.700     8.785
    59   7 N        1.844    -0.341    29.717     8.079
    60   6 C        2.922    -0.028    28.700     8.785
    61   6 C        2.920    -0.050    29.240     8.867
    62   6 C        2.922    -0.045    29.130     8.851
    63   6 C        2.919    -0.029    28.719     8.788
    64   1 H        0.926     0.037     2.491     2.468
    65   1 H        0.926     0.037     2.488     2.467
    66   1 H        0.926     0.033     2.545     2.495
    67   1 H        0.926     0.032     2.552     2.498
    68   1 H        0.926     0.037     2.491     2.468
    69   1 H        0.926     0.037     2.493     2.469
    70   1 H        0.926     0.038     2.471     2.458
    71   1 H        0.926     0.036     2.504     2.474
    72   1 H        0.926     0.042     2.423     2.434
    73   1 H        0.926     0.048     2.349     2.397
    74   1 H        0.926     0.047     2.355     2.400
    75   1 H        0.926     0.042     2.426     2.436
    76   1 H        0.926     0.036     2.502     2.473
    77   1 H        0.926     0.039     2.466     2.456
    78   1 H        0.926     0.037     2.487     2.466
    79   1 H        0.926     0.037     2.484     2.465
    80   1 H        0.926     0.033     2.543     2.494
    81   1 H        0.926     0.036     2.508     2.476
    82   1 H        0.926     0.038     2.472     2.459
    83   1 H        0.926     0.037     2.493     2.469
    84   1 H        0.926     0.037     2.489     2.467
    85   1 H        0.926     0.033     2.544     2.494
    86   1 H        0.926     0.042     2.422     2.434
    87   1 H        0.926     0.047     2.354     2.399
    88   1 H        0.926     0.048     2.349     2.397
    89   1 H        0.926     0.042     2.423     2.434
    90   1 H        0.926     0.033     2.551     2.497
    91   1 H        0.926     0.037     2.490     2.468
    92   1 H        0.926     0.037     2.492     2.469
    93   1 H        0.926     0.038     2.471     2.458
    94   1 H        0.926     0.036     2.504     2.475
    95   1 H        0.926     0.036     2.505     2.475
    96   1 H        0.926     0.038     2.472     2.458
    97   1 H        0.926     0.037     2.493     2.469
    98   1 H        0.926     0.037     2.492     2.468
    99   1 H        0.926     0.032     2.551     2.498
   100   1 H        0.926     0.042     2.423     2.434
   101   1 H        0.926     0.048     2.350     2.397
   102   1 H        0.926     0.047     2.352     2.398
   103   1 H        0.926     0.042     2.422     2.434
   104   1 H        0.926     0.036     2.506     2.475
   105   1 H        0.926     0.038     2.471     2.458

molecular dipole:
                 x           y           z       tot (Debye)
 q only:        0.041      -0.027      -0.031
   full:        0.041      -0.027      -0.030       0.146

 projected vibrational frequencies (cm⁻¹)
eigval :       -0.00    -0.00    -0.00    -0.00     0.00     0.00
eigval :       -7.86     8.53     9.48    13.43    13.98    15.02
eigval :       24.97    28.28    31.37    36.87    40.93    43.16
eigval :       47.51    49.10    56.76    61.20    62.59    64.94
eigval :       65.94    72.82    74.11    90.01    91.44   100.57
eigval :      102.40   104.70   131.40   136.06   156.40   156.70
eigval :      167.94   180.10   181.06   215.00   215.52   222.62
eigval :      233.65   234.99   236.77   278.33   279.78   295.71
eigval :      297.08   307.04   313.07   313.49   322.46   337.88
eigval :      365.46   366.77   374.15   374.83   376.06   376.50
eigval :      377.16   378.83   379.86   385.19   385.85   388.33
eigval :      400.68   401.33   409.12   433.36   434.07   469.89
eigval :      471.15   486.40   491.36   492.21   493.81   497.97
eigval :      499.16   504.57   555.72   581.38   581.63   583.11
eigval :      584.55   584.63   585.66   592.25   592.46   593.07
eigval :      604.65   604.76   613.00   613.38   614.36   625.39
eigval :      631.21   632.45   659.56   660.18   661.09   665.00
eigval :      665.85   667.95   678.30   701.93   702.11   703.18
eigval :      704.98   724.88   754.31   756.14   758.41   758.70
eigval :      759.58   761.43   774.92   824.22   824.56   825.50
eigval :      842.92   843.05   866.02   868.33   869.14   872.32
eigval :      873.57   873.80   874.97   875.34   876.77   890.79
eigval :      893.08   893.83   895.16   896.40   896.74   909.00
eigval :      909.05   909.16   915.36   918.93   919.82   922.21
eigval :      923.52   925.27   926.07   927.03   927.18   927.25
eigval :      927.94   928.11   928.81   929.13   929.49   930.04
eigval :      930.50   930.57   931.34   932.01   932.14   980.98
eigval :      985.96   986.02  1004.33  1004.38  1004.41  1007.02
eigval :     1017.40  1017.77  1044.38  1080.83  1081.06  1081.24
eigval :     1081.97  1082.36  1082.37  1086.60  1119.52  1120.04
eigval :     1120.30  1121.40  1121.88  1122.46  1126.73  1131.31
eigval :     1132.13  1162.71  1164.25  1177.09  1177.13  1177.86
eigval :     1178.05  1178.38  1179.83  1183.23  1183.49  1184.17
eigval :     1189.82  1192.76  1193.19  1194.16  1198.94  1199.28
eigval :     1210.75  1210.98  1217.38  1217.75  1258.95  1261.51
eigval :     1261.96  1275.35  1275.89  1276.00  1279.03  1279.68
eigval :     1280.12  1301.05  1301.50  1301.83  1314.85  1314.95
eigval :     1315.18  1319.12  1319.50  1321.06  1322.85  1323.21
eigval :     1323.32  1333.76  1334.11  1337.47  1359.11  1359.34
eigval :     1389.31  1414.89  1415.28  1418.25  1433.63  1433.73
eigval :     1434.35  1438.87  1438.95  1439.47  1465.45  1465.66
eigval :     1468.09  1470.19  1470.42  1470.49  1486.71  1487.20
eigval :     1492.34  1492.56  1496.02  1550.53  1555.08  1555.28
eigval :     1576.70  1576.78  1577.00  1580.32  1580.36  1580.57
eigval :     1588.35  1588.42  1588.57  1590.22  1590.30  1590.41
eigval :     1597.74  1597.93  1598.02  3073.51  3073.67  3074.04
eigval :     3074.24  3074.75  3075.03  3075.12  3075.43  3075.48
eigval :     3076.37  3076.41  3076.41  3082.77  3082.87  3083.34
eigval :     3083.49  3084.28  3084.75  3084.92  3085.09  3085.71
eigval :     3086.10  3086.36  3086.54  3086.60  3086.98  3087.24
eigval :     3088.17  3088.30  3088.48  3095.37  3095.58  3095.91
eigval :     3095.98  3096.15  3096.73  3102.36  3102.92  3103.06
eigval :     3103.96  3104.56  3105.84

   temp. (K)  partition function   enthalpy   heat capacity  entropy
                                   cal/mol     cal/K/mol   cal/K/mol   J/K/mol
 298.15  VIB  0.773E+27            31055.178    188.627    198.950
         ROT  0.345E+09              888.752      2.981     42.048
         INT  0.267E+36            31943.930    191.608    240.998
         TR   0.223E+29             1481.254      4.968     45.936
         TOT                       33425.1838   196.5764   286.9344  1200.5337

       T/K    H(0)-H(T)+PV         H(T)/Eh          T*S/Eh         G(T)/Eh
   ------------------------------------------------------------------------
    298.15    0.532664E-01    0.865879E+00    0.136332E+00    0.729548E+00
   ------------------------------------------------------------------------

         :::::::::::::::::::::::::::::::::::::::::::::::::::::
         ::                  THERMODYNAMIC                  ::
         :::::::::::::::::::::::::::::::::::::::::::::::::::::
         :: total free energy        -160.390404300426 Eh   ::
         ::.................................................::
         :: total energy             -161.119951867324 Eh   ::
         :: zero point energy           0.812612953675 Eh   ::
         :: G(RRHO) w/o ZPVE           -0.083065386777 Eh   ::
         :: G(RRHO) contrib.            0.729547566898 Eh   ::
         :::::::::::::::::::::::::::::::::::::::::::::::::::::

           -------------------------------------------------
          | TOTAL ENERGY             -161.119951867324 Eh   |
          | TOTAL ENTHALPY           -160.254072492709 Eh   |
          | TOTAL FREE ENERGY        -160.390404300426 Eh   |
          | GRADIENT NORM               0.000068980039 Eh/α |
          | HOMO-LUMO GAP               2.013006093012 eV   |
           -------------------------------------------------

 * finished run on 2025/09/12 at 00:33:13.295
