   * xtb version 6.7.1 (edcfbbe) compiled by 'albert@albert-system' on 2024-07-22

   ID    Z sym.   atoms
    1    6 C      1-4, 6-16, 18-22, 24-37, 39-43, 45-58, 60-63
    2    7 N      5, 17, 23, 38, 44, 59
    3    1 H      64-105

          program call               : xtb data2507/toluene/TRZ3DPA/TRZ3DPA.xyz --gfn 2 --gbsa toluene --ohess vtight --parallel 40 --molden --ceasefiles --namespace data2507/toluene/TRZ3DPA/TRZ3DPA_toluene_S0_preOpt
      * Solvation model:               GBSA
        Solvent                        toluene
        Solvent mass                       9.2140E+01 g/mol
          :  Hamiltonian                  GFN2-xTB          :
 * total energy  :  -161.0857026 Eh     change       -0.1336900E-08 Eh
 * total energy  :  -161.1024907 Eh     change       -0.1678805E-01 Eh
 * total energy  :  -161.1105291 Eh     change       -0.8038455E-02 Eh
 * total energy  :  -161.1143128 Eh     change       -0.3783701E-02 Eh
 * total energy  :  -161.1167979 Eh     change       -0.2485056E-02 Eh
 * total energy  :  -161.1179964 Eh     change       -0.1198481E-02 Eh
 * total energy  :  -161.1185548 Eh     change       -0.5584779E-03 Eh
 * total energy  :  -161.1187908 Eh     change       -0.2359324E-03 Eh
 * total energy  :  -161.1189123 Eh     change       -0.1214977E-03 Eh
 * total energy  :  -161.1190661 Eh     change       -0.1538534E-03 Eh
 * total energy  :  -161.1200023 Eh     change       -0.4375293E-06 Eh
 * total energy  :  -161.1200028 Eh     change       -0.5376461E-06 Eh
 * total energy  :  -161.1200033 Eh     change       -0.4359506E-06 Eh
 * total energy  :  -161.1200035 Eh     change       -0.2745717E-06 Eh
 * total energy  :  -161.1200037 Eh     change       -0.1690909E-06 Eh
 * total energy  :  -161.1200038 Eh     change       -0.1446973E-06 Eh
 * total energy  :  -161.1200040 Eh     change       -0.1384973E-06 Eh
 * total energy  :  -161.1200041 Eh     change       -0.1059835E-06 Eh
 * total energy  :  -161.1200041 Eh     change       -0.8300361E-08 Eh
   *** GEOMETRY OPTIMIZATION CONVERGED AFTER 145 ITERATIONS ***

 final structure:
================
105
 xtb: 6.7.1 (edcfbbe)
C            2.03854736894172       -9.33165855675962       -2.10504143081856
C            2.61709173731996       -9.50325876858752       -0.85782058725651
C            3.08213023456601       -8.41339461949420       -0.14629748668630
C            2.97885670965638       -7.13071128011082       -0.68219293902844
N            3.46518612259945       -6.02358434825679        0.03277938255123
C            4.67125839762410       -6.15089194103971        0.74275361194880
C            4.80803438192378       -5.58546741466279        2.00964113277664
C            5.99424616213192       -5.72045377859136        2.70583956172579
C            7.05354560026172       -6.42500241900542        2.15642970017483
C            6.91881991633853       -6.99471254410379        0.90058159466406
C            5.73897622182638       -6.85868748225320        0.19355060659293
C            2.77162530388267       -4.82211707433204        0.03259787791990
C            1.37357899620938       -4.80374680135313       -0.04917055564595
C            0.68851798260529       -3.61110290448729       -0.05168241224261
C            1.37145086449077       -2.39535167305356        0.02114049311726
C            0.64441831933350       -1.13258484987568        0.01031731540156
N           -0.68700855859310       -1.17804742524718        0.03299304612640
C           -1.30881563191471        0.00057565779051        0.03677085747045
C           -2.76483451678918        0.00451457899453        0.08366000588830
C           -3.47574331062161        1.20448695976614        0.01452178161007
C           -4.85021824315931        1.21171819973933        0.06122123021357
C           -5.56548839563044        0.01339430835370        0.18120776409569
N           -6.95158877514572        0.01784224529421        0.23009291511335
C           -7.64377724598616        1.09615207349122        0.80666165768327
C           -8.82314364237323        1.56284257669252        0.22844626225834
C           -9.51087301801540        2.61416646746306        0.80468079681581
C           -9.03232178964047        3.21812224799499        1.95619356489599
C           -7.86022800603087        2.75734002446004        2.53416392013781
C           -7.17006772303808        1.70118786177750        1.97003858907348
C           -7.68851163399419       -1.05818431642435       -0.29363938231445
C           -8.81953570834378       -1.52560803723379        0.37349784801239
C           -9.55135640353273       -2.57441023106512       -0.15075890393749
C           -9.16492600663978       -3.17490185793076       -1.33809100046236
C           -8.04086939165814       -2.71352227167727       -2.00423182318868
C           -7.30772752347299       -1.65968218097442       -1.49235575285595
C           -4.85123645093050       -1.18952688763836        0.25031163951534
C           -3.47685101223430       -1.19107328955515        0.20043126117468
N           -0.68272881463453        1.17625295605718        0.00032799178272
C            0.64824151158666        1.12523672005796       -0.03580276784711
C            1.37872334097145        2.38424066343757       -0.09220945736918
C            0.70572837372824        3.60372791261297        0.00730312455669
C            1.39376429601950        4.79341078296608       -0.04499313853602
C            2.78518567510301        4.80563549882306       -0.20638892002144
N            3.48186720480754        6.00314489875045       -0.26291653981007
C            2.88338829960976        7.15768625825910       -0.79516990474925
C            2.08128300250947        7.08049216739432       -1.93291392852802
C            1.50001497319438        8.22214494985367       -2.45143611098029
C            1.71715087970346        9.45338762868072       -1.85385024983258
C            2.52171226564235        9.53569634396263       -0.72884810374364
C            3.10006032303997        8.39830532556812       -0.19774257238304
C            4.80080927679484        6.08599830759951        0.21606147152366
C            5.75352478556512        6.82871833145760       -0.47913256202331
C            7.04732844408819        6.91950791159172       -0.00141774767829
C            7.41038712181827        6.26973974066423        1.16724296990949
C            6.46572274361173        5.53158526791055        1.86218092739345
C            5.16749271093123        5.44158319947381        1.39658586314131
C            3.45859403987836        3.58156274348846       -0.30885759792451
C            2.76617754907334        2.39485462522918       -0.24986510511112
N            1.35370318888370       -0.00516783327469       -0.02242302327435
C            2.76522596848818       -2.41241756497437        0.10444320553600
C            3.45503926632634       -3.60223944884867        0.11344758780873
C            2.40350372963962       -6.96323168536470       -1.94108385592172
C            1.93403903215786       -8.05820699729749       -2.64142309791826
H            1.67312036067824      -10.18457138352375       -2.65683602625863
H            2.70057740166968      -10.49201056104225       -0.43109132955972
H            3.52710221473743       -8.54764481721392        0.82875765488838
H            3.97861551152298       -5.04525903424346        2.44252844619723
H            6.08772936102806       -5.27949948997172        3.68753390281614
H            7.97756274831007       -6.53064177324294        2.70465116643768
H            7.74043452998417       -7.54317207258697        0.46381469084871
H            5.63657625478992       -7.29747102041875       -0.78820652583976
H            0.83341699393234       -5.73754209755226       -0.09996787636431
H           -0.38897298465431       -3.59698777831950       -0.10563284628490
H           -2.92490460751607        2.12647848166829       -0.08839407268566
H           -5.38806993401358        2.14577604060872       -0.00624843640498
H           -9.19371711365944        1.09711398459505       -0.67297258762908
H          -10.42245718320200        2.96845312857795        0.34627697466565
H           -9.57023804869462        4.04115228734920        2.40196778095412
H           -7.48353609878988        3.21700440364815        3.43622526052407
H           -6.26183765627508        1.33604022009400        2.42733428430133
H           -9.11781875036386       -1.06254801976234        1.30271893506134
H          -10.42476212328015       -2.92954550529883        0.37615505684822
H           -9.73696480742616       -3.99600445180160       -1.74299410445530
H           -7.73618746663449       -3.17091805905967       -2.93422223056635
H           -6.43769590949868       -1.29367869136256       -2.01799962881873
H           -5.38881068283678       -2.12041354069006        0.35414932180308
H           -2.92629566285169       -2.11674668072059        0.26439727427514
H           -0.36495111537526        3.59429772470444        0.14041434610991
H            0.86245501669429        5.72888825204066        0.04858729050919
H            1.92055860971906        6.12266888602696       -2.40620463504908
H            0.88055440171085        8.14964488244885       -3.33345829608322
H            1.26380435296102       10.34329775422183       -2.26370609402200
H            2.69438009414547       10.49107173448998       -0.25539244860475
H            3.72177445538331        8.46237381528811        0.68329287417647
H            5.47236046002874        7.33007773014141       -1.39370945331924
H            7.77802672899802        7.49526128347796       -0.55022497318911
H            8.42281895726314        6.33958683949740        1.53537851223090
H            6.73811082615008        5.02836461818583        2.77840268073439
H            4.42879240308554        4.87418597286938        1.94403945059083
H            4.52984250022916        3.57527515641780       -0.44567530818117
H            3.28357667464720        1.45225051126113       -0.33876370504074
H            3.29174781087873       -1.47206337963375        0.15525136361398
H            4.53352104073149       -3.60128502396539        0.17072147989268
H            2.33114283698101       -5.97204145817088       -2.36478638013788
H            1.49151807813931       -7.91552482121816       -3.61647438943491

          :  Hamiltonian                  GFN2-xTB          :
         :: gradient norm              0.000048524404 Eh/a0 ::
         :: HOMO-LUMO gap              2.014822619711 eV    ::
         :: SCC energy              -164.092435698840 Eh    ::
         :: -> dispersion             -0.143098828606 Eh    ::
         :: -> Gsolv                  -0.074791197276 Eh    ::
         :: repulsion energy           2.972431601158 Eh    ::

    * Orbital Energies and Occupations

         #    Occupation            Energy/Eh            Energy/eV
      -------------------------------------------------------------
         1        2.0000           -0.6765334             -18.4094
       ...           ...                  ...                  ...
       138        2.0000           -0.4093726             -11.1396
       139        2.0000           -0.4093124             -11.1380
       140        2.0000           -0.4086706             -11.1205
       141        2.0000           -0.4086262             -11.1193
       142        2.0000           -0.4085872             -11.1182
       143        2.0000           -0.4073000             -11.0832
       144        2.0000           -0.4067047             -11.0670
       145        2.0000           -0.4066764             -11.0662
       146        2.0000           -0.3688204             -10.0361
       147        2.0000           -0.3687832             -10.0351
       148        2.0000           -0.3567491              -9.7076
       149        2.0000           -0.3566569              -9.7051
       150        2.0000           -0.3552984              -9.6682 (HOMO)
       151                         -0.2812550              -7.6533 (LUMO)
       152                         -0.2811522              -7.6505
       153                         -0.2458436              -6.6897
       154                         -0.2341288              -6.3710
       155                         -0.2340661              -6.3693
       156                         -0.2339933              -6.3673
       157                         -0.2314698              -6.2986
       158                         -0.2314622              -6.2984
       159                         -0.2314425              -6.2979
       160                         -0.2263579              -6.1595
       161                         -0.2263195              -6.1585
       ...                                ...                  ...
       294                          0.6936201              18.8744
      -------------------------------------------------------------
                  HL-Gap            0.0740434 Eh            2.0148 eV

     #   Z          covCN         q      C6AA      α(0)
     1   6 C        2.919    -0.037    28.909     8.817
     2   6 C        2.919    -0.029    28.720     8.788
     3   6 C        2.922    -0.046    29.134     8.851
     4   6 C        2.925     0.063    26.580     8.455
     5   7 N        2.752    -0.068    22.564     7.055
     6   6 C        2.925     0.063    26.579     8.455
     7   6 C        2.922    -0.046    29.138     8.852
     8   6 C        2.919    -0.029    28.724     8.789
     9   6 C        2.919    -0.036    28.904     8.816
    10   6 C        2.919    -0.029    28.719     8.788
    11   6 C        2.922    -0.045    29.127     8.850
    12   6 C        2.922     0.072    26.397     8.425
    13   6 C        2.920    -0.050    29.239     8.867
    14   6 C        2.922    -0.028    28.700     8.785
    15   6 C        2.983    -0.022    28.545     8.764
    16   6 C        2.978     0.220    23.373     7.930
    17   7 N        1.844    -0.341    29.719     8.079
    18   6 C        2.977     0.220    23.375     7.931
    19   6 C        2.983    -0.022    28.549     8.765
    20   6 C        2.922    -0.028    28.701     8.785
    21   6 C        2.920    -0.050    29.243     8.868
    22   6 C        2.922     0.072    26.397     8.425
    23   7 N        2.752    -0.068    22.553     7.053
    24   6 C        2.925     0.063    26.581     8.455
    25   6 C        2.922    -0.046    29.131     8.851
    26   6 C        2.919    -0.029    28.720     8.788
    27   6 C        2.919    -0.036    28.907     8.817
    28   6 C        2.919    -0.029    28.724     8.789
    29   6 C        2.922    -0.046    29.142     8.853
    30   6 C        2.925     0.063    26.581     8.455
    31   6 C        2.922    -0.045    29.128     8.850
    32   6 C        2.919    -0.029    28.719     8.788
    33   6 C        2.919    -0.036    28.904     8.816
    34   6 C        2.919    -0.029    28.724     8.789
    35   6 C        2.922    -0.046    29.139     8.852
    36   6 C        2.920    -0.050    29.244     8.868
    37   6 C        2.922    -0.028    28.700     8.785
    38   7 N        1.844    -0.341    29.716     8.079
    39   6 C        2.977     0.220    23.375     7.931
    40   6 C        2.983    -0.022    28.551     8.765
    41   6 C        2.922    -0.028    28.700     8.785
    42   6 C        2.920    -0.050    29.249     8.869
    43   6 C        2.922     0.072    26.397     8.425
    44   7 N        2.752    -0.068    22.553     7.053
    45   6 C        2.925     0.063    26.582     8.455
    46   6 C        2.922    -0.046    29.141     8.853
    47   6 C        2.919    -0.029    28.724     8.789
    48   6 C        2.919    -0.036    28.906     8.817
    49   6 C        2.919    -0.029    28.719     8.788
    50   6 C        2.922    -0.046    29.131     8.851
    51   6 C        2.925     0.063    26.581     8.455
    52   6 C        2.922    -0.045    29.124     8.850
    53   6 C        2.919    -0.029    28.718     8.788
    54   6 C        2.919    -0.036    28.902     8.816
    55   6 C        2.919    -0.029    28.723     8.789
    56   6 C        2.922    -0.046    29.135     8.852
    57   6 C        2.920    -0.050    29.248     8.869
    58   6 C        2.922    -0.028    28.700     8.785
    59   7 N        1.844    -0.341    29.719     8.079
    60   6 C        2.922    -0.028    28.700     8.785
    61   6 C        2.920    -0.050    29.240     8.867
    62   6 C        2.922    -0.046    29.145     8.853
    63   6 C        2.919    -0.029    28.725     8.789
    64   1 H        0.926     0.037     2.494     2.469
    65   1 H        0.926     0.038     2.472     2.459
    66   1 H        0.926     0.036     2.507     2.476
    67   1 H        0.926     0.033     2.549     2.497
    68   1 H        0.926     0.037     2.489     2.467
    69   1 H        0.926     0.037     2.490     2.468
    70   1 H        0.926     0.038     2.470     2.457
    71   1 H        0.926     0.036     2.505     2.475
    72   1 H        0.926     0.042     2.422     2.434
    73   1 H        0.926     0.047     2.352     2.398
    74   1 H        0.926     0.048     2.350     2.397
    75   1 H        0.926     0.042     2.422     2.434
    76   1 H        0.926     0.036     2.505     2.475
    77   1 H        0.926     0.038     2.471     2.458
    78   1 H        0.926     0.037     2.492     2.469
    79   1 H        0.926     0.037     2.490     2.468
    80   1 H        0.926     0.033     2.548     2.496
    81   1 H        0.926     0.036     2.504     2.475
    82   1 H        0.926     0.038     2.470     2.458
    83   1 H        0.926     0.037     2.490     2.468
    84   1 H        0.926     0.037     2.488     2.466
    85   1 H        0.926     0.033     2.546     2.495
    86   1 H        0.926     0.042     2.424     2.434
    87   1 H        0.926     0.047     2.352     2.398
    88   1 H        0.926     0.047     2.355     2.400
    89   1 H        0.926     0.042     2.422     2.434
    90   1 H        0.926     0.033     2.545     2.495
    91   1 H        0.926     0.037     2.489     2.467
    92   1 H        0.926     0.037     2.492     2.468
    93   1 H        0.926     0.038     2.471     2.458
    94   1 H        0.926     0.036     2.506     2.476
    95   1 H        0.926     0.036     2.504     2.474
    96   1 H        0.926     0.039     2.469     2.457
    97   1 H        0.926     0.037     2.489     2.467
    98   1 H        0.926     0.037     2.486     2.465
    99   1 H        0.926     0.033     2.544     2.494
   100   1 H        0.926     0.042     2.425     2.435
   101   1 H        0.926     0.047     2.354     2.400
   102   1 H        0.926     0.048     2.350     2.397
   103   1 H        0.926     0.042     2.425     2.435
   104   1 H        0.926     0.032     2.552     2.498
   105   1 H        0.926     0.037     2.492     2.469

molecular dipole:
                 x           y           z       tot (Debye)
 q only:        0.013       0.030       0.004
   full:        0.013       0.029       0.003       0.082

 projected vibrational frequencies (cm⁻¹)
eigval :       -0.00    -0.00    -0.00     0.00     0.00     0.00
eigval :        9.32     9.53    10.79    12.05    14.57    15.94
eigval :       27.17    29.42    33.89    39.58    43.07    45.90
eigval :       48.82    49.40    57.03    62.24    63.31    65.88
eigval :       66.51    74.15    75.54    90.15    91.00   100.70
eigval :      103.02   103.41   131.45   136.36   156.12   157.61
eigval :      167.14   181.09   181.14   216.14   218.44   221.89
eigval :      234.26   235.05   236.16   278.50   280.78   295.21
eigval :      296.76   306.93   312.70   312.92   327.25   334.23
eigval :      367.17   367.77   375.89   376.75   377.99   378.12
eigval :      378.18   379.68   380.38   385.72   387.00   389.82
eigval :      400.41   401.20   409.49   433.42   434.79   470.49
eigval :      471.28   486.32   492.11   493.01   493.84   498.63
eigval :      499.31   504.29   556.01   581.52   581.87   583.29
eigval :      584.73   584.93   585.85   592.42   592.62   593.21
eigval :      604.58   605.21   613.07   613.71   614.23   625.53
eigval :      631.67   632.97   660.43   661.22   661.67   665.78
eigval :      666.29   668.04   678.51   702.09   702.17   703.60
eigval :      704.66   724.97   756.37   758.64   758.88   759.19
eigval :      760.91   761.84   775.03   823.24   824.20   824.66
eigval :      843.02   843.24   865.83   867.38   868.47   874.09
eigval :      874.78   874.82   875.11   875.83   876.59   892.85
eigval :      894.68   895.12   896.51   896.81   897.13   909.02
eigval :      909.16   909.28   915.50   917.96   919.77   921.40
eigval :      925.02   926.56   927.06   927.48   928.12   928.42
eigval :      928.58   928.82   929.06   929.48   929.89   930.45
eigval :      930.57   930.84   931.49   931.60   932.48   981.14
eigval :      986.09   986.19  1004.44  1004.45  1004.55  1007.14
eigval :     1017.65  1018.03  1044.42  1080.84  1081.10  1081.34
eigval :     1082.04  1082.26  1082.54  1086.72  1119.84  1120.07
eigval :     1120.17  1121.86  1121.92  1122.00  1126.84  1131.28
eigval :     1132.55  1162.90  1163.80  1176.70  1177.89  1178.71
eigval :     1179.22  1179.35  1179.49  1183.32  1183.54  1184.24
eigval :     1189.96  1193.27  1193.58  1193.80  1199.38  1199.83
eigval :     1210.89  1211.26  1217.86  1217.98  1259.19  1261.60
eigval :     1262.38  1275.18  1275.69  1276.08  1278.83  1279.35
eigval :     1279.99  1301.33  1301.56  1301.98  1314.87  1314.99
eigval :     1315.15  1319.41  1319.64  1321.07  1322.82  1323.17
eigval :     1323.32  1334.03  1334.16  1337.49  1359.42  1359.67
eigval :     1389.71  1415.07  1415.41  1418.36  1433.47  1433.73
eigval :     1434.42  1438.69  1438.87  1439.43  1465.36  1465.74
eigval :     1468.06  1470.09  1470.55  1470.64  1486.92  1487.26
eigval :     1492.46  1492.79  1496.17  1550.52  1554.96  1555.35
eigval :     1576.66  1576.74  1577.12  1580.27  1580.32  1580.65
eigval :     1588.41  1588.56  1588.68  1590.17  1590.37  1590.47
eigval :     1597.76  1598.02  1598.11  3073.79  3074.09  3074.40
eigval :     3074.60  3074.68  3075.28  3075.46  3075.66  3076.13
eigval :     3076.42  3076.68  3076.97  3083.20  3083.37  3083.42
eigval :     3083.91  3084.12  3084.60  3084.90  3085.35  3085.57
eigval :     3085.83  3086.68  3086.79  3086.95  3087.02  3087.14
eigval :     3087.75  3087.83  3088.30  3095.65  3095.66  3095.94
eigval :     3096.21  3096.53  3096.72  3101.99  3102.37  3102.49
eigval :     3103.55  3103.75  3104.98

   temp. (K)  partition function   enthalpy   heat capacity  entropy
                                   cal/mol     cal/K/mol   cal/K/mol   J/K/mol
 298.15  VIB  0.319E+27            30999.231    188.848    198.226
         ROT  0.345E+09              888.752      2.981     42.048
         INT  0.110E+36            31887.983    191.829    240.274
         TR   0.223E+29             1481.254      4.968     45.936
         TOT                       33369.2374   196.7970   286.2098  1197.5018

       T/K    H(0)-H(T)+PV         H(T)/Eh          T*S/Eh         G(T)/Eh
   ------------------------------------------------------------------------
    298.15    0.531773E-01    0.866004E+00    0.135988E+00    0.730016E+00
   ------------------------------------------------------------------------

         :::::::::::::::::::::::::::::::::::::::::::::::::::::
         ::                  THERMODYNAMIC                  ::
         :::::::::::::::::::::::::::::::::::::::::::::::::::::
         :: total free energy        -160.389988018325 Eh   ::
         ::.................................................::
         :: total energy             -161.120004100290 Eh   ::
         :: zero point energy           0.812826331465 Eh   ::
         :: G(RRHO) w/o ZPVE           -0.082810249501 Eh   ::
         :: G(RRHO) contrib.            0.730016081964 Eh   ::
         :::::::::::::::::::::::::::::::::::::::::::::::::::::

           -------------------------------------------------
          | TOTAL ENERGY             -161.120004100290 Eh   |
          | TOTAL ENTHALPY           -160.254000504178 Eh   |
          | TOTAL FREE ENERGY        -160.389988018325 Eh   |
          | GRADIENT NORM               0.000048512187 Eh/α |
          | HOMO-LUMO GAP               2.014824215729 eV   |
           -------------------------------------------------

 * finished run on 2025/09/12 at 00:19:41.734
