   * xtb version 6.7.1 (edcfbbe) compiled by 'albert@albert-system' on 2024-07-22

   ID    Z sym.   atoms
    1    6 C      1-4, 6-16, 18-22, 24-37, 39-43, 45-58, 60-63
    2    7 N      5, 17, 23, 38, 44, 59
    3    1 H      64-105

          program call               : xtb data2507/toluene/TRZ3DPA/TRZ3DPA_toluene_S0_finalOpt.xtbopt.xyz --gfn 2 --uhf 2 --gbsa toluene --ohess vtight --parallel 40 --molden --ceasefiles --namespace data2507/toluene/TRZ3DPA/TRZ3DPA_toluene_T1_preOpt
      * Solvation model:               GBSA
        Solvent                        toluene
        Solvent mass                       9.2140E+01 g/mol
          :  Hamiltonian                  GFN2-xTB          :
 * total energy  :  -161.0397976 Eh     change       -0.1126099E-07 Eh
 * total energy  :  -161.0409308 Eh     change       -0.1133179E-02 Eh
 * total energy  :  -161.0412543 Eh     change       -0.3235556E-03 Eh
 * total energy  :  -161.0412993 Eh     change       -0.4492176E-04 Eh
 * total energy  :  -161.0413565 Eh     change       -0.5718713E-04 Eh
 * total energy  :  -161.0414041 Eh     change       -0.4769248E-04 Eh
 * total energy  :  -161.0414609 Eh     change       -0.5674862E-04 Eh
 * total energy  :  -161.0415358 Eh     change       -0.7486125E-04 Eh
 * total energy  :  -161.0416383 Eh     change       -0.1025499E-03 Eh
 * total energy  :  -161.0416910 Eh     change       -0.5274084E-04 Eh
 * total energy  :  -161.0419896 Eh     change       -0.2470900E-06 Eh
 * total energy  :  -161.0419898 Eh     change       -0.2627384E-06 Eh
 * total energy  :  -161.0419900 Eh     change       -0.2057644E-06 Eh
 * total energy  :  -161.0419902 Eh     change       -0.1840053E-06 Eh
 * total energy  :  -161.0419903 Eh     change       -0.1372512E-06 Eh
 * total energy  :  -161.0419905 Eh     change       -0.1438708E-06 Eh
 * total energy  :  -161.0419906 Eh     change       -0.1388817E-06 Eh
 * total energy  :  -161.0419908 Eh     change       -0.1302159E-06 Eh
 * total energy  :  -161.0419908 Eh     change       -0.6850533E-07 Eh
   *** GEOMETRY OPTIMIZATION CONVERGED AFTER 135 ITERATIONS ***

 final structure:
================
105
 xtb: 6.7.1 (edcfbbe)
C            3.25413172156491        8.88475599364806        2.28836361385198
C            2.65003381782629        7.73047958903749        2.76300586659520
C            1.67867716496661        7.09161000578191        2.01777274759940
C            1.29752395789030        7.60253877370971        0.77490291496007
N            0.31900495921086        6.95515351404751        0.01564890101377
C           -0.58865310816911        7.69668482120549       -0.74454642644723
C           -1.02551780362984        7.22253114025230       -1.98379084447761
C           -1.92418674011875        7.95772426723767       -2.73139145807216
C           -2.39917603485018        9.17339223461787       -2.26337928847576
C           -1.97051150153243        9.64792727412470       -1.03312472415275
C           -1.07553201406647        8.91902578509653       -0.27498929811518
C            0.25337739908523        5.55865211359740        0.01430340783023
C            1.42619536874074        4.79133067485291        0.02464505934502
C            1.36136923143309        3.42014859734175        0.02511880226561
C            0.12394059719207        2.75664371748883        0.01240486516066
C            0.05762314150682        1.31559491520159        0.01045134391708
N            1.20581251670188        0.62328517582171        0.00805030561187
C            1.10705404106370       -0.71125507445247        0.00376169900303
C            2.32420635656668       -1.48919896454285        0.00064878644303
C            2.28202469838617       -2.89193724104381       -0.00085637566018
C            3.43855241054923       -3.63196464408809       -0.00640236876009
C            4.68861654362728       -2.99835673505456       -0.00638676257403
N            5.86602951079089       -3.75092042490622       -0.01006493555643
C            5.93465505513612       -4.93937976362908        0.72288634106436
C            6.63711307564794       -6.03943813440738        0.22552731332057
C            6.69822844786453       -7.21152512429579        0.95334890639440
C            6.06029940526835       -7.31062283328393        2.18034920319806
C            5.35967438850991       -6.22234790035704        2.67764123534598
C            5.29570223073692       -5.04390777850107        1.96039212753974
C            6.96947339183397       -3.31728544881050       -0.75020788072328
C            8.26596395277845       -3.50773637107241       -0.26653313729310
C            9.35236656884756       -3.07747298646304       -1.00256656148528
C            9.16845462735113       -2.44786683592317       -2.22402835575331
C            7.88353498767436       -2.25210166158899       -2.70674999629900
C            6.79003713935935       -2.68311657405725       -1.98166160424020
C            4.73740134480109       -1.59779233589231       -0.00298782927980
C            3.57900497559870       -0.86067366431567       -0.00138891348151
N           -0.06409873426817       -1.36072499109986        0.00147623069172
C           -1.17266871449163       -0.60656296719337        0.00542614801678
C           -2.45486525883816       -1.26941387360384        0.00439445766440
C           -2.54163023257870       -2.67044511481023       -0.01551375186688
C           -3.76076590508467       -3.30187937325689       -0.01439483511357
C           -4.94749396575402       -2.55656136382999        0.00337199935692
N           -6.18989783804257       -3.19695556432243        0.00411620473414
C           -6.37717849557245       -4.35611499011628       -0.75361455206726
C           -5.75303078404695       -4.49771633740555       -1.99517222139162
C           -5.93728386641427       -5.64729669517810       -2.73801227829723
C           -6.74522514378036       -6.66918700255476       -2.26321423635136
C           -7.36747795944371       -6.53370772661169       -1.03163407977988
C           -7.18623584573682       -5.39079702927591       -0.27805269850781
C           -7.24131605413853       -2.67318081199644        0.76145654570597
C           -8.55352188924609       -2.72558281206712        0.28543120273412
C           -9.58682878053085       -2.20173969203626        1.03713144651594
C           -9.33331656891471       -1.61460928306378        2.26727387080018
C           -8.03240292124054       -1.55773094498725        2.74354650823537
C           -6.99199319225108       -2.08256915514020        2.00244714138123
C           -4.86787305330698       -1.15735268299882        0.02091399009511
C           -3.64741411114258       -0.52894291727108        0.02301749971419
N           -1.14766629567934        0.73160663469002        0.01035634668980
C           -1.04703716247816        3.53147017710386        0.00057883905329
C           -0.98523894743629        4.90284791726387        0.00306228737268
C            1.91285620936077        8.76287123109979        0.29934380957917
C            2.88047760869030        9.39553288955572        1.05470924940983
H            4.01139383878083        9.38169392792635        2.87549764520481
H            2.93179565750415        7.32836824313233        3.72500214441972
H            1.20070217330752        6.19816774693741        2.39216368233210
H           -0.64640994561202        6.28138509583089       -2.35428396661270
H           -2.24958742802820        7.58226334341857       -3.69047042733480
H           -3.09948033345064        9.74556557431585       -2.85269567294095
H           -2.34294818686681       10.58934213879378       -0.65695201374804
H           -0.75384156402205        9.28321670084215        0.68957316271750
H            2.38430240255109        5.29090579254410        0.01876896034301
H            2.26159514251192        2.82519169453295        0.02451854890098
H            1.31752713285845       -3.37591155936849       -0.00857735494804
H            3.39352922547418       -4.71138753659168       -0.02327687083052
H            7.12154417561034       -5.96825528271182       -0.73713989307970
H            7.24008201960726       -8.05689265121039        0.55558699469416
H            6.10828779467700       -8.22928538611429        2.74506817842885
H            4.86497156773534       -6.28877594932303        3.63547571099156
H            4.75878540582164       -4.19278711693402        2.35307084117214
H            8.41015595982987       -3.98371060807400        0.69212499095684
H           10.34959251161497       -3.22641047815371       -0.61549194731762
H           10.02001794813174       -2.11138797915601       -2.79566297406844
H            7.73130018768244       -1.76724830168596       -3.65983097304919
H            5.78979869383534       -2.54120043753762       -2.36404981446655
H            5.69729445711527       -1.10191041145823        0.01111212602388
H            3.61160423359516        0.21787463967414        0.00901798683615
H           -1.62527798471724       -3.24031242180680       -0.02085092605528
H           -3.81417299218673       -4.38108001938416       -0.01420796142560
H           -5.13338733717551       -3.69682931542792       -2.37133478626126
H           -5.45278798624337       -5.74239437336880       -3.69866743532044
H           -6.88784776728211       -7.56491166426294       -2.84841470102003
H           -7.99184605409202       -7.32845884180226       -0.65083135714841
H           -7.65982352636055       -5.29306948579929        0.68768864550694
H           -8.75084423204999       -3.16850727020179       -0.67961274975657
H          -10.59638758686657       -2.24370184327626        0.65558276005885
H          -10.14324499169613       -1.20384566330137        2.85070310979470
H           -7.82666478567501       -1.10757160849003        3.70357181637427
H           -5.98004784224862       -2.04781636581643        2.37876432575865
H           -5.77882705384273       -0.57624873725144        0.01969625142474
H           -3.58176727527252        0.54811827445670        0.02863010468445
H           -1.99820546893203        3.02178035594692       -0.00008548600124
H           -1.89328678471900        5.48846544602017        0.00934561419615
H            1.63376705896455        9.15311459319811       -0.66823226173119
H            3.35256934762161       10.28908675524639        0.67366029780569

          :  Hamiltonian                  GFN2-xTB          :
         :: gradient norm              0.000063194010 Eh/a0 ::
         :: HOMO-LUMO gap              0.004891048179 eV    ::
         :: SCC energy              -164.000851847174 Eh    ::
         :: -> dispersion             -0.143135793814 Eh    ::
         :: -> Gsolv                  -0.078074813828 Eh    ::
         :: repulsion energy           2.958860977478 Eh    ::

    * Orbital Energies and Occupations

         #    Occupation            Energy/Eh            Energy/eV
      -------------------------------------------------------------
         1        2.0000           -0.6731199             -18.3165
       ...           ...                  ...                  ...
       139        2.0000           -0.4103883             -11.1672
       140        2.0000           -0.4075596             -11.0903
       141        2.0000           -0.4073662             -11.0850
       142        2.0000           -0.4072632             -11.0822
       143        2.0000           -0.4049415             -11.0190
       144        2.0000           -0.4003369             -10.8937
       145        2.0000           -0.3999374             -10.8829
       146        1.9509           -0.3580039              -9.7418
       147        1.9502           -0.3579906              -9.7414
       148        1.7240           -0.3561043              -9.6901
       149        1.6911           -0.3559533              -9.6860
       150        1.6838           -0.3559209              -9.6851
       151        0.5237           -0.2721744              -7.4062 (HOMO)
       152        0.4763           -0.2719941              -7.4013 (LUMO)
       153                         -0.2430995              -6.6151
       154                         -0.2368988              -6.4463
       155                         -0.2368809              -6.4459
       156                         -0.2368574              -6.4452
       157                         -0.2316520              -6.3036
       158                         -0.2316198              -6.3027
       159                         -0.2315941              -6.3020
       160                         -0.2271227              -6.1803
       161                         -0.2271125              -6.1800
       162                         -0.2270842              -6.1793
       ...                                ...                  ...
       294                          0.6930881              18.8599
      -------------------------------------------------------------
                  HL-Gap            0.0001803 Eh            0.0049 eV

     #   Z          covCN         q      C6AA      α(0)
     1   6 C        2.919    -0.034    28.855     8.809
     2   6 C        2.919    -0.028    28.692     8.784
     3   6 C        2.921    -0.044    29.084     8.844
     4   6 C        2.925     0.064    26.560     8.452
     5   7 N        2.752    -0.050    22.208     6.999
     6   6 C        2.924     0.064    26.559     8.451
     7   6 C        2.921    -0.044    29.089     8.845
     8   6 C        2.919    -0.028    28.693     8.784
     9   6 C        2.919    -0.034    28.858     8.809
    10   6 C        2.919    -0.028    28.696     8.784
    11   6 C        2.921    -0.045    29.107     8.847
    12   6 C        2.925     0.055    26.767     8.484
    13   6 C        2.917    -0.046    29.150     8.854
    14   6 C        2.921    -0.035    28.880     8.813
    15   6 C        2.980    -0.019    28.471     8.753
    16   6 C        2.943     0.200    23.763     7.995
    17   7 N        1.844    -0.341    29.703     8.077
    18   6 C        2.943     0.202    23.724     7.989
    19   6 C        2.981    -0.019    28.467     8.752
    20   6 C        2.921    -0.035    28.865     8.810
    21   6 C        2.917    -0.047    29.156     8.854
    22   6 C        2.925     0.056    26.741     8.480
    23   7 N        2.752    -0.051    22.222     7.001
    24   6 C        2.925     0.064    26.562     8.452
    25   6 C        2.921    -0.044    29.104     8.847
    26   6 C        2.919    -0.028    28.696     8.784
    27   6 C        2.919    -0.034    28.856     8.809
    28   6 C        2.919    -0.028    28.693     8.784
    29   6 C        2.921    -0.044    29.085     8.844
    30   6 C        2.924     0.064    26.561     8.452
    31   6 C        2.921    -0.045    29.106     8.847
    32   6 C        2.919    -0.028    28.696     8.784
    33   6 C        2.919    -0.034    28.858     8.809
    34   6 C        2.919    -0.028    28.694     8.784
    35   6 C        2.921    -0.044    29.089     8.845
    36   6 C        2.917    -0.047    29.155     8.854
    37   6 C        2.921    -0.035    28.866     8.811
    38   7 N        1.843    -0.342    29.736     8.082
    39   6 C        2.943     0.201    23.748     7.992
    40   6 C        2.980    -0.019    28.469     8.752
    41   6 C        2.921    -0.035    28.874     8.812
    42   6 C        2.917    -0.046    29.152     8.854
    43   6 C        2.925     0.055    26.756     8.483
    44   7 N        2.752    -0.050    22.212     7.000
    45   6 C        2.924     0.064    26.560     8.452
    46   6 C        2.921    -0.044    29.087     8.844
    47   6 C        2.919    -0.028    28.693     8.784
    48   6 C        2.919    -0.034    28.857     8.809
    49   6 C        2.919    -0.028    28.696     8.784
    50   6 C        2.921    -0.045    29.105     8.847
    51   6 C        2.924     0.064    26.561     8.452
    52   6 C        2.921    -0.044    29.105     8.847
    53   6 C        2.919    -0.028    28.696     8.784
    54   6 C        2.919    -0.034    28.856     8.809
    55   6 C        2.919    -0.028    28.693     8.784
    56   6 C        2.921    -0.044    29.086     8.844
    57   6 C        2.917    -0.046    29.153     8.854
    58   6 C        2.921    -0.035    28.874     8.812
    59   7 N        1.844    -0.339    29.664     8.072
    60   6 C        2.921    -0.035    28.880     8.813
    61   6 C        2.917    -0.046    29.150     8.854
    62   6 C        2.921    -0.044    29.104     8.847
    63   6 C        2.919    -0.028    28.696     8.784
    64   1 H        0.926     0.040     2.454     2.450
    65   1 H        0.926     0.039     2.460     2.453
    66   1 H        0.926     0.035     2.513     2.479
    67   1 H        0.926     0.035     2.514     2.479
    68   1 H        0.926     0.039     2.462     2.453
    69   1 H        0.926     0.039     2.456     2.451
    70   1 H        0.926     0.041     2.431     2.438
    71   1 H        0.926     0.039     2.456     2.451
    72   1 H        0.926     0.037     2.488     2.467
    73   1 H        0.926     0.040     2.448     2.447
    74   1 H        0.926     0.041     2.441     2.443
    75   1 H        0.926     0.038     2.482     2.464
    76   1 H        0.926     0.039     2.457     2.451
    77   1 H        0.926     0.041     2.431     2.438
    78   1 H        0.926     0.040     2.455     2.450
    79   1 H        0.926     0.039     2.460     2.453
    80   1 H        0.926     0.035     2.513     2.479
    81   1 H        0.926     0.039     2.457     2.451
    82   1 H        0.926     0.041     2.432     2.439
    83   1 H        0.926     0.039     2.456     2.451
    84   1 H        0.926     0.039     2.461     2.453
    85   1 H        0.926     0.035     2.514     2.479
    86   1 H        0.926     0.038     2.481     2.463
    87   1 H        0.926     0.041     2.441     2.443
    88   1 H        0.926     0.040     2.445     2.445
    89   1 H        0.926     0.037     2.484     2.465
    90   1 H        0.926     0.035     2.513     2.479
    91   1 H        0.926     0.039     2.461     2.453
    92   1 H        0.926     0.039     2.455     2.450
    93   1 H        0.926     0.041     2.431     2.438
    94   1 H        0.926     0.039     2.456     2.451
    95   1 H        0.926     0.039     2.456     2.450
    96   1 H        0.926     0.041     2.431     2.438
    97   1 H        0.926     0.040     2.455     2.450
    98   1 H        0.926     0.039     2.460     2.453
    99   1 H        0.926     0.035     2.513     2.479
   100   1 H        0.926     0.037     2.485     2.465
   101   1 H        0.926     0.040     2.446     2.445
   102   1 H        0.926     0.040     2.448     2.447
   103   1 H        0.926     0.037     2.486     2.466
   104   1 H        0.926     0.040     2.455     2.450
   105   1 H        0.926     0.041     2.430     2.438

molecular dipole:
                 x           y           z       tot (Debye)
 q only:        0.006      -0.003       0.000
   full:        0.006      -0.004      -0.001       0.020

 projected vibrational frequencies (cm⁻¹)
eigval :       -0.00    -0.00    -0.00    -0.00     0.00     0.00
eigval :      -11.75   -10.98     6.22     9.00    12.87    14.29
eigval :       24.20    26.14    31.99    36.85    40.73    41.60
eigval :       44.29    47.04    56.42    60.97    62.68    64.04
eigval :       67.16    74.44    75.33    91.06    92.56    95.86
eigval :      100.68   103.92   128.08   136.41   159.11   162.63
eigval :      165.55   173.74   174.67   212.89   213.01   220.96
eigval :      227.39   228.34   230.99   274.35   274.72   284.26
eigval :      287.49   308.29   309.43   310.30   310.91   337.99
eigval :      338.97   347.43   369.86   372.70   374.76   375.50
eigval :      375.69   377.43   380.92   382.61   384.06   385.51
eigval :      386.45   388.00   399.17   399.84   408.61   451.58
eigval :      452.69   471.44   474.52   474.96   483.45   501.33
eigval :      501.82   503.62   528.58   539.30   554.37   566.85
eigval :      568.17   576.15   576.76   580.02   584.37   587.26
eigval :      587.71   590.40   591.12   591.32   595.73   597.10
eigval :      611.32   614.71   615.80   624.58   654.79   656.95
eigval :      657.69   661.47   662.58   663.10   664.17   677.65
eigval :      679.13   690.61   690.71   701.14   720.74   753.55
eigval :      753.80   754.69   756.67   757.34   758.34   809.43
eigval :      809.53   810.50   813.55   814.70   851.95   854.66
eigval :      856.81   868.52   869.63   870.26   870.62   873.27
eigval :      874.67   890.22   890.28   891.56   891.91   893.64
eigval :      893.98   906.92   907.07   907.61   908.31   909.56
eigval :      909.76   911.45   916.66   918.43   919.02   922.36
eigval :      922.83   925.03   925.59   925.83   925.87   926.38
eigval :      926.55   926.88   927.49   927.62   928.13   928.77
eigval :      929.40   954.30   982.05   982.43   984.36  1000.89
eigval :     1001.03  1001.22  1003.32  1008.66  1009.35  1065.05
eigval :     1079.34  1079.38  1079.84  1080.31  1080.71  1080.81
eigval :     1118.66  1118.85  1119.93  1121.17  1121.38  1122.43
eigval :     1122.91  1126.79  1127.51  1155.48  1157.09  1173.82
eigval :     1174.98  1175.71  1176.09  1176.94  1177.34  1177.54
eigval :     1178.26  1178.59  1184.43  1188.60  1189.87  1190.78
eigval :     1191.22  1192.29  1208.03  1210.53  1212.64  1254.58
eigval :     1256.65  1257.38  1269.52  1273.45  1274.16  1274.82
eigval :     1275.90  1276.28  1276.40  1299.16  1299.45  1301.32
eigval :     1302.73  1303.58  1303.77  1316.63  1316.78  1317.02
eigval :     1324.59  1324.72  1324.85  1329.85  1330.04  1336.08
eigval :     1348.52  1350.02  1377.87  1418.91  1420.77  1421.08
eigval :     1431.49  1431.78  1432.04  1438.21  1438.34  1438.58
eigval :     1457.72  1458.15  1459.69  1459.91  1459.93  1461.19
eigval :     1462.09  1462.64  1479.06  1504.48  1506.54  1508.34
eigval :     1555.71  1555.86  1565.11  1565.37  1565.52  1569.43
eigval :     1569.68  1569.91  1578.67  1579.52  1579.58  1579.89
eigval :     1585.97  1586.21  1589.86  3075.27  3075.58  3075.83
eigval :     3076.29  3076.33  3076.56  3076.69  3076.82  3077.06
eigval :     3077.43  3077.51  3077.76  3077.89  3077.98  3078.12
eigval :     3078.44  3078.74  3079.34  3085.44  3085.92  3085.97
eigval :     3086.22  3086.55  3086.82  3088.58  3088.72  3089.02
eigval :     3089.83  3089.93  3090.14  3096.35  3096.74  3096.79
eigval :     3096.90  3097.05  3097.13  3097.27  3097.47  3098.02
eigval :     3098.30  3098.77  3101.03

   temp. (K)  partition function   enthalpy   heat capacity  entropy
                                   cal/mol     cal/K/mol   cal/K/mol   J/K/mol
 298.15  VIB  0.244E+28            31706.122    192.840    202.700
         ROT  0.172E+09              888.752      2.981     40.666
         INT  0.420E+36            32594.874    195.821    243.366
         TR   0.223E+29             1481.254      4.968     45.936
         TOT                       34076.1278   200.7895   289.3022  1210.4403

       T/K    H(0)-H(T)+PV         H(T)/Eh          T*S/Eh         G(T)/Eh
   ------------------------------------------------------------------------
    298.15    0.543038E-01    0.858448E+00    0.137457E+00    0.720991E+00
   ------------------------------------------------------------------------

         :::::::::::::::::::::::::::::::::::::::::::::::::::::
         ::                  THERMODYNAMIC                  ::
         :::::::::::::::::::::::::::::::::::::::::::::::::::::
         :: total free energy        -160.321000021871 Eh   ::
         ::.................................................::
         :: total energy             -161.041990871873 Eh   ::
         :: zero point energy           0.804143886219 Eh   ::
         :: G(RRHO) w/o ZPVE           -0.083153036217 Eh   ::
         :: G(RRHO) contrib.            0.720990850002 Eh   ::
         :::::::::::::::::::::::::::::::::::::::::::::::::::::

           -------------------------------------------------
          | TOTAL ENERGY             -161.041990871873 Eh   |
          | TOTAL ENTHALPY           -160.183543219452 Eh   |
          | TOTAL FREE ENERGY        -160.321000021871 Eh   |
          | GRADIENT NORM               0.000057211779 Eh/α |
          | HOMO-LUMO GAP               0.004906639616 eV   |
           -------------------------------------------------

 * finished run on 2025/09/12 at 00:33:48.035
