   * xtb version 6.7.1 (edcfbbe) compiled by 'albert@albert-system' on 2024-07-22

   ID    Z sym.   atoms
    1    6 C      1, 3, 5-10, 12-17, 19-26, 28, 30
    2    7 N      2, 4, 11, 27, 29
    3    8 O      18
    4    1 H      31-47

          program call               : xtb data2507/toluene/1PXZP/1PXZP_toluene_T1_crest.xyz --gfn 2 --uhf 2 --gbsa toluene --ohess vtight --parallel 40 --molden --ceasefiles --namespace data2507/toluene/1PXZP/1PXZP_toluene_T1_finalOpt
      * Solvation model:               GBSA
        Solvent                        toluene
        Solvent mass                       9.2140E+01 g/mol
          :  Hamiltonian                  GFN2-xTB          :
 * total energy  :   -78.7709789 Eh     change       -0.6085074E-08 Eh
 * total energy  :   -78.7711184 Eh     change       -0.1395726E-03 Eh
 * total energy  :   -78.7711884 Eh     change       -0.7000579E-04 Eh
 * total energy  :   -78.7711923 Eh     change       -0.3862072E-05 Eh
 * total energy  :   -78.7711939 Eh     change       -0.1573297E-05 Eh
 * total energy  :   -78.7711944 Eh     change       -0.5146491E-06 Eh
 * total energy  :   -78.7711948 Eh     change       -0.4097777E-06 Eh
 * total energy  :   -78.7711952 Eh     change       -0.3696125E-06 Eh
 * total energy  :   -78.7711956 Eh     change       -0.4205465E-06 Eh
 * total energy  :   -78.7711960 Eh     change       -0.4248030E-06 Eh
 * total energy  :   -78.7712005 Eh     change       -0.4867695E-05 Eh
 * total energy  :   -78.7712010 Eh     change       -0.5208942E-06 Eh
 * total energy  :   -78.7712015 Eh     change       -0.4979732E-06 Eh
 * total energy  :   -78.7712019 Eh     change       -0.4156087E-06 Eh
 * total energy  :   -78.7712022 Eh     change       -0.2812676E-06 Eh
 * total energy  :   -78.7712025 Eh     change       -0.2907516E-06 Eh
 * total energy  :   -78.7712026 Eh     change       -0.1138807E-06 Eh
 * total energy  :   -78.7712028 Eh     change       -0.2327140E-06 Eh
 * total energy  :   -78.7712029 Eh     change       -0.7401107E-07 Eh
   *** GEOMETRY OPTIMIZATION CONVERGED AFTER 24 ITERATIONS ***

 final structure:
================
47
 xtb: 6.7.1 (edcfbbe)
C            7.63768850925861        0.59674809919469       -1.05107732903905
N            6.20419407917069        0.55332847850893       -0.94506590450127
C            5.29079941138733        1.12783817897303       -1.78547380328471
N            4.05072668597470        0.91054119930998       -1.41183536374893
C            4.12811782623567        0.16155253513917       -0.28677184177683
C            3.15873103607896       -0.39962463895081        0.60155387084785
C            1.75696766883827       -0.29238317084438        0.44724997783596
C            0.88297229355658       -0.91250663873092        1.37731747860312
C           -0.47469259857431       -0.81811276050172        1.24394215859272
C           -1.03224807954948       -0.09833810541856        0.17745095058245
N           -2.43796164596777       -0.00040409892626        0.04013117325807
C           -3.19381951073945       -1.12640761367809       -0.23796812610924
C           -2.61227781888676       -2.37839046614358       -0.44789780188817
C           -3.39927432471160       -3.48106794256265       -0.71748305287524
C           -4.77984618992165       -3.36188348288280       -0.79269448263371
C           -5.37514582637475       -2.12552363468833       -0.61297774503952
C           -4.59371846637064       -1.01220644193144       -0.34417555557179
O           -5.23363816599620        0.18412788425234       -0.20351250571116
C           -4.47598134819691        1.28956617572609        0.05089247104818
C           -5.13994246507649        2.49913897117036        0.18729463907058
C           -4.42786277590011        3.65116483568389        0.47163857849926
C           -3.05123917844629        3.58916040018223        0.63550702563481
C           -2.38044817683817        2.38920060101043        0.50049484730116
C           -3.07582958405549        1.21954267455399        0.18767909522202
C           -0.18651634915810        0.51996092531745       -0.75360375177247
C            1.17356059269775        0.42193931089171       -0.62757819970547
N            3.66579497642396       -1.10529112593957        1.65435385006246
C            4.94238327775711       -1.26139120372530        1.83146567575730
N            5.92731346423404       -0.77576721272477        1.06885190428475
C            5.48028417430120       -0.07565044119710        0.01775465263146
H            7.99371096719171        1.62565356378785       -0.96759241714434
H            8.05324125957913        0.00241343841850       -0.23952189613196
H            7.96009472184996        0.18393740051865       -2.00881382642962
H            5.57381797133048        1.69464697847171       -2.64900910941543
H            1.32713274242984       -1.45146395313959        2.20007670744223
H           -1.13066086350251       -1.28063253024570        1.96790562324263
H           -1.53931096268933       -2.47231014334930       -0.40193953475829
H           -2.92904957374582       -4.43917456434494       -0.87404374770537
H           -5.39116197704562       -4.22537637739214       -1.00069097571941
H           -6.44342006579198       -1.99677506808517       -0.68181997035254
H           -6.21183398962572        2.51067892470916        0.07137967336375
H           -4.94760234505720        4.59020244247936        0.57462297456270
H           -2.49367561720174        4.48116464372979        0.87428637198163
H           -1.31248426959648        2.34282901129324        0.64028460814159
H           -0.62088785800102        1.05914671279378       -1.58359249109469
H            1.82664189264728        0.88451836552648       -1.35139020629390
H            5.25408887137811       -1.83809513943976        2.69270878523629

          :  Hamiltonian                  GFN2-xTB          :
         :: gradient norm              0.000068613757 Eh/a0 ::
         :: HOMO-LUMO gap              0.496720887238 eV    ::
         :: SCC energy               -80.050742817382 Eh    ::
         :: -> dispersion             -0.060369533618 Eh    ::
         :: -> Gsolv                  -0.042245129694 Eh    ::
         :: repulsion energy           1.279539899737 Eh    ::

    * Orbital Energies and Occupations

         #    Occupation            Energy/Eh            Energy/eV
      -------------------------------------------------------------
         1        2.0000           -0.7564012             -20.5827
       ...           ...                  ...                  ...
        61        2.0000           -0.4331452             -11.7865
        62        2.0000           -0.4302984             -11.7090
        63        2.0000           -0.4246744             -11.5560
        64        2.0000           -0.4149416             -11.2911
        65        2.0000           -0.4110470             -11.1852
        66        2.0000           -0.4094441             -11.1415
        67        2.0000           -0.4060868             -11.0502
        68        2.0000           -0.4039748             -10.9927
        69        2.0000           -0.3876180             -10.5476
        70        2.0000           -0.3790733             -10.3151
        71        1.7806           -0.3607029              -9.8152
        72        1.2194           -0.3582915              -9.7496
        73        0.9999           -0.2776932              -7.5564 (HOMO)
        74        0.0001           -0.2594398              -7.0597 (LUMO)
        75                         -0.2465673              -6.7094
        76                         -0.2332166              -6.3461
        77                         -0.2250243              -6.1232
        78                         -0.2167471              -5.8980
        79                         -0.2148645              -5.8468
        80                         -0.2012758              -5.4770
        81                         -0.1855784              -5.0498
        82                         -0.1214927              -3.3060
        83                         -0.1121906              -3.0529
        84                         -0.0921675              -2.5080
       ...                                ...                  ...
       137                          0.6892072              18.7543
      -------------------------------------------------------------
                  HL-Gap            0.0182534 Eh            0.4967 eV

     #   Z          covCN         q      C6AA      α(0)
     1   6 C        3.688    -0.049    21.650     6.660
     2   7 N        2.824    -0.064    22.483     7.042
     3   6 C        3.164     0.077    25.955     8.326
     4   7 N        1.894    -0.313    28.972     7.980
     5   6 C        3.196     0.056    26.237     8.351
     6   6 C        2.935     0.054    26.785     8.488
     7   6 C        2.972    -0.010    28.262     8.720
     8   6 C        2.921    -0.044    29.085     8.844
     9   6 C        2.913    -0.043    29.065     8.841
    10   6 C        2.923     0.025    27.456     8.593
    11   7 N        2.751    -0.011    21.464     6.881
    12   6 C        2.926     0.046    26.966     8.516
    13   6 C        2.920    -0.048    29.191     8.860
    14   6 C        2.918    -0.029    28.714     8.787
    15   6 C        2.919    -0.028    28.694     8.784
    16   6 C        2.916    -0.051    29.270     8.872
    17   6 C        2.886     0.132    25.120     8.217
    18   8 O        1.710    -0.222    17.677     5.677
    19   6 C        2.886     0.132    25.122     8.217
    20   6 C        2.916    -0.051    29.269     8.872
    21   6 C        2.919    -0.028    28.695     8.784
    22   6 C        2.918    -0.029    28.713     8.787
    23   6 C        2.920    -0.048    29.193     8.860
    24   6 C        2.926     0.046    26.965     8.516
    25   6 C        2.914    -0.042    29.040     8.837
    26   6 C        2.919    -0.053    29.313     8.878
    27   7 N        1.841    -0.284    28.204     7.870
    28   6 C        2.891     0.146    24.822     8.168
    29   7 N        1.829    -0.336    29.582     8.060
    30   6 C        3.141     0.151    24.510     8.102
    31   1 H        0.924     0.066     2.127     2.281
    32   1 H        0.925     0.079     1.990     2.206
    33   1 H        0.924     0.067     2.124     2.279
    34   1 H        0.926     0.035     2.517     2.481
    35   1 H        0.926     0.039     2.458     2.452
    36   1 H        0.926     0.035     2.513     2.479
    37   1 H        0.926     0.058     2.221     2.330
    38   1 H        0.926     0.058     2.221     2.330
    39   1 H        0.926     0.061     2.183     2.311
    40   1 H        0.926     0.067     2.117     2.275
    41   1 H        0.926     0.067     2.116     2.275
    42   1 H        0.926     0.061     2.183     2.311
    43   1 H        0.926     0.058     2.221     2.330
    44   1 H        0.926     0.058     2.219     2.330
    45   1 H        0.926     0.034     2.533     2.489
    46   1 H        0.926     0.050     2.320     2.382
    47   1 H        0.925     0.022     2.701     2.570

molecular dipole:
                 x           y           z       tot (Debye)
 q only:       -3.379       0.514      -0.771
   full:       -2.889       0.573      -0.889       7.821

 projected vibrational frequencies (cm⁻¹)
eigval :       -0.00    -0.00    -0.00    -0.00     0.00     0.00
eigval :       16.94    24.20    29.90    54.81    57.73    72.85
eigval :       77.99    88.15   111.81   126.92   142.48   165.64
eigval :      188.78   222.31   228.61   240.58   255.39   273.35
eigval :      280.74   322.89   332.73   375.55   381.97   392.01
eigval :      410.40   415.24   431.62   444.85   471.07   487.83
eigval :      495.14   496.09   530.74   537.04   539.30   561.69
eigval :      579.60   583.27   586.07   607.17   623.49   650.98
eigval :      665.39   668.67   676.29   683.35   709.51   714.46
eigval :      724.15   776.33   779.08   796.49   797.58   832.07
eigval :      855.84   857.66   862.26   868.79   870.01   884.37
eigval :      893.45   902.69   904.72   908.13   912.39   920.02
eigval :      920.95   921.77   993.42  1029.97  1070.73  1080.02
eigval :     1082.87  1103.34  1113.47  1118.56  1119.70  1132.32
eigval :     1159.58  1166.37  1169.73  1175.71  1189.64  1199.22
eigval :     1208.42  1215.93  1234.30  1249.56  1251.21  1259.97
eigval :     1284.59  1296.56  1298.65  1317.23  1320.26  1329.91
eigval :     1342.63  1359.74  1389.81  1403.73  1411.17  1422.52
eigval :     1428.14  1431.21  1437.53  1448.49  1455.35  1461.62
eigval :     1462.65  1469.64  1477.38  1495.07  1547.62  1553.67
eigval :     1556.14  1565.33  1577.02  1582.50  2978.77  2991.58
eigval :     3037.34  3041.82  3067.75  3070.94  3093.92  3096.10
eigval :     3097.76  3098.09  3105.21  3105.76  3113.63  3114.01
eigval :     3116.91  3117.19  3171.75

   temp. (K)  partition function   enthalpy   heat capacity  entropy
                                   cal/mol     cal/K/mol   cal/K/mol   J/K/mol
 298.15  VIB  0.333E+10            13191.167     85.632     80.758
         ROT  0.220E+08              888.752      2.981     36.577
         INT  0.731E+17            14079.919     88.613    117.336
         TR   0.749E+28             1481.254      4.968     43.766
         TOT                       15561.1728    93.5811   161.1015   674.0485

       T/K    H(0)-H(T)+PV         H(T)/Eh          T*S/Eh         G(T)/Eh
   ------------------------------------------------------------------------
    298.15    0.247983E-01    0.373565E+00    0.765445E-01    0.297021E+00
   ------------------------------------------------------------------------

         :::::::::::::::::::::::::::::::::::::::::::::::::::::
         ::                  THERMODYNAMIC                  ::
         :::::::::::::::::::::::::::::::::::::::::::::::::::::
         :: total free energy         -78.474181942214 Eh   ::
         ::.................................................::
         :: total energy              -78.771202916435 Eh   ::
         :: zero point energy           0.348767172375 Eh   ::
         :: G(RRHO) w/o ZPVE           -0.051746198154 Eh   ::
         :: G(RRHO) contrib.            0.297020974221 Eh   ::
         :::::::::::::::::::::::::::::::::::::::::::::::::::::

           -------------------------------------------------
          | TOTAL ENERGY              -78.771202916435 Eh   |
          | TOTAL ENTHALPY            -78.397637436684 Eh   |
          | TOTAL FREE ENERGY         -78.474181942214 Eh   |
          | GRADIENT NORM               0.000072106118 Eh/α |
          | HOMO-LUMO GAP               0.496700074642 eV   |
           -------------------------------------------------

 * finished run on 2025/08/25 at 03:40:08.055
