   * xtb version 6.7.1 (edcfbbe) compiled by 'albert@albert-system' on 2024-07-22

   ID    Z sym.   atoms
    1    6 C      1, 3, 5-10, 12-17, 19-26, 28, 30
    2    7 N      2, 4, 11, 27, 29
    3    8 O      18
    4    1 H      31-47

          program call               : xtb data2507/toluene/1PXZP/1PXZP_toluene_S0_crest.xyz --gfn 2 --gbsa toluene --ohess vtight --parallel 40 --molden --ceasefiles --namespace data2507/toluene/1PXZP/1PXZP_toluene_S0_finalOpt
      * Solvation model:               GBSA
        Solvent                        toluene
        Solvent mass                       9.2140E+01 g/mol
          :  Hamiltonian                  GFN2-xTB          :
 * total energy  :   -78.8424011 Eh     change       -0.9323884E-09 Eh
 * total energy  :   -78.8424427 Eh     change       -0.4161205E-04 Eh
 * total energy  :   -78.8424579 Eh     change       -0.1522667E-04 Eh
 * total energy  :   -78.8424609 Eh     change       -0.2959743E-05 Eh
 * total energy  :   -78.8424623 Eh     change       -0.1393667E-05 Eh
 * total energy  :   -78.8424620 Eh     change        0.2800917E-06 Eh
 * total energy  :   -78.8424630 Eh     change       -0.9824828E-06 Eh
 * total energy  :   -78.8424630 Eh     change        0.2574851E-08 Eh
 * total energy  :   -78.8424637 Eh     change       -0.7508862E-06 Eh
 * total energy  :   -78.8424648 Eh     change       -0.1106983E-05 Eh
 * total energy  :   -78.8424688 Eh     change       -0.4949484E-06 Eh
 * total energy  :   -78.8424693 Eh     change       -0.5490081E-06 Eh
 * total energy  :   -78.8424701 Eh     change       -0.7785911E-06 Eh
 * total energy  :   -78.8424709 Eh     change       -0.7496392E-06 Eh
 * total energy  :   -78.8424714 Eh     change       -0.5259237E-06 Eh
 * total energy  :   -78.8424717 Eh     change       -0.3355244E-06 Eh
 * total energy  :   -78.8424720 Eh     change       -0.2525122E-06 Eh
 * total energy  :   -78.8424722 Eh     change       -0.2148603E-06 Eh
 * total energy  :   -78.8424722 Eh     change       -0.3900510E-08 Eh
   *** GEOMETRY OPTIMIZATION CONVERGED AFTER 22 ITERATIONS ***

 final structure:
================
47
 xtb: 6.7.1 (edcfbbe)
C            7.65222176683775       -0.71034441419708        0.94650789995138
N            6.21756054931197       -0.64070696690874        0.86062415048925
C            5.30104317266663       -1.27849591640166        1.64199735747890
N            4.06446550061749       -1.03025435690211        1.32964360189901
C            4.12860373135245       -0.16542710797556        0.26619708287373
C            3.18304337165345        0.48270482809779       -0.54100319213338
C            1.73959504588174        0.35307654376242       -0.39717632050990
C            0.88970419226979        1.03189821661468       -1.27551602170273
C           -0.47811066921683        0.91970942973080       -1.15508036328319
C           -1.02978309203504        0.12290213396248       -0.15172792796185
N           -2.42912733066263        0.00521695375809       -0.02893498445325
C           -3.05810449106289       -1.23321717408629       -0.19045281865994
C           -2.35563437143842       -2.38918613844156       -0.51037170260698
C           -3.01204690364079       -3.60041430666816       -0.66863137159381
C           -4.38262975350911       -3.67721419363369       -0.52265340509826
C           -5.10317143672228       -2.52687605656030       -0.23644503094897
C           -4.45283147762799       -1.31659953136672       -0.07947030227457
O           -5.24141121128785       -0.21758702109942        0.16901503925461
C           -4.60750968900595        0.99247798076581        0.32718626459633
C           -5.40952975836168        2.08634273203942        0.59661039685943
C           -4.84331845256563        3.33565538393729        0.80422092253618
C           -3.47064070719548        3.47500854525018        0.75746850958920
C           -2.66281554122336        2.38124859528978        0.48539448734385
C           -3.21546886702243        1.12930113274505        0.24178180048383
C           -0.18646954823972       -0.55568183995884        0.72704691480226
C            1.18305591243704       -0.44330630707265        0.60683916838843
N            3.64596395428205        1.27539422209931       -1.51605439257862
C            4.94433469635716        1.42495661681569       -1.69328680348555
N            5.93081575929063        0.87302777953471       -1.00660576713306
C            5.49072840458596        0.08345655511515       -0.03372155425438
H            7.99210122265741       -0.34023683936997        1.91505933525592
H            7.98848713211545       -1.74024171343962        0.81772153752159
H            8.06443524807754       -0.08911182203650        0.15346172695184
H            5.59169185323071       -1.92920172441505        2.44457204109538
H            1.32935048099847        1.63704989957408       -2.05261950634316
H           -1.13083946343782        1.43994808669364       -1.84037860656509
H           -1.28669827063940       -2.34179380943350       -0.64514133619601
H           -2.43831284183269       -4.48164503623926       -0.91133775996338
H           -4.89813768752568       -4.61732398481058       -0.63989076321807
H           -6.17709727851718       -2.54547182991319       -0.13623888940478
H           -6.47671978351730        1.93662792983207        0.64557248357530
H           -5.47714465072990        4.18350204410128        1.01104332751390
H           -3.01259540189934        4.43555574725431        0.93695262520987
H           -1.59118276490431        2.50157290823518        0.46833130134334
H           -0.61418133278348       -1.16426698150050        1.50992678435889
H            1.83504045249572       -0.96242822098151        1.29144895586886
H            5.23927694288573        2.08144044070317       -2.50189742237223

          :  Hamiltonian                  GFN2-xTB          :
         :: gradient norm              0.000039792307 Eh/a0 ::
         :: HOMO-LUMO gap              1.312065297045 eV    ::
         :: SCC energy               -80.131069606435 Eh    ::
         :: -> dispersion             -0.060319464668 Eh    ::
         :: -> Gsolv                  -0.035886219028 Eh    ::
         :: repulsion energy           1.288597419418 Eh    ::

    * Orbital Energies and Occupations

         #    Occupation            Energy/Eh            Energy/eV
      -------------------------------------------------------------
         1        2.0000           -0.7303418             -19.8736
       ...           ...                  ...                  ...
        60        2.0000           -0.4357566             -11.8575
        61        2.0000           -0.4339164             -11.8075
        62        2.0000           -0.4319661             -11.7544
        63        2.0000           -0.4275847             -11.6352
        64        2.0000           -0.4265018             -11.6057
        65        2.0000           -0.4193002             -11.4097
        66        2.0000           -0.4164643             -11.3326
        67        2.0000           -0.4131943             -11.2436
        68        2.0000           -0.4064819             -11.0609
        69        2.0000           -0.4060057             -11.0480
        70        2.0000           -0.3909569             -10.6385
        71        2.0000           -0.3788533             -10.3091
        72        2.0000           -0.3447462              -9.3810 (HOMO)
        73                         -0.2965287              -8.0690 (LUMO)
        74                         -0.2493216              -6.7844
        75                         -0.2394791              -6.5166
        76                         -0.2373953              -6.4599
        77                         -0.2303387              -6.2678
        78                         -0.2287644              -6.2250
        79                         -0.2158557              -5.8737
        80                         -0.2079980              -5.6599
        81                         -0.1956265              -5.3233
        82                         -0.1311459              -3.5687
        83                         -0.1036370              -2.8201
       ...                                ...                  ...
       137                          0.6747503              18.3609
      -------------------------------------------------------------
                  HL-Gap            0.0482175 Eh            1.3121 eV

     #   Z          covCN         q      C6AA      α(0)
     1   6 C        3.688    -0.058    21.815     6.685
     2   7 N        2.815    -0.047    22.143     6.989
     3   6 C        3.185     0.103    25.299     8.208
     4   7 N        1.884    -0.298    28.575     7.924
     5   6 C        3.202     0.046    26.420     8.374
     6   6 C        2.949     0.102    25.737     8.321
     7   6 C        2.977    -0.003    28.089     8.694
     8   6 C        2.923    -0.026    28.647     8.777
     9   6 C        2.919    -0.040    28.989     8.829
    10   6 C        2.920     0.070    26.441     8.432
    11   7 N        2.750    -0.068    22.557     7.054
    12   6 C        2.921     0.042    27.070     8.532
    13   6 C        2.924    -0.060    29.503     8.907
    14   6 C        2.919    -0.039    28.964     8.825
    15   6 C        2.919    -0.041    29.007     8.832
    16   6 C        2.919    -0.058    29.433     8.897
    17   6 C        2.883     0.123    25.304     8.247
    18   8 O        1.708    -0.270    18.471     5.803
    19   6 C        2.883     0.123    25.303     8.247
    20   6 C        2.919    -0.058    29.433     8.897
    21   6 C        2.919    -0.040    29.005     8.832
    22   6 C        2.919    -0.039    28.963     8.825
    23   6 C        2.924    -0.060    29.496     8.906
    24   6 C        2.921     0.041    27.071     8.532
    25   6 C        2.920    -0.040    28.988     8.829
    26   6 C        2.921    -0.034    28.854     8.809
    27   7 N        1.845    -0.290    28.370     7.894
    28   6 C        2.936     0.150    24.736     8.157
    29   7 N        1.829    -0.305    28.751     7.945
    30   6 C        3.180     0.149    24.388     8.062
    31   1 H        0.924     0.077     2.010     2.217
    32   1 H        0.924     0.077     2.009     2.216
    33   1 H        0.925     0.089     1.894     2.152
    34   1 H        0.926     0.056     2.242     2.341
    35   1 H        0.926     0.063     2.164     2.300
    36   1 H        0.926     0.052     2.292     2.368
    37   1 H        0.926     0.040     2.447     2.446
    38   1 H        0.926     0.042     2.420     2.433
    39   1 H        0.926     0.043     2.405     2.425
    40   1 H        0.926     0.049     2.330     2.387
    41   1 H        0.926     0.049     2.330     2.387
    42   1 H        0.926     0.043     2.404     2.425
    43   1 H        0.926     0.042     2.419     2.432
    44   1 H        0.926     0.040     2.450     2.448
    45   1 H        0.926     0.052     2.292     2.367
    46   1 H        0.926     0.069     2.097     2.264
    47   1 H        0.925     0.039     2.457     2.451

molecular dipole:
                 x           y           z       tot (Debye)
 q only:        1.140      -0.506       0.638
   full:        1.584      -0.615       0.775       4.748

 projected vibrational frequencies (cm⁻¹)
eigval :       -0.00    -0.00    -0.00     0.00     0.00     0.00
eigval :       15.94    20.92    30.70    48.06    58.50    63.62
eigval :       87.97    93.20   115.89   130.12   145.20   180.32
eigval :      188.36   223.01   235.57   247.16   258.81   271.84
eigval :      274.64   318.42   334.61   371.78   375.45   390.52
eigval :      413.77   419.59   431.14   447.43   473.36   509.06
eigval :      509.95   522.64   530.54   551.92   557.56   584.63
eigval :      587.88   612.05   614.76   630.50   632.52   661.40
eigval :      664.66   672.34   697.93   718.66   747.58   749.55
eigval :      778.24   779.58   798.37   828.03   836.25   853.25
eigval :      863.95   866.54   877.10   887.08   893.37   897.66
eigval :      898.70   911.37   913.65   915.99   916.29   928.79
eigval :      935.17   943.43  1013.88  1039.01  1089.08  1090.81
eigval :     1097.62  1099.35  1105.69  1117.51  1127.06  1145.18
eigval :     1167.97  1172.31  1179.50  1185.84  1193.27  1198.36
eigval :     1214.44  1224.58  1241.37  1258.90  1259.98  1282.28
eigval :     1292.17  1304.03  1308.09  1314.82  1327.37  1333.70
eigval :     1343.30  1352.97  1388.91  1404.16  1421.09  1429.04
eigval :     1439.18  1440.91  1449.11  1456.66  1475.84  1478.80
eigval :     1484.25  1501.50  1548.27  1561.06  1566.12  1571.11
eigval :     1578.21  1586.52  1590.49  1601.04  2992.00  3001.95
eigval :     3040.76  3055.31  3086.66  3087.65  3087.97  3088.81
eigval :     3096.26  3096.91  3104.84  3105.33  3109.00  3109.22
eigval :     3110.11  3111.81  3158.37

   temp. (K)  partition function   enthalpy   heat capacity  entropy
                                   cal/mol     cal/K/mol   cal/K/mol   J/K/mol
 298.15  VIB  0.327E+10            12976.717     83.945     79.547
         ROT  0.220E+08              888.752      2.981     36.581
         INT  0.721E+17            13865.469     86.926    116.128
         TR   0.749E+28             1481.254      4.968     43.766
         TOT                       15346.7234    91.8941   159.8939   668.9961

       T/K    H(0)-H(T)+PV         H(T)/Eh          T*S/Eh         G(T)/Eh
   ------------------------------------------------------------------------
    298.15    0.244566E-01    0.376298E+00    0.759708E-01    0.300327E+00
   ------------------------------------------------------------------------

         :::::::::::::::::::::::::::::::::::::::::::::::::::::
         ::                  THERMODYNAMIC                  ::
         :::::::::::::::::::::::::::::::::::::::::::::::::::::
         :: total free energy         -78.542144885313 Eh   ::
         ::.................................................::
         :: total energy              -78.842472187406 Eh   ::
         :: zero point energy           0.351841495641 Eh   ::
         :: G(RRHO) w/o ZPVE           -0.051514193548 Eh   ::
         :: G(RRHO) contrib.            0.300327302093 Eh   ::
         :::::::::::::::::::::::::::::::::::::::::::::::::::::

           -------------------------------------------------
          | TOTAL ENERGY              -78.842472187406 Eh   |
          | TOTAL ENTHALPY            -78.466174131300 Eh   |
          | TOTAL FREE ENERGY         -78.542144885313 Eh   |
          | GRADIENT NORM               0.000039791537 Eh/α |
          | HOMO-LUMO GAP               1.312063988390 eV   |
           -------------------------------------------------

 * finished run on 2025/08/25 at 03:38:40.666
