   * xtb version 6.7.1 (edcfbbe) compiled by 'albert@albert-system' on 2024-07-22

   ID    Z sym.   atoms
    1    6 C      1, 3, 5-10, 12-17, 19-26, 28, 30
    2    7 N      2, 4, 11, 27, 29
    3    8 O      18
    4    1 H      31-47

          program call               : xtb data2507/toluene/1PXZP/1PXZP_toluene_S0_finalOpt.xtbopt.xyz --gfn 2 --uhf 2 --gbsa toluene --ohess vtight --parallel 40 --molden --ceasefiles --namespace data2507/toluene/1PXZP/1PXZP_toluene_T1_preOpt
      * Solvation model:               GBSA
        Solvent                        toluene
        Solvent mass                       9.2140E+01 g/mol
          :  Hamiltonian                  GFN2-xTB          :
 * total energy  :   -78.7661861 Eh     change       -0.1264675E-07 Eh
 * total energy  :   -78.7701218 Eh     change       -0.3935716E-02 Eh
 * total energy  :   -78.7710713 Eh     change       -0.9494208E-03 Eh
 * total energy  :   -78.7711054 Eh     change       -0.3409267E-04 Eh
 * total energy  :   -78.7711219 Eh     change       -0.1649749E-04 Eh
 * total energy  :   -78.7711284 Eh     change       -0.6524651E-05 Eh
 * total energy  :   -78.7711371 Eh     change       -0.8721693E-05 Eh
 * total energy  :   -78.7711447 Eh     change       -0.7578559E-05 Eh
 * total energy  :   -78.7711506 Eh     change       -0.5958381E-05 Eh
 * total energy  :   -78.7711564 Eh     change       -0.5726739E-05 Eh
 * total energy  :   -78.7711854 Eh     change       -0.3788247E-05 Eh
 * total energy  :   -78.7711890 Eh     change       -0.3676957E-05 Eh
 * total energy  :   -78.7711934 Eh     change       -0.4305180E-05 Eh
 * total energy  :   -78.7711977 Eh     change       -0.4363935E-05 Eh
 * total energy  :   -78.7712006 Eh     change       -0.2833127E-05 Eh
 * total energy  :   -78.7712015 Eh     change       -0.9840575E-06 Eh
 * total energy  :   -78.7712020 Eh     change       -0.4574421E-06 Eh
 * total energy  :   -78.7712020 Eh     change        0.3993959E-07 Eh
 * total energy  :   -78.7712020 Eh     change       -0.4039411E-07 Eh
   *** GEOMETRY OPTIMIZATION CONVERGED AFTER 23 ITERATIONS ***

 final structure:
================
47
 xtb: 6.7.1 (edcfbbe)
C            7.63971831025181       -0.64800567148797        1.00123033123960
N            6.20587755637150       -0.58873090640869        0.90806389709432
C            5.29415468357867       -1.17812921115807        1.74002078348540
N            4.05311937461668       -0.94208344167777        1.38120760966109
C            4.12818835701929       -0.16446874709458        0.27562571991032
C            3.15677331081077        0.42431877888896       -0.59242909164442
C            1.75540489411002        0.31589525799135       -0.43583163805708
C            0.87917953586450        0.96401579810097       -1.34456074374229
C           -0.47818491380011        0.86378656065259       -1.21231362535229
C           -1.03327881764688        0.11027378171628       -0.16799306027080
N           -2.43849604416732        0.00138173993005       -0.03455746217817
C           -3.06950220571002       -1.21765932089909       -0.21640094506670
C           -2.36773681892050       -2.37430117405616       -0.56180087934513
C           -3.03171679794802       -3.57369854932618       -0.73090396676851
C           -4.40792604481848       -3.64814608050344       -0.56876949153169
C           -5.12641217887461       -2.50839446003566       -0.25289730047166
C           -4.46932380612528       -1.29938988352389       -0.08245978863917
O           -5.23349357276164       -0.20559382089994        0.20112262873608
C           -4.60067929742138        0.99051685148759        0.37251006546755
C           -5.38905316325788        2.09235886499960        0.66703827867607
C           -4.80129738651656        3.32717589756917        0.87928640298632
C           -3.42120753965673        3.45578164971572        0.81108473678285
C           -2.62734137155522        2.36466865550834        0.51579633901491
C           -3.20125183485557        1.11528037962643        0.27195801543461
C           -0.18529879202789       -0.53342836674092        0.74366952811745
C            1.17443930921298       -0.42949286358374        0.61905160342214
N            3.66156146537844        1.15482460527149       -1.62930023419135
C            4.93800431627496        1.30739078537750       -1.81067850247080
N            5.92464805495039        0.79524707440132       -1.06787210357316
C            5.47994697554123        0.07115220102446       -0.03215725772066
H            7.97495498291033       -0.24888920020562        1.96046143507672
H            7.98363678189200       -1.67978040864312        0.90377881752405
H            8.05460906936704       -0.04929906754584        0.19248431699657
H            5.57913678986245       -1.76959114161830        2.58615326439574
H            1.32142414868834        1.52820646867233       -2.15129062637238
H           -1.13561439746637        1.34734132615377       -1.92103780710105
H           -1.30009882227100       -2.31822418295639       -0.70044126283560
H           -2.46907761449319       -4.45533483067232       -0.99492127209862
H           -4.92238641097274       -4.58683935270517       -0.69804176425993
H           -6.19824406623266       -2.52911552719510       -0.13769503209817
H           -6.45671841530910        1.95575398125729        0.72999580031547
H           -5.41811801375899        4.18171005512566        1.10701631582380
H           -2.95679404364234        4.41215841778890        0.99348693395076
H           -1.55478254719621        2.46559212059487        0.47565507600714
H           -0.61774988742200       -1.09755135681987        1.55796056104444
H            1.82911049401829       -0.91233813922455        1.32807463396644
H            5.24790128500799        1.90468209490988       -2.65840037317008

          :  Hamiltonian                  GFN2-xTB          :
         :: gradient norm              0.000147782436 Eh/a0 ::
         :: HOMO-LUMO gap              0.496813833876 eV    ::
         :: SCC energy               -80.050675977603 Eh    ::
         :: -> dispersion             -0.060369947169 Eh    ::
         :: -> Gsolv                  -0.042244303703 Eh    ::
         :: repulsion energy           1.279473981097 Eh    ::

    * Orbital Energies and Occupations

         #    Occupation            Energy/Eh            Energy/eV
      -------------------------------------------------------------
         1        2.0000           -0.7563926             -20.5825
       ...           ...                  ...                  ...
        61        2.0000           -0.4331567             -11.7868
        62        2.0000           -0.4302760             -11.7084
        63        2.0000           -0.4246811             -11.5562
        64        2.0000           -0.4149562             -11.2915
        65        2.0000           -0.4110491             -11.1852
        66        2.0000           -0.4094398             -11.1414
        67        2.0000           -0.4060606             -11.0495
        68        2.0000           -0.4039795             -10.9928
        69        2.0000           -0.3876105             -10.5474
        70        2.0000           -0.3790975             -10.3158
        71        1.7807           -0.3606832              -9.8147
        72        1.2193           -0.3582708              -9.7490
        73        0.9999           -0.2776996              -7.5566 (HOMO)
        74        0.0001           -0.2594422              -7.0598 (LUMO)
        75                         -0.2465592              -6.7092
        76                         -0.2332256              -6.3464
        77                         -0.2250222              -6.1232
        78                         -0.2167589              -5.8983
        79                         -0.2148766              -5.8471
        80                         -0.2012563              -5.4765
        81                         -0.1855677              -5.0496
        82                         -0.1214963              -3.3061
        83                         -0.1122104              -3.0534
        84                         -0.0921617              -2.5078
       ...                                ...                  ...
       137                          0.6891705              18.7533
      -------------------------------------------------------------
                  HL-Gap            0.0182574 Eh            0.4968 eV

     #   Z          covCN         q      C6AA      α(0)
     1   6 C        3.688    -0.049    21.650     6.660
     2   7 N        2.824    -0.064    22.483     7.042
     3   6 C        3.164     0.077    25.955     8.326
     4   7 N        1.894    -0.313    28.972     7.980
     5   6 C        3.196     0.056    26.237     8.351
     6   6 C        2.935     0.054    26.784     8.488
     7   6 C        2.972    -0.010    28.261     8.720
     8   6 C        2.921    -0.044    29.085     8.844
     9   6 C        2.913    -0.043    29.065     8.840
    10   6 C        2.923     0.025    27.455     8.593
    11   7 N        2.751    -0.011    21.463     6.881
    12   6 C        2.926     0.046    26.966     8.516
    13   6 C        2.920    -0.048    29.193     8.860
    14   6 C        2.918    -0.029    28.713     8.787
    15   6 C        2.919    -0.028    28.695     8.784
    16   6 C        2.916    -0.051    29.270     8.872
    17   6 C        2.886     0.132    25.121     8.217
    18   8 O        1.710    -0.222    17.677     5.677
    19   6 C        2.886     0.132    25.121     8.217
    20   6 C        2.916    -0.051    29.270     8.872
    21   6 C        2.919    -0.028    28.694     8.784
    22   6 C        2.918    -0.029    28.714     8.787
    23   6 C        2.920    -0.048    29.191     8.860
    24   6 C        2.926     0.046    26.966     8.516
    25   6 C        2.914    -0.042    29.040     8.837
    26   6 C        2.919    -0.053    29.313     8.878
    27   7 N        1.841    -0.284    28.206     7.871
    28   6 C        2.891     0.146    24.822     8.168
    29   7 N        1.829    -0.337    29.583     8.060
    30   6 C        3.141     0.151    24.510     8.101
    31   1 H        0.924     0.066     2.125     2.280
    32   1 H        0.924     0.066     2.126     2.280
    33   1 H        0.925     0.079     1.990     2.206
    34   1 H        0.926     0.035     2.517     2.481
    35   1 H        0.926     0.039     2.457     2.451
    36   1 H        0.926     0.035     2.512     2.479
    37   1 H        0.926     0.058     2.219     2.330
    38   1 H        0.926     0.058     2.221     2.331
    39   1 H        0.926     0.061     2.183     2.311
    40   1 H        0.926     0.067     2.116     2.275
    41   1 H        0.926     0.067     2.117     2.275
    42   1 H        0.926     0.061     2.184     2.311
    43   1 H        0.926     0.058     2.221     2.330
    44   1 H        0.926     0.058     2.220     2.330
    45   1 H        0.926     0.034     2.533     2.489
    46   1 H        0.926     0.050     2.319     2.382
    47   1 H        0.925     0.022     2.701     2.570

molecular dipole:
                 x           y           z       tot (Debye)
 q only:       -3.378      -0.548       0.753
   full:       -2.888      -0.611       0.868       7.820

 projected vibrational frequencies (cm⁻¹)
eigval :       -0.00    -0.00    -0.00     0.00     0.00     0.00
eigval :       17.05    24.61    30.12    55.34    57.73    71.04
eigval :       88.04    96.29   112.34   126.16   142.37   165.19
eigval :      189.22   222.28   228.30   240.81   255.35   273.85
eigval :      279.81   323.04   332.20   375.29   381.17   392.18
eigval :      410.34   415.07   432.61   444.68   472.08   487.87
eigval :      495.10   495.99   530.94   537.04   539.38   562.03
eigval :      579.33   583.22   585.91   607.06   623.47   649.68
eigval :      665.76   669.24   676.62   683.57   709.51   712.77
eigval :      724.32   775.39   778.04   797.54   797.88   834.29
eigval :      855.80   858.12   862.66   868.63   869.93   884.30
eigval :      895.36   902.90   904.53   910.39   913.05   918.53
eigval :      919.74   921.07   993.31  1030.03  1070.71  1080.08
eigval :     1082.84  1099.56  1112.82  1118.20  1119.59  1132.12
eigval :     1159.42  1165.52  1168.70  1175.16  1189.26  1199.14
eigval :     1208.19  1215.79  1233.93  1249.18  1251.02  1259.86
eigval :     1284.63  1296.18  1298.68  1317.21  1320.41  1330.00
eigval :     1342.54  1359.52  1387.29  1403.40  1410.76  1422.44
eigval :     1428.09  1431.25  1437.17  1448.53  1455.00  1461.75
eigval :     1463.02  1469.52  1477.32  1495.07  1547.41  1553.55
eigval :     1556.02  1565.16  1576.94  1582.52  2978.95  2991.27
eigval :     3036.57  3042.25  3068.12  3071.13  3094.04  3096.40
eigval :     3097.01  3097.81  3104.86  3105.99  3113.66  3114.11
eigval :     3116.74  3117.22  3171.82

   temp. (K)  partition function   enthalpy   heat capacity  entropy
                                   cal/mol     cal/K/mol   cal/K/mol   J/K/mol
 298.15  VIB  0.277E+10            13170.724     85.703     80.444
         ROT  0.220E+08              888.752      2.981     36.577
         INT  0.610E+17            14059.476     88.684    117.021
         TR   0.749E+28             1481.254      4.968     43.766
         TOT                       15540.7301    93.6524   160.7870   672.7329

       T/K    H(0)-H(T)+PV         H(T)/Eh          T*S/Eh         G(T)/Eh
   ------------------------------------------------------------------------
    298.15    0.247657E-01    0.373543E+00    0.763951E-01    0.297147E+00
   ------------------------------------------------------------------------

         :::::::::::::::::::::::::::::::::::::::::::::::::::::
         ::                  THERMODYNAMIC                  ::
         :::::::::::::::::::::::::::::::::::::::::::::::::::::
         :: total free energy         -78.474054546083 Eh   ::
         ::.................................................::
         :: total energy              -78.771201996375 Eh   ::
         :: zero point energy           0.348776821848 Eh   ::
         :: G(RRHO) w/o ZPVE           -0.051629371556 Eh   ::
         :: G(RRHO) contrib.            0.297147450292 Eh   ::
         :::::::::::::::::::::::::::::::::::::::::::::::::::::

           -------------------------------------------------
          | TOTAL ENERGY              -78.771201996375 Eh   |
          | TOTAL ENTHALPY            -78.397659444649 Eh   |
          | TOTAL FREE ENERGY         -78.474054546083 Eh   |
          | GRADIENT NORM               0.000148053996 Eh/α |
          | HOMO-LUMO GAP               0.496809754922 eV   |
           -------------------------------------------------

 * finished run on 2025/08/25 at 03:38:42.832
