   * xtb version 6.7.1 (edcfbbe) compiled by 'albert@albert-system' on 2024-07-22

   ID    Z sym.   atoms
    1    6 C      1, 3, 5-10, 12-17, 19-26, 28, 30
    2    7 N      2, 4, 11, 27, 29
    3    8 O      18
    4    1 H      31-47

          program call               : xtb data2507/toluene/1PXZP/1PXZP.xyz --gfn 2 --gbsa toluene --ohess vtight --parallel 40 --molden --ceasefiles --namespace data2507/toluene/1PXZP/1PXZP_toluene_S0_preOpt
      * Solvation model:               GBSA
        Solvent                        toluene
        Solvent mass                       9.2140E+01 g/mol
          :  Hamiltonian                  GFN2-xTB          :
 * total energy  :   -78.8272614 Eh     change       -0.1168274E-08 Eh
 * total energy  :   -78.8369101 Eh     change       -0.9648698E-02 Eh
 * total energy  :   -78.8395618 Eh     change       -0.2651615E-02 Eh
 * total energy  :   -78.8402175 Eh     change       -0.6557498E-03 Eh
 * total energy  :   -78.8406119 Eh     change       -0.3944254E-03 Eh
 * total energy  :   -78.8407549 Eh     change       -0.1429820E-03 Eh
 * total energy  :   -78.8408391 Eh     change       -0.8417029E-04 Eh
 * total energy  :   -78.8409197 Eh     change       -0.8058850E-04 Eh
 * total energy  :   -78.8410240 Eh     change       -0.1042764E-03 Eh
 * total energy  :   -78.8411524 Eh     change       -0.1284063E-03 Eh
 * total energy  :   -78.8425026 Eh     change       -0.7572633E-06 Eh
 * total energy  :   -78.8425061 Eh     change       -0.3498569E-05 Eh
 * total energy  :   -78.8425066 Eh     change       -0.5459408E-06 Eh
 * total energy  :   -78.8425075 Eh     change       -0.8729167E-06 Eh
 * total energy  :   -78.8425084 Eh     change       -0.9678483E-06 Eh
 * total energy  :   -78.8425091 Eh     change       -0.6905144E-06 Eh
 * total energy  :   -78.8425096 Eh     change       -0.4369738E-06 Eh
 * total energy  :   -78.8425098 Eh     change       -0.1884331E-06 Eh
 * total energy  :   -78.8425098 Eh     change        0.3940670E-10 Eh
   *** GEOMETRY OPTIMIZATION CONVERGED AFTER 91 ITERATIONS ***

 final structure:
================
47
 xtb: 6.7.1 (edcfbbe)
C            7.60182913215603        0.45840787831876       -0.81706671225877
N            6.16509088791245        0.42780199606671       -0.74427393294459
C            5.27236991448872        1.03994834240423       -1.57243159409514
N            4.02700583255274        0.84023415451587       -1.26025278580121
C            4.05913819082936        0.03889935072395       -0.14676274857349
C            3.08995276245046       -0.53970630989751        0.68489102765315
C            1.65149720205685       -0.38917116356047        0.51377159420523
C            1.12477658754900        0.33661408883616       -0.55770399240283
C           -0.24025053202924        0.46595651236065       -0.70631774015090
C           -1.10885076738278       -0.12597931479050        0.20980458991407
N           -2.50335458700025        0.00711227962147        0.05290036649634
C           -3.30856967770425       -1.11716478397729       -0.15393826629167
C           -2.78408035485008       -2.40035616986706       -0.25669562650472
C           -3.61170953175202       -3.49293872818977       -0.46724524524747
C           -4.97627402337304       -3.32321015965666       -0.58986504383746
C           -5.51288851202008       -2.04568662113615       -0.52347872536411
C           -4.69105416688379       -0.95314387458307       -0.31564189849082
O           -5.29592310204894        0.28189822487121       -0.29662402420312
C           -4.49009708867890        1.37738998276427       -0.09267955989863
C           -5.11256157788803        2.61175994992688       -0.05799594667783
C           -4.37394229482583        3.76198571952939        0.17840924437856
C           -3.01459045941932        3.66257611209299        0.39780646592568
C           -2.38595908284762        2.42709793701148        0.36138543226167
C           -3.10524193473005        1.26857737937508        0.09201956262414
C           -0.58719096687568       -0.84968234700396        1.28204157834760
C            0.77650701557345       -0.97906802391959        1.43071679094043
N            3.52343941757070       -1.28477792204583        1.70967282598503
C            4.81592538827110       -1.45439289090158        1.91038668628925
N            5.82241394133963       -0.96700350124657        1.20423886323465
C            5.41167930356338       -0.22419240492628        0.18293477966265
H            7.93996975654292        0.06536757756624       -1.77686679639165
H            7.96519527945518        1.48054078119832       -0.70007437074067
H            7.99022257725828       -0.16098962086917       -0.01077640887293
H            5.58695349337022        1.63466814611255       -2.40871163376507
H            1.79645053387748        0.78766976187109       -1.27093258288615
H           -0.64551279978145        1.02051057656465       -1.53971132948625
H           -1.71842454329044       -2.54714828792688       -0.18003954079878
H           -3.17513994992520       -4.47737022652785       -0.53747969791341
H           -5.62548682963264       -4.16958348820799       -0.74957658776539
H           -6.57168770047564       -1.87291642362955       -0.63658384234960
H           -6.17952510245425        2.64930321898492       -0.21261964430937
H           -4.86770077844405        4.72067087529920        0.20066176514608
H           -2.42852338504595        4.54494468325402        0.60427580876502
H           -1.32615708146143        2.36295571725819        0.55066898757657
H           -1.25971926712307       -1.29895545395164        1.99777490424217
H            1.19343490851773       -1.52943208500738        2.25936079011428
H            5.08656397261032       -2.07002044470463        2.75862421426060

          :  Hamiltonian                  GFN2-xTB          :
         :: gradient norm              0.000179174900 Eh/a0 ::
         :: HOMO-LUMO gap              1.312687975665 eV    ::
         :: SCC energy               -80.131174144363 Eh    ::
         :: -> dispersion             -0.060321729731 Eh    ::
         :: -> Gsolv                  -0.035922300511 Eh    ::
         :: repulsion energy           1.288664379625 Eh    ::

    * Orbital Energies and Occupations

         #    Occupation            Energy/Eh            Energy/eV
      -------------------------------------------------------------
         1        2.0000           -0.7303369             -19.8735
       ...           ...                  ...                  ...
        60        2.0000           -0.4357483             -11.8573
        61        2.0000           -0.4339176             -11.8075
        62        2.0000           -0.4319561             -11.7541
        63        2.0000           -0.4275603             -11.6345
        64        2.0000           -0.4265203             -11.6062
        65        2.0000           -0.4193002             -11.4097
        66        2.0000           -0.4164641             -11.3326
        67        2.0000           -0.4131978             -11.2437
        68        2.0000           -0.4064873             -11.0611
        69        2.0000           -0.4060013             -11.0479
        70        2.0000           -0.3909563             -10.6385
        71        2.0000           -0.3788470             -10.3090
        72        2.0000           -0.3447423              -9.3809 (HOMO)
        73                         -0.2965020              -8.0682 (LUMO)
        74                         -0.2493191              -6.7843
        75                         -0.2394843              -6.5167
        76                         -0.2373885              -6.4597
        77                         -0.2303363              -6.2678
        78                         -0.2287751              -6.2253
        79                         -0.2158531              -5.8737
        80                         -0.2079927              -5.6598
        81                         -0.1956130              -5.3229
        82                         -0.1311249              -3.5681
        83                         -0.1036408              -2.8202
       ...                                ...                  ...
       137                          0.6746841              18.3591
      -------------------------------------------------------------
                  HL-Gap            0.0482403 Eh            1.3127 eV

     #   Z          covCN         q      C6AA      α(0)
     1   6 C        3.688    -0.058    21.815     6.685
     2   7 N        2.815    -0.047    22.143     6.989
     3   6 C        3.185     0.103    25.299     8.208
     4   7 N        1.884    -0.298    28.576     7.925
     5   6 C        3.202     0.046    26.421     8.375
     6   6 C        2.949     0.102    25.737     8.321
     7   6 C        2.977    -0.003    28.089     8.694
     8   6 C        2.921    -0.034    28.853     8.809
     9   6 C        2.920    -0.040    28.985     8.829
    10   6 C        2.920     0.070    26.442     8.433
    11   7 N        2.750    -0.068    22.556     7.054
    12   6 C        2.921     0.042    27.070     8.532
    13   6 C        2.924    -0.060    29.502     8.907
    14   6 C        2.919    -0.039    28.963     8.825
    15   6 C        2.919    -0.041    29.006     8.832
    16   6 C        2.919    -0.058    29.432     8.897
    17   6 C        2.883     0.123    25.304     8.247
    18   8 O        1.708    -0.270    18.471     5.803
    19   6 C        2.883     0.123    25.303     8.247
    20   6 C        2.919    -0.058    29.434     8.897
    21   6 C        2.919    -0.040    29.006     8.832
    22   6 C        2.919    -0.039    28.964     8.825
    23   6 C        2.924    -0.060    29.498     8.907
    24   6 C        2.921     0.041    27.071     8.532
    25   6 C        2.919    -0.040    28.992     8.830
    26   6 C        2.923    -0.026    28.647     8.777
    27   7 N        1.845    -0.290    28.370     7.894
    28   6 C        2.936     0.150    24.736     8.157
    29   7 N        1.829    -0.305    28.751     7.945
    30   6 C        3.180     0.149    24.387     8.062
    31   1 H        0.924     0.077     2.008     2.216
    32   1 H        0.924     0.077     2.011     2.218
    33   1 H        0.925     0.088     1.894     2.152
    34   1 H        0.926     0.056     2.242     2.341
    35   1 H        0.926     0.069     2.098     2.265
    36   1 H        0.926     0.052     2.297     2.370
    37   1 H        0.926     0.040     2.445     2.445
    38   1 H        0.926     0.042     2.419     2.432
    39   1 H        0.926     0.043     2.405     2.425
    40   1 H        0.926     0.049     2.331     2.387
    41   1 H        0.926     0.049     2.330     2.387
    42   1 H        0.926     0.043     2.404     2.425
    43   1 H        0.926     0.042     2.420     2.433
    44   1 H        0.926     0.040     2.451     2.448
    45   1 H        0.926     0.053     2.287     2.365
    46   1 H        0.926     0.063     2.164     2.300
    47   1 H        0.925     0.039     2.457     2.451

molecular dipole:
                 x           y           z       tot (Debye)
 q only:        1.156       0.437      -0.631
   full:        1.604       0.531      -0.772       4.721

 projected vibrational frequencies (cm⁻¹)
eigval :       -0.00    -0.00    -0.00     0.00     0.00     0.00
eigval :       13.72    19.70    25.54    47.22    58.41    61.27
eigval :       88.18    96.51   115.49   129.56   145.75   179.65
eigval :      188.48   221.84   236.04   247.34   258.74   271.64
eigval :      275.17   319.01   335.21   370.93   374.06   390.99
eigval :      414.60   419.46   431.93   447.32   472.29   507.90
eigval :      509.05   521.38   530.35   551.14   557.51   584.35
eigval :      587.92   612.15   615.65   630.09   632.63   658.14
eigval :      660.60   672.02   696.93   718.96   747.73   749.96
eigval :      777.18   778.39   798.51   825.27   826.66   853.37
eigval :      863.03   865.99   875.29   887.11   889.94   897.18
eigval :      898.18   911.35   912.50   914.71   915.94   927.90
eigval :      933.59   943.57  1013.89  1037.96  1090.05  1091.50
eigval :     1097.33  1099.38  1105.76  1117.71  1128.30  1144.70
eigval :     1167.66  1173.05  1180.30  1186.43  1193.83  1198.40
eigval :     1214.35  1224.70  1241.56  1259.50  1260.11  1283.01
eigval :     1292.55  1303.88  1307.91  1315.31  1327.31  1333.77
eigval :     1343.31  1352.79  1387.55  1404.16  1420.93  1429.24
eigval :     1439.24  1440.85  1449.25  1457.28  1476.08  1478.66
eigval :     1484.29  1501.53  1548.41  1561.05  1566.00  1571.19
eigval :     1578.12  1586.44  1590.35  1600.97  2993.12  3003.51
eigval :     3041.84  3055.13  3086.46  3087.85  3088.52  3089.46
eigval :     3096.74  3097.31  3104.83  3105.51  3109.14  3109.51
eigval :     3110.32  3111.01  3157.78

   temp. (K)  partition function   enthalpy   heat capacity  entropy
                                   cal/mol     cal/K/mol   cal/K/mol   J/K/mol
 298.15  VIB  0.491E+10            12997.774     83.896     79.845
         ROT  0.220E+08              888.752      2.981     36.581
         INT  0.108E+18            13886.526     86.877    116.426
         TR   0.749E+28             1481.254      4.968     43.766
         TOT                       15367.7798    91.8450   160.1921   670.2437

       T/K    H(0)-H(T)+PV         H(T)/Eh          T*S/Eh         G(T)/Eh
   ------------------------------------------------------------------------
    298.15    0.244901E-01    0.376244E+00    0.761124E-01    0.300131E+00
   ------------------------------------------------------------------------

         :::::::::::::::::::::::::::::::::::::::::::::::::::::
         ::                  THERMODYNAMIC                  ::
         :::::::::::::::::::::::::::::::::::::::::::::::::::::
         :: total free energy         -78.542378278977 Eh   ::
         ::.................................................::
         :: total energy              -78.842509766890 Eh   ::
         :: zero point energy           0.351753798200 Eh   ::
         :: G(RRHO) w/o ZPVE           -0.051622310287 Eh   ::
         :: G(RRHO) contrib.            0.300131487914 Eh   ::
         :::::::::::::::::::::::::::::::::::::::::::::::::::::

           -------------------------------------------------
          | TOTAL ENERGY              -78.842509766890 Eh   |
          | TOTAL ENTHALPY            -78.466265852658 Eh   |
          | TOTAL FREE ENERGY         -78.542378278977 Eh   |
          | GRADIENT NORM               0.000179167276 Eh/α |
          | HOMO-LUMO GAP               1.312685158903 eV   |
           -------------------------------------------------

 * finished run on 2025/08/25 at 03:37:39.065
