   * xtb version 6.7.1 (edcfbbe) compiled by 'albert@albert-system' on 2024-07-22

   ID    Z sym.   atoms
    1    6 C      1-23, 25, 26
    2   35 Br     24
    3    1 H      27-59

          program call               : xtb data2507/toluene/[BMIM][PF6]/[BMIM][PF6]_toluene_S0_crest.xyz --gfn 2 --gbsa toluene --ohess vtight --parallel 40 --molden --ceasefiles --namespace data2507/toluene/[BMIM][PF6]/[BMIM][PF6]_toluene_S0_finalOpt
      * Solvation model:               GBSA
        Solvent                        toluene
        Solvent mass                       9.2140E+01 g/mol
          :  Hamiltonian                  GFN2-xTB          :
 * total energy  :   -74.5238496 Eh     change       -0.1710788E-08 Eh
 * total energy  :   -74.5239522 Eh     change       -0.1026487E-03 Eh
 * total energy  :   -74.5240387 Eh     change       -0.8649262E-04 Eh
 * total energy  :   -74.5240758 Eh     change       -0.3707266E-04 Eh
 * total energy  :   -74.5241391 Eh     change       -0.6332730E-04 Eh
 * total energy  :   -74.5242391 Eh     change       -0.1000412E-03 Eh
 * total energy  :   -74.5243020 Eh     change       -0.6289023E-04 Eh
 * total energy  :   -74.5243777 Eh     change       -0.7564800E-04 Eh
 * total energy  :   -74.5244537 Eh     change       -0.7606149E-04 Eh
 * total energy  :   -74.5245325 Eh     change       -0.7873197E-04 Eh
 * total energy  :   -74.5258733 Eh     change       -0.1957093E-05 Eh
 * total energy  :   -74.5258752 Eh     change       -0.1944957E-05 Eh
 * total energy  :   -74.5258769 Eh     change       -0.1731125E-05 Eh
 * total energy  :   -74.5258787 Eh     change       -0.1705312E-05 Eh
 * total energy  :   -74.5258803 Eh     change       -0.1632755E-05 Eh
 * total energy  :   -74.5258817 Eh     change       -0.1376796E-05 Eh
 * total energy  :   -74.5258827 Eh     change       -0.1019097E-05 Eh
 * total energy  :   -74.5258835 Eh     change       -0.8089437E-06 Eh
 * total energy  :   -74.5258835 Eh     change       -0.7369138E-08 Eh
   *** GEOMETRY OPTIMIZATION CONVERGED AFTER 122 ITERATIONS ***

 final structure:
================
59
 xtb: 6.7.1 (edcfbbe)
C            2.59430682146157       -4.59840901193553       -1.31180002379341
C            1.24340622492210       -4.23165037544168       -0.70702945814480
C            0.14775675799385       -4.16785867114013       -1.76990920554423
C           -1.25149125550631       -3.92857781218277       -1.19737618007755
C           -1.42855039526420       -2.60693261015211       -0.44678225696764
C           -1.27055368152627       -1.38253732979994       -1.34607649817768
C           -1.45347918752434       -0.05438185267995       -0.58652052941384
C           -1.27334935700557        1.12325247580554       -1.56319884326747
C           -1.45705430358577        2.48262044138883       -0.89148167050149
C           -1.19973408494309        3.65827231785503       -1.83661381111038
C            0.23610206580891        3.77097216221729       -2.35562233867388
C            1.27589486847925        3.95005539614727       -1.25070983868665
C            2.67183019276121        4.17664874460911       -1.82091221435215
C           -2.78119496463086        0.00547428564949        0.13057866539483
C           -4.05357787265377       -0.03954171463293       -0.39909700192666
C           -5.14071313640236        0.03413290255340        0.46211576647989
C           -4.95632156712254        0.14928251874362        1.83190293256392
C           -3.68141738892396        0.19475223694791        2.37334828375646
C           -2.59509895295797        0.12270623472261        1.51666369092847
C           -1.16685014885907        0.14704241517187        1.78863872467530
C           -0.46711320263567        0.24659663655729        2.98041644064271
C            0.91849657844963        0.24799136131956        2.94760582777860
C            1.57476260580567        0.15231832036000        1.73143751687203
Br           3.49655374478978        0.15903562565527        1.70841014080800
C            0.89357171178354        0.05124492467216        0.52644396099854
C           -0.48378844439604        0.04722285800154        0.56608060713050
H            3.36239946656752       -4.63026425594507       -0.54174129981702
H            2.54796564793701       -5.57437764694207       -1.79122217828492
H            2.89022175332145       -3.86463354231029       -2.05928034344729
H            0.97053963459466       -4.97342133288248        0.04793001720853
H            1.33153656838865       -3.26617535193327       -0.20567314620169
H            0.13320429875626       -5.11771470566743       -2.31151623286620
H            0.39256981675433       -3.38918817163513       -2.49455716219577
H           -1.49058633253631       -4.74591958962529       -0.51185849683450
H           -1.97364932128219       -3.96671204456209       -2.01729331430597
H           -0.71231308879727       -2.55335194997557        0.37477390882031
H           -2.42822362086119       -2.59454379203126       -0.00484143563556
H           -2.00462798309494       -1.43166943364894       -2.15284031483590
H           -0.27679655771579       -1.38232244437178       -1.79506928388469
H           -0.27222695629790        1.05712809457027       -1.98997781110939
H           -1.99359512331552        1.02287067791243       -2.37755814679437
H           -2.48163983346906        2.55822166783129       -0.51807510300181
H           -0.79404137426514        2.55692764905237       -0.02784968596645
H           -1.87360229488415        3.57651212374429       -2.69357930530301
H           -1.45139215707648        4.58168902593831       -1.30842982176156
H            0.48903988942883        2.89046346808574       -2.94914775217150
H            0.28661303648038        4.63406202316391       -3.02516629206889
H            1.29525254754881        3.06462375253214       -0.61286162825257
H            0.99574683105460        4.80228897960819       -0.62634599261849
H            3.39935750576030        4.28613159200182       -1.01917175099098
H            2.69581909910823        5.07683765639087       -2.43209626495621
H            2.97237464688036        3.33459940773028       -2.44168205865153
H           -4.20965582682908       -0.12966925388896       -1.46409510354201
H           -6.14318630797875        0.00065676731627        0.06029256721678
H           -5.81674767098864        0.20465943984335        2.48315486977557
H           -3.54052404372555        0.28487114496339        3.44027631756713
H           -0.98293045004610        0.32253559416288        3.92533984223199
H            1.48754251728220        0.32361255712216        3.86195748142231
H            1.43602554609899       -0.02238946047913       -0.40377779858202

          :  Hamiltonian                  GFN2-xTB          :
         :: gradient norm              0.000063248052 Eh/a0 ::
         :: HOMO-LUMO gap              3.286931866282 eV    ::
         :: SCC energy               -75.715269653570 Eh    ::
         :: -> dispersion             -0.065523772881 Eh    ::
         :: -> Gsolv                  -0.029931478381 Eh    ::
         :: repulsion energy           1.189386155108 Eh    ::

    * Orbital Energies and Occupations

         #    Occupation            Energy/Eh            Energy/eV
      -------------------------------------------------------------
         1        2.0000           -0.8369338             -22.7741
       ...           ...                  ...                  ...
        58        2.0000           -0.4260503             -11.5934
        59        2.0000           -0.4247487             -11.5580
        60        2.0000           -0.4237404             -11.5306
        61        2.0000           -0.4221550             -11.4874
        62        2.0000           -0.4210587             -11.4576
        63        2.0000           -0.4160395             -11.3210
        64        2.0000           -0.4153075             -11.3011
        65        2.0000           -0.4127878             -11.2325
        66        2.0000           -0.4123516             -11.2207
        67        2.0000           -0.4102419             -11.1633
        68        2.0000           -0.4086122             -11.1189
        69        2.0000           -0.3996077             -10.8739
        70        2.0000           -0.3826017             -10.4111 (HOMO)
        71                         -0.2618092              -7.1242 (LUMO)
        72                         -0.2376432              -6.4666
        73                         -0.2239277              -6.0934
        74                         -0.2044444              -5.5632
        75                         -0.2007532              -5.4628
        76                         -0.1224605              -3.3323
        77                         -0.0682040              -1.8559
        78                          0.0332911               0.9059
        79                          0.0378982               1.0313
        80                          0.0403712               1.0986
        81                          0.0423720               1.1530
       ...                                ...                  ...
       142                          0.7216284              19.6365
      -------------------------------------------------------------
                  HL-Gap            0.1207925 Eh            3.2869 eV

     #   Z          covCN         q      C6AA      α(0)
     1   6 C        3.752    -0.101    22.482     6.762
     2   6 C        3.800    -0.050    21.481     6.599
     3   6 C        3.801    -0.058    21.624     6.621
     4   6 C        3.801    -0.058    21.612     6.619
     5   6 C        3.801    -0.054    21.537     6.607
     6   6 C        3.808    -0.056    21.568     6.611
     7   6 C        3.937     0.012    20.311     6.404
     8   6 C        3.808    -0.056    21.572     6.612
     9   6 C        3.801    -0.054    21.538     6.608
    10   6 C        3.801    -0.058    21.613     6.619
    11   6 C        3.801    -0.058    21.620     6.620
    12   6 C        3.800    -0.050    21.477     6.598
    13   6 C        3.752    -0.100    22.477     6.761
    14   6 C        3.055     0.003    27.902     8.663
    15   6 C        2.915    -0.033    28.829     8.805
    16   6 C        2.921    -0.032    28.806     8.801
    17   6 C        2.921    -0.034    28.839     8.806
    18   6 C        2.914    -0.034    28.845     8.807
    19   6 C        3.038    -0.000    27.997     8.679
    20   6 C        3.034     0.002    27.958     8.673
    21   6 C        2.917    -0.034    28.837     8.806
    22   6 C        2.986    -0.039    28.959     8.827
    23   6 C        2.920     0.076    26.298     8.410
    24  35 Br       1.055    -0.206   190.781    22.271
    25   6 C        2.981    -0.038    28.929     8.823
    26   6 C        3.062     0.008    27.789     8.645
    27   1 H        0.925     0.032     2.561     2.503
    28   1 H        0.925     0.032     2.561     2.503
    29   1 H        0.925     0.033     2.548     2.496
    30   1 H        0.924     0.026     2.643     2.542
    31   1 H        0.924     0.029     2.607     2.525
    32   1 H        0.924     0.030     2.589     2.516
    33   1 H        0.924     0.033     2.550     2.497
    34   1 H        0.924     0.029     2.597     2.520
    35   1 H        0.924     0.032     2.564     2.504
    36   1 H        0.924     0.028     2.610     2.527
    37   1 H        0.924     0.027     2.623     2.533
    38   1 H        0.924     0.040     2.447     2.446
    39   1 H        0.924     0.043     2.410     2.428
    40   1 H        0.924     0.044     2.401     2.423
    41   1 H        0.924     0.040     2.451     2.448
    42   1 H        0.924     0.027     2.623     2.533
    43   1 H        0.924     0.028     2.609     2.526
    44   1 H        0.924     0.032     2.563     2.503
    45   1 H        0.924     0.029     2.597     2.520
    46   1 H        0.924     0.032     2.556     2.500
    47   1 H        0.924     0.030     2.590     2.517
    48   1 H        0.924     0.029     2.606     2.524
    49   1 H        0.924     0.026     2.646     2.544
    50   1 H        0.925     0.032     2.561     2.503
    51   1 H        0.925     0.032     2.563     2.504
    52   1 H        0.925     0.033     2.549     2.497
    53   1 H        0.926     0.035     2.519     2.482
    54   1 H        0.926     0.033     2.543     2.494
    55   1 H        0.926     0.032     2.560     2.502
    56   1 H        0.926     0.032     2.551     2.498
    57   1 H        0.926     0.045     2.384     2.415
    58   1 H        0.926     0.047     2.357     2.401
    59   1 H        0.926     0.052     2.299     2.371

molecular dipole:
                 x           y           z       tot (Debye)
 q only:       -1.346      -0.056      -0.590
   full:       -1.661      -0.045      -0.434       4.366

 projected vibrational frequencies (cm⁻¹)
eigval :       -0.00    -0.00     0.00     0.00     0.00     0.00
eigval :       -3.40    14.00    19.01    23.90    37.35    48.62
eigval :       54.97    58.90    62.97    64.17    76.12   123.15
eigval :      126.52   154.03   172.07   185.88   202.38   210.86
eigval :      213.10   221.15   228.14   236.70   239.14   256.05
eigval :      279.86   286.18   289.58   322.62   340.83   345.35
eigval :      376.00   400.18   448.58   460.28   467.56   486.58
eigval :      498.82   514.08   545.26   568.83   580.59   615.26
eigval :      617.16   712.87   722.02   726.43   753.60   756.65
eigval :      766.87   779.96   786.23   793.07   821.71   824.29
eigval :      843.93   876.77   878.61   881.45   891.14   893.31
eigval :      905.78   910.31   926.83   928.70   936.28   964.87
eigval :      970.20   994.71  1026.72  1028.86  1037.37  1053.89
eigval :     1060.75  1075.81  1084.14  1088.29  1090.16  1095.60
eigval :     1114.10  1125.52  1134.20  1134.35  1146.86  1148.78
eigval :     1151.96  1154.81  1168.59  1169.90  1182.44  1214.98
eigval :     1219.66  1225.01  1226.87  1232.74  1252.54  1254.23
eigval :     1273.51  1275.60  1281.50  1282.49  1285.64  1291.54
eigval :     1297.43  1301.76  1310.51  1318.77  1331.99  1358.64
eigval :     1359.67  1360.98  1362.12  1372.37  1372.81  1373.10
eigval :     1412.83  1413.94  1414.36  1421.13  1451.29  1466.99
eigval :     1473.78  1482.17  1485.51  1486.66  1493.63  1495.20
eigval :     1498.54  1498.94  1501.46  1502.21  1502.42  1503.76
eigval :     1503.94  1504.96  1573.12  1586.16  1595.38  1604.64
eigval :     2953.35  2953.41  2953.98  2954.73  2960.21  2961.29
eigval :     2963.45  2963.71  2971.36  2972.46  2974.75  2977.21
eigval :     2982.65  2983.69  2984.63  2985.31  2990.88  2992.62
eigval :     2994.33  2997.17  3021.47  3022.14  3024.00  3024.27
eigval :     3031.48  3031.81  3069.58  3074.16  3080.73  3086.67
eigval :     3088.98  3091.93  3097.79

   temp. (K)  partition function   enthalpy   heat capacity  entropy
                                   cal/mol     cal/K/mol   cal/K/mol   J/K/mol
 298.15  VIB  0.537E+14            15536.463     90.948    100.919
         ROT  0.189E+08              888.752      2.981     36.274
         INT  0.101E+22            16425.216     93.929    137.193
         TR   0.813E+28             1481.254      4.968     43.929
         TOT                       17906.4697    98.8968   181.1218   757.8134

       T/K    H(0)-H(T)+PV         H(T)/Eh          T*S/Eh         G(T)/Eh
   ------------------------------------------------------------------------
    298.15    0.285358E-01    0.537755E+00    0.860568E-01    0.451699E+00
   ------------------------------------------------------------------------

         :::::::::::::::::::::::::::::::::::::::::::::::::::::
         ::                  THERMODYNAMIC                  ::
         :::::::::::::::::::::::::::::::::::::::::::::::::::::
         :: total free energy         -74.074184874799 Eh   ::
         ::.................................................::
         :: total energy              -74.525883498004 Eh   ::
         :: zero point energy           0.509219636789 Eh   ::
         :: G(RRHO) w/o ZPVE           -0.057521013584 Eh   ::
         :: G(RRHO) contrib.            0.451698623205 Eh   ::
         :::::::::::::::::::::::::::::::::::::::::::::::::::::

           -------------------------------------------------
          | TOTAL ENERGY              -74.525883498004 Eh   |
          | TOTAL ENTHALPY            -73.988128085423 Eh   |
          | TOTAL FREE ENERGY         -74.074184874799 Eh   |
          | GRADIENT NORM               0.000063258824 Eh/α |
          | HOMO-LUMO GAP               3.286931711585 eV   |
           -------------------------------------------------

 * finished run on 2025/09/10 at 08:19:51.723
