   * xtb version 6.7.1 (edcfbbe) compiled by 'albert@albert-system' on 2024-07-22

   ID    Z sym.   atoms
    1    6 C      1-23, 25, 26
    2   35 Br     24
    3    1 H      27-59

          program call               : xtb data2507/toluene/[BMIM][PF6]/[BMIM][PF6]_toluene_S0_finalOpt.xtbopt.xyz --gfn 2 --uhf 2 --gbsa toluene --ohess vtight --parallel 40 --molden --ceasefiles --namespace data2507/toluene/[BMIM][PF6]/[BMIM][PF6]_toluene_T1_preOpt
      * Solvation model:               GBSA
        Solvent                        toluene
        Solvent mass                       9.2140E+01 g/mol
          :  Hamiltonian                  GFN2-xTB          :
 * total energy  :   -74.4035072 Eh     change       -0.1870717E-09 Eh
 * total energy  :   -74.4149524 Eh     change       -0.1144517E-01 Eh
 * total energy  :   -74.4170488 Eh     change       -0.2096429E-02 Eh
 * total energy  :   -74.4171146 Eh     change       -0.6583933E-04 Eh
 * total energy  :   -74.4171293 Eh     change       -0.1464546E-04 Eh
 * total energy  :   -74.4171313 Eh     change       -0.2054062E-05 Eh
 * total energy  :   -74.4171324 Eh     change       -0.1023574E-05 Eh
 * total energy  :   -74.4171332 Eh     change       -0.8837641E-06 Eh
 * total energy  :   -74.4171342 Eh     change       -0.9696321E-06 Eh
 * total energy  :   -74.4171357 Eh     change       -0.1462202E-05 Eh
 * total energy  :   -74.4171612 Eh     change       -0.4898674E-06 Eh
 * total energy  :   -74.4171618 Eh     change       -0.6278155E-06 Eh
 * total energy  :   -74.4171625 Eh     change       -0.6396052E-06 Eh
 * total energy  :   -74.4171631 Eh     change       -0.6466690E-06 Eh
 * total energy  :   -74.4171637 Eh     change       -0.5797794E-06 Eh
 * total energy  :   -74.4171641 Eh     change       -0.4339332E-06 Eh
 * total energy  :   -74.4171644 Eh     change       -0.2718561E-06 Eh
 * total energy  :   -74.4171646 Eh     change       -0.1906350E-06 Eh
 * total energy  :   -74.4171646 Eh     change       -0.2537703E-08 Eh
   *** GEOMETRY OPTIMIZATION CONVERGED AFTER 44 ITERATIONS ***

 final structure:
================
59
 xtb: 6.7.1 (edcfbbe)
C            2.59285814320744       -4.58938315916978       -1.32524938329097
C            1.24139548515715       -4.22811926674802       -0.71844237161915
C            0.14227310516725       -4.17815150481677       -1.77834276879590
C           -1.25540780067584       -3.93463265005263       -1.20370317527838
C           -1.42838614187578       -2.60932570994932       -0.45956091556853
C           -1.24948172697539       -1.38696721680038       -1.35706251839769
C           -1.43014785235601       -0.06354869399817       -0.58653701421778
C           -1.22978537655809        1.12440594100935       -1.54878422992933
C           -1.39403722845761        2.47114693032950       -0.84817959375093
C           -1.19677686576280        3.66545272691806       -1.78335148520384
C            0.20875710598535        3.80124185920507       -2.37418420730668
C            1.30090399704633        3.98622123851663       -1.32205773718825
C            2.65985413792114        4.25090959284811       -1.96097537281491
C           -2.76819053068743        0.00059058781965        0.11117424400608
C           -4.02163247125360       -0.02678811068600       -0.41858225554001
C           -5.13548917590185        0.04922652353051        0.43738264821390
C           -4.96400670163659        0.15226984910836        1.83296493193610
C           -3.72312095663953        0.18187496223733        2.39826726091991
C           -2.57424752464037        0.10634739626120        1.54758999873046
C           -1.22214585484944        0.11428457758999        1.82751827720597
C           -0.49852694631750        0.19891848237972        3.06691250237216
C            0.85892921996072        0.18839577770839        3.04590397790964
C            1.55872729554399        0.09648581259516        1.81545681316430
Br           3.45507098058092        0.08774936503157        1.83161240966459
C            0.88005781280175        0.01061330511776        0.57517795963201
C           -0.47455846463289        0.01754690774647        0.58038021469882
H            3.36342859687122       -4.61255455066943       -0.55735650206903
H            2.55134781742809       -5.56801205877396       -1.79966227823530
H            2.88162368223199       -3.85757642969084       -2.07745128625804
H            0.97575738988119       -4.96690514211713        0.04198904793929
H            1.32373913241959       -3.25872640444032       -0.22381431280653
H            0.12756674999892       -5.13356788464631       -2.31010095119271
H            0.38268078022253       -3.40629165860241       -2.51168965530804
H           -1.49499896198353       -4.74856514737607       -0.51426761849146
H           -1.97879506300895       -3.97468165097960       -2.02249696517900
H           -0.72123660670437       -2.55756651170028        0.37042922121030
H           -2.43271229512177       -2.58483717235517       -0.02773953930491
H           -1.97519634199874       -1.42646496024813       -2.17182975155564
H           -0.25027993494038       -1.39261233561529       -1.79340663303977
H           -0.22975177803606        1.05059597820817       -1.97693310559481
H           -1.95323161267797        1.04885376571369       -2.36303331158034
H           -2.40065323698322        2.52704081620853       -0.42457309573476
H           -0.69163620326428        2.53594471731761       -0.01507300198268
H           -1.91317652086973        3.59020745961625       -2.60577514074398
H           -1.42999352017013        4.57749022018805       -1.22757257912692
H            0.44148852344930        2.92825199776079       -2.98661629722589
H            0.21362391708484        4.67033021973604       -3.03787320365044
H            1.37100757049221        3.09243707625137       -0.69958659290045
H            1.03646668298288        4.82352556350807       -0.67124066324968
H            3.42555057236916        4.36871208078496       -1.19688232071784
H            2.63151676533217        5.15819950308828       -2.56141983990157
H            2.94603840378074        3.42309571998782       -2.60710495220760
H           -4.17655424776248       -0.10498967768638       -1.48495370314951
H           -6.13150805377265        0.02841134881829        0.02361965497747
H           -5.84384075978628        0.20846437905314        2.45845829523430
H           -3.59186713703646        0.26081036240560        3.46635212611516
H           -1.03934559581571        0.26889591089827        3.99728967446984
H            1.42966680283691        0.24984156170204        3.96078210414750
H            1.45314922253948       -0.05833001828532       -0.33714971903962

          :  Hamiltonian                  GFN2-xTB          :
         :: gradient norm              0.000028493930 Eh/a0 ::
         :: HOMO-LUMO gap              1.270000648894 eV    ::
         :: SCC energy               -75.586255730641 Eh    ::
         :: -> dispersion             -0.065280024255 Eh    ::
         :: -> Gsolv                  -0.029540346663 Eh    ::
         :: repulsion energy           1.169091130691 Eh    ::

    * Orbital Energies and Occupations

         #    Occupation            Energy/Eh            Energy/eV
      -------------------------------------------------------------
         1        2.0000           -0.8427718             -22.9330
       ...           ...                  ...                  ...
        59        2.0000           -0.4243162             -11.5462
        60        2.0000           -0.4239600             -11.5365
        61        2.0000           -0.4212382             -11.4625
        62        2.0000           -0.4208623             -11.4522
        63        2.0000           -0.4166711             -11.3382
        64        2.0000           -0.4149307             -11.2908
        65        2.0000           -0.4146537             -11.2833
        66        2.0000           -0.4125923             -11.2272
        67        2.0000           -0.4116029             -11.2003
        68        2.0000           -0.4103262             -11.1655
        69        2.0000           -0.4013603             -10.9216
        70        1.0000           -0.3714104             -10.1066
        71        1.0000           -0.2747900              -7.4774 (HOMO)
        72                         -0.2281183              -6.2074 (LUMO)
        73                         -0.2193008              -5.9675
        74                         -0.2020338              -5.4976
        75                         -0.2010559              -5.4710
        76                         -0.1282233              -3.4891
        77                         -0.0719774              -1.9586
        78                          0.0296272               0.8062
        79                          0.0303009               0.8245
        80                          0.0319657               0.8698
        81                          0.0339525               0.9239
        82                          0.0620262               1.6878
       ...                                ...                  ...
       142                          0.7303920              19.8750
      -------------------------------------------------------------
                  HL-Gap            0.0466718 Eh            1.2700 eV

     #   Z          covCN         q      C6AA      α(0)
     1   6 C        3.752    -0.101    22.484     6.762
     2   6 C        3.800    -0.051    21.485     6.600
     3   6 C        3.801    -0.058    21.624     6.621
     4   6 C        3.801    -0.058    21.609     6.618
     5   6 C        3.801    -0.053    21.528     6.606
     6   6 C        3.807    -0.058    21.616     6.618
     7   6 C        3.927     0.011    20.323     6.407
     8   6 C        3.807    -0.058    21.617     6.619
     9   6 C        3.801    -0.053    21.530     6.606
    10   6 C        3.801    -0.058    21.609     6.618
    11   6 C        3.801    -0.058    21.624     6.621
    12   6 C        3.800    -0.051    21.484     6.599
    13   6 C        3.752    -0.101    22.484     6.762
    14   6 C        3.047     0.006    27.847     8.655
    15   6 C        2.905    -0.034    28.848     8.807
    16   6 C        2.917    -0.035    28.872     8.811
    17   6 C        2.910    -0.028    28.706     8.786
    18   6 C        2.905    -0.039    28.972     8.826
    19   6 C        3.023     0.005    27.883     8.662
    20   6 C        3.021    -0.007    28.177     8.707
    21   6 C        2.906    -0.038    28.937     8.820
    22   6 C        2.972    -0.036    28.897     8.818
    23   6 C        2.913     0.060    26.653     8.466
    24  35 Br       1.051    -0.159   189.440    22.192
    25   6 C        2.968    -0.042    29.049     8.841
    26   6 C        3.049     0.008    27.785     8.645
    27   1 H        0.925     0.032     2.561     2.502
    28   1 H        0.925     0.032     2.560     2.502
    29   1 H        0.925     0.033     2.548     2.496
    30   1 H        0.924     0.026     2.642     2.542
    31   1 H        0.924     0.029     2.599     2.521
    32   1 H        0.924     0.030     2.589     2.516
    33   1 H        0.924     0.033     2.548     2.496
    34   1 H        0.924     0.029     2.598     2.521
    35   1 H        0.924     0.032     2.562     2.503
    36   1 H        0.924     0.029     2.598     2.520
    37   1 H        0.924     0.027     2.627     2.534
    38   1 H        0.924     0.039     2.466     2.456
    39   1 H        0.924     0.042     2.419     2.432
    40   1 H        0.924     0.042     2.419     2.432
    41   1 H        0.924     0.039     2.466     2.456
    42   1 H        0.924     0.027     2.627     2.535
    43   1 H        0.924     0.029     2.597     2.520
    44   1 H        0.924     0.032     2.562     2.503
    45   1 H        0.924     0.029     2.598     2.521
    46   1 H        0.924     0.033     2.550     2.497
    47   1 H        0.924     0.030     2.589     2.516
    48   1 H        0.924     0.029     2.599     2.521
    49   1 H        0.924     0.026     2.641     2.542
    50   1 H        0.925     0.032     2.560     2.502
    51   1 H        0.925     0.032     2.561     2.502
    52   1 H        0.925     0.033     2.548     2.496
    53   1 H        0.926     0.034     2.531     2.488
    54   1 H        0.926     0.033     2.539     2.492
    55   1 H        0.926     0.032     2.557     2.501
    56   1 H        0.926     0.032     2.559     2.501
    57   1 H        0.926     0.041     2.431     2.438
    58   1 H        0.926     0.043     2.411     2.428
    59   1 H        0.926     0.045     2.377     2.411

molecular dipole:
                 x           y           z       tot (Debye)
 q only:       -1.065      -0.037      -0.574
   full:       -1.349      -0.025      -0.437       3.604

 projected vibrational frequencies (cm⁻¹)
eigval :        0.00     0.00     0.00     0.00     0.00     0.00
eigval :       13.39    14.04    17.68    23.44    34.77    51.39
eigval :       53.17    56.15    64.77    73.38    82.40   101.09
eigval :      126.68   136.28   172.94   176.16   191.98   202.88
eigval :      208.40   214.18   216.48   235.84   245.79   254.33
eigval :      278.29   280.33   287.13   290.44   333.71   337.55
eigval :      339.69   375.77   392.64   423.62   457.91   479.41
eigval :      485.43   489.97   504.11   562.87   566.17   566.42
eigval :      588.81   666.78   692.53   704.47   706.17   746.29
eigval :      756.42   758.31   761.55   784.32   793.82   796.57
eigval :      820.64   844.38   850.75   875.99   879.23   886.69
eigval :      890.71   892.37   904.32   927.54   936.15   944.32
eigval :      964.32   976.23   990.48  1014.93  1026.36  1037.32
eigval :     1039.08  1046.22  1055.01  1080.69  1086.74  1090.63
eigval :     1090.90  1109.87  1116.30  1133.05  1137.72  1141.07
eigval :     1146.35  1151.68  1158.04  1159.22  1168.93  1179.49
eigval :     1202.88  1215.04  1224.91  1229.63  1245.48  1253.87
eigval :     1264.83  1273.43  1275.06  1281.15  1284.99  1289.90
eigval :     1292.98  1298.40  1309.98  1311.35  1319.31  1325.04
eigval :     1336.57  1352.34  1357.08  1360.47  1361.14  1367.81
eigval :     1370.36  1372.37  1372.65  1412.66  1414.72  1474.52
eigval :     1481.79  1486.07  1486.19  1491.53  1493.43  1495.18
eigval :     1495.82  1498.32  1499.11  1501.72  1502.13  1502.33
eigval :     1503.13  1504.40  1507.32  1546.47  1562.99  1640.98
eigval :     2952.63  2953.05  2953.20  2953.42  2955.44  2955.59
eigval :     2963.06  2963.42  2970.72  2971.53  2973.11  2975.48
eigval :     2983.12  2983.72  2984.84  2985.39  2988.65  2989.47
eigval :     2991.90  2996.04  3021.99  3022.38  3024.05  3024.10
eigval :     3031.59  3031.76  3069.22  3072.77  3080.96  3087.82
eigval :     3088.17  3097.34  3099.33

   temp. (K)  partition function   enthalpy   heat capacity  entropy
                                   cal/mol     cal/K/mol   cal/K/mol   J/K/mol
 298.15  VIB  0.275E+14            15932.175     93.180    102.199
         ROT  0.191E+08              888.752      2.981     36.301
         INT  0.526E+21            16820.927     96.161    138.499
         TR   0.813E+28             1481.254      4.968     43.929
         TOT                       18302.1810   101.1294   182.4282   763.2794

       T/K    H(0)-H(T)+PV         H(T)/Eh          T*S/Eh         G(T)/Eh
   ------------------------------------------------------------------------
    298.15    0.291664E-01    0.534405E+00    0.866775E-01    0.447727E+00
   ------------------------------------------------------------------------

         :::::::::::::::::::::::::::::::::::::::::::::::::::::
         ::                  THERMODYNAMIC                  ::
         :::::::::::::::::::::::::::::::::::::::::::::::::::::
         :: total free energy         -73.969437586735 Eh   ::
         ::.................................................::
         :: total energy              -74.417164600120 Eh   ::
         :: zero point energy           0.505238136822 Eh   ::
         :: G(RRHO) w/o ZPVE           -0.057511123437 Eh   ::
         :: G(RRHO) contrib.            0.447727013385 Eh   ::
         :::::::::::::::::::::::::::::::::::::::::::::::::::::

           -------------------------------------------------
          | TOTAL ENERGY              -74.417164600120 Eh   |
          | TOTAL ENTHALPY            -73.882760081415 Eh   |
          | TOTAL FREE ENERGY         -73.969437586735 Eh   |
          | GRADIENT NORM               0.000028562004 Eh/α |
          | HOMO-LUMO GAP               1.270003620171 eV   |
           -------------------------------------------------

 * finished run on 2025/09/10 at 08:19:55.282
