   * xtb version 6.7.1 (edcfbbe) compiled by 'albert@albert-system' on 2024-07-22

   ID    Z sym.   atoms
    1    6 C      1-23, 25, 26
    2   35 Br     24
    3    1 H      27-59

          program call               : xtb data2507/toluene/[BMIM][PF6]/[BMIM][PF6].xyz --gfn 2 --gbsa toluene --ohess vtight --parallel 40 --molden --ceasefiles --namespace data2507/toluene/[BMIM][PF6]/[BMIM][PF6]_toluene_S0_preOpt
      * Solvation model:               GBSA
        Solvent                        toluene
        Solvent mass                       9.2140E+01 g/mol
          :  Hamiltonian                  GFN2-xTB          :
 * total energy  :   -74.5140664 Eh     change       -0.1126466E-08 Eh
 * total energy  :   -74.5181912 Eh     change       -0.4124853E-02 Eh
 * total energy  :   -74.5189580 Eh     change       -0.7667194E-03 Eh
 * total energy  :   -74.5191872 Eh     change       -0.2292285E-03 Eh
 * total energy  :   -74.5193076 Eh     change       -0.1204297E-03 Eh
 * total energy  :   -74.5193514 Eh     change       -0.4375106E-04 Eh
 * total energy  :   -74.5193921 Eh     change       -0.4072137E-04 Eh
 * total energy  :   -74.5194407 Eh     change       -0.4860686E-04 Eh
 * total energy  :   -74.5194755 Eh     change       -0.3482164E-04 Eh
 * total energy  :   -74.5195352 Eh     change       -0.5964145E-04 Eh
 * total energy  :   -74.5200156 Eh     change       -0.3800487E-06 Eh
 * total energy  :   -74.5200160 Eh     change       -0.3335716E-06 Eh
 * total energy  :   -74.5200163 Eh     change       -0.3757610E-06 Eh
 * total energy  :   -74.5200169 Eh     change       -0.5082240E-06 Eh
 * total energy  :   -74.5200175 Eh     change       -0.6673458E-06 Eh
 * total energy  :   -74.5200182 Eh     change       -0.6937707E-06 Eh
 * total energy  :   -74.5200188 Eh     change       -0.5341604E-06 Eh
 * total energy  :   -74.5200191 Eh     change       -0.3754680E-06 Eh
 * total energy  :   -74.5200191 Eh     change       -0.2799453E-08 Eh
   *** GEOMETRY OPTIMIZATION CONVERGED AFTER 68 ITERATIONS ***

 final structure:
================
59
 xtb: 6.7.1 (edcfbbe)
C           -5.38670682259160       -2.48119856020477        0.70576498639779
C           -4.59237917461269       -2.02901514316138       -0.51475849521046
C           -4.75495813973817       -0.53980805437641       -0.82604748126419
C           -4.26553462435235        0.41199311917664        0.26918164166440
C           -2.79546670490739        0.25641724077012        0.67029395827568
C           -1.84695447891458        0.55224918485536       -0.48769917760801
C           -0.32699010022103        0.48840530279007       -0.17731418477885
C            0.10177929424431       -0.95558847044731        0.13291122737263
C            1.53921375305226       -1.13018129607910        0.63187515469024
C            2.60431079137560       -0.94503824912332       -0.44650805983966
C            4.02840974088668       -1.14626305107998        0.07588224501812
C            4.35517670648418       -2.59403887345133        0.43983495778729
C            5.81757293436979       -2.75725843023174        0.83972922377777
C            0.35703296688905        1.09423255981978       -1.38502388732018
C            0.39049841110412        0.63203258659909       -2.68463071169814
C            1.03396462314973        1.39381764918627       -3.65065111519567
C            1.62131302232465        2.60758619445126       -3.32537202353811
C            1.57960687794229        3.08784534983969       -2.02634795256102
C            0.94279009454228        2.32690920683929       -1.05911155190206
C            0.76383059159165        2.55530526473317        0.36468304412272
C            1.19796939386462        3.59403609722809        1.17260565057969
C            0.93910572647449        3.54116833477193        2.53227192047838
C            0.26989494885879        2.44712014916884        3.05493622354212
Br          -0.04695849350942        2.37203742162061        4.94952415935411
C           -0.17697406581115        1.39818132542774        2.26362853889264
C            0.05687835662099        1.46812439123629        0.90556555673285
H           -5.31411347781060       -3.56063667240022        0.82433430179071
H           -5.01069765876693       -2.01567830499134        1.61331468194221
H           -6.43727376565096       -2.21923032558654        0.59476392776268
H           -3.53700679842565       -2.26514667947600       -0.36944494193792
H           -4.93383278229830       -2.59524391519393       -1.38571505844073
H           -5.81523869787467       -0.33430976351668       -0.99796610933497
H           -4.23090568738479       -0.31800734108468       -1.75814881715241
H           -4.88008835721385        0.27405988541212        1.16115325655889
H           -4.42660479264850        1.43670509609362       -0.07735925036444
H           -2.63134079216375       -0.75120258166713        1.05158895051957
H           -2.60140693089589        0.95931187513310        1.48262915819280
H           -2.06842955651077        1.55577426347269       -0.86234214550754
H           -2.03504130421927       -0.15257302946870       -1.29816193014860
H           -0.56478842175013       -1.34526711459155        0.90375903329174
H           -0.04016163041202       -1.55985872888215       -0.76538749760175
H            1.73213397140554       -0.43074413873381        1.44838619418395
H            1.62243385373147       -2.14072206570293        1.03778132294782
H            2.41900519583560       -1.64640539212435       -1.26394057439750
H            2.52979655634832        0.06394337796758       -0.85359139742757
H            4.72840090351591       -0.81752634310081       -0.69709275464151
H            4.18365173131714       -0.50896840627894        0.95046494792647
H            4.14088312126122       -3.23686818243907       -0.41766176829540
H            3.72337148626447       -2.92036215004862        1.26776696845813
H            6.03129429126699       -3.79245889295578        1.09759631218376
H            6.04874207846896       -2.13419593806084        1.70163292147446
H            6.47317932976400       -2.46486835428264        0.02165583422680
H           -0.06417164532723       -0.31030605717364       -2.95251312446674
H            1.07600641329135        1.03812361859291       -4.66998635721478
H            2.11454051062056        3.18486797537895       -4.09405197388941
H            2.03333340497562        4.03528163746715       -1.77567056533122
H            1.73660418794388        4.43274206993523        0.75894165056252
H            1.26537839382702        4.33731117707291        3.18426146019045
H           -0.67407775959628        0.55339115091768        2.71377849620126

          :  Hamiltonian                  GFN2-xTB          :
         :: gradient norm              0.000043897395 Eh/a0 ::
         :: HOMO-LUMO gap              3.282584311036 eV    ::
         :: SCC energy               -75.708150770635 Eh    ::
         :: -> dispersion             -0.064921318377 Eh    ::
         :: -> Gsolv                  -0.030126283536 Eh    ::
         :: repulsion energy           1.188131640058 Eh    ::

    * Orbital Energies and Occupations

         #    Occupation            Energy/Eh            Energy/eV
      -------------------------------------------------------------
         1        2.0000           -0.8373720             -22.7861
       ...           ...                  ...                  ...
        58        2.0000           -0.4264830             -11.6052
        59        2.0000           -0.4253817             -11.5752
        60        2.0000           -0.4231389             -11.5142
        61        2.0000           -0.4210913             -11.4585
        62        2.0000           -0.4196675             -11.4197
        63        2.0000           -0.4194955             -11.4151
        64        2.0000           -0.4152093             -11.2984
        65        2.0000           -0.4135931             -11.2544
        66        2.0000           -0.4101260             -11.1601
        67        2.0000           -0.4084458             -11.1144
        68        2.0000           -0.4080046             -11.1024
        69        2.0000           -0.3968914             -10.8000
        70        2.0000           -0.3821862             -10.3998 (HOMO)
        71                         -0.2615535              -7.1172 (LUMO)
        72                         -0.2374921              -6.4625
        73                         -0.2240049              -6.0955
        74                         -0.2047026              -5.5702
        75                         -0.2005943              -5.4584
        76                         -0.1224146              -3.3311
        77                         -0.0688892              -1.8746
        78                          0.0366239               0.9966
        79                          0.0399373               1.0867
        80                          0.0406963               1.1074
        81                          0.0421945               1.1482
       ...                                ...                  ...
       142                          0.7201747              19.5970
      -------------------------------------------------------------
                  HL-Gap            0.1206327 Eh            3.2826 eV

     #   Z          covCN         q      C6AA      α(0)
     1   6 C        3.751    -0.101    22.487     6.763
     2   6 C        3.799    -0.052    21.510     6.604
     3   6 C        3.800    -0.058    21.611     6.619
     4   6 C        3.800    -0.057    21.598     6.617
     5   6 C        3.800    -0.056    21.584     6.615
     6   6 C        3.812    -0.054    21.533     6.605
     7   6 C        3.934     0.012    20.307     6.404
     8   6 C        3.804    -0.057    21.601     6.617
     9   6 C        3.800    -0.056    21.585     6.615
    10   6 C        3.801    -0.058    21.624     6.621
    11   6 C        3.802    -0.058    21.612     6.619
    12   6 C        3.800    -0.053    21.526     6.606
    13   6 C        3.752    -0.102    22.502     6.765
    14   6 C        3.061     0.003    27.895     8.661
    15   6 C        2.915    -0.034    28.842     8.807
    16   6 C        2.921    -0.032    28.793     8.799
    17   6 C        2.921    -0.034    28.847     8.808
    18   6 C        2.914    -0.034    28.858     8.809
    19   6 C        3.036    -0.001    28.024     8.683
    20   6 C        3.037     0.002    27.953     8.672
    21   6 C        2.917    -0.034    28.839     8.806
    22   6 C        2.987    -0.038    28.946     8.825
    23   6 C        2.919     0.076    26.302     8.410
    24  35 Br       1.057    -0.209   190.849    22.275
    25   6 C        2.982    -0.039    28.958     8.827
    26   6 C        3.055     0.008    27.777     8.643
    27   1 H        0.925     0.030     2.586     2.515
    28   1 H        0.925     0.035     2.514     2.479
    29   1 H        0.925     0.031     2.568     2.506
    30   1 H        0.924     0.034     2.534     2.489
    31   1 H        0.924     0.026     2.646     2.544
    32   1 H        0.924     0.029     2.605     2.524
    33   1 H        0.924     0.029     2.599     2.521
    34   1 H        0.924     0.034     2.525     2.485
    35   1 H        0.924     0.026     2.642     2.542
    36   1 H        0.925     0.038     2.471     2.458
    37   1 H        0.924     0.031     2.575     2.510
    38   1 H        0.924     0.031     2.571     2.507
    39   1 H        0.924     0.047     2.363     2.404
    40   1 H        0.924     0.042     2.421     2.433
    41   1 H        0.924     0.041     2.433     2.439
    42   1 H        0.924     0.027     2.628     2.535
    43   1 H        0.924     0.035     2.520     2.482
    44   1 H        0.924     0.029     2.594     2.519
    45   1 H        0.924     0.029     2.598     2.521
    46   1 H        0.924     0.029     2.607     2.525
    47   1 H        0.924     0.027     2.636     2.539
    48   1 H        0.924     0.030     2.592     2.518
    49   1 H        0.924     0.030     2.587     2.515
    50   1 H        0.925     0.033     2.543     2.494
    51   1 H        0.925     0.032     2.557     2.501
    52   1 H        0.925     0.032     2.555     2.500
    53   1 H        0.926     0.034     2.535     2.490
    54   1 H        0.926     0.034     2.536     2.490
    55   1 H        0.926     0.032     2.561     2.503
    56   1 H        0.926     0.032     2.558     2.501
    57   1 H        0.926     0.045     2.385     2.415
    58   1 H        0.926     0.047     2.356     2.400
    59   1 H        0.926     0.055     2.261     2.351

molecular dipole:
                 x           y           z       tot (Debye)
 q only:       -0.127      -0.493      -1.407
   full:       -0.027      -0.344      -1.724       4.468

 projected vibrational frequencies (cm⁻¹)
eigval :       -0.00    -0.00    -0.00    -0.00     0.00     0.00
eigval :       11.72    14.09    25.97    33.44    41.64    44.47
eigval :       55.12    67.17    74.14    85.15    92.89   113.86
eigval :      122.71   128.71   161.63   173.42   196.58   205.12
eigval :      212.37   218.34   228.18   248.71   266.66   274.70
eigval :      283.04   286.51   303.28   305.22   328.14   354.20
eigval :      402.16   403.29   446.74   460.72   467.17   489.60
eigval :      514.54   528.40   541.61   556.47   581.27   613.80
eigval :      620.47   697.65   721.41   723.94   751.31   761.68
eigval :      774.06   777.20   787.83   790.42   819.48   824.27
eigval :      842.99   876.52   878.05   884.40   889.05   906.04
eigval :      908.90   910.00   926.78   930.05   940.36   957.69
eigval :      972.18   991.13  1017.80  1022.62  1041.00  1046.67
eigval :     1066.62  1074.34  1075.82  1085.42  1086.39  1099.41
eigval :     1107.10  1122.57  1129.63  1134.12  1139.19  1150.17
eigval :     1157.30  1160.39  1172.51  1178.58  1191.47  1202.11
eigval :     1209.37  1222.60  1236.25  1240.70  1249.18  1256.50
eigval :     1264.49  1278.77  1281.80  1286.05  1293.38  1302.38
eigval :     1311.24  1312.77  1321.76  1329.14  1343.51  1345.69
eigval :     1358.82  1360.88  1364.47  1368.27  1374.41  1378.55
eigval :     1413.40  1413.58  1414.26  1420.36  1449.91  1465.91
eigval :     1468.77  1481.83  1484.44  1486.18  1488.21  1490.19
eigval :     1495.78  1496.15  1498.12  1501.17  1503.64  1504.60
eigval :     1507.81  1512.62  1570.00  1584.98  1595.06  1602.44
eigval :     2950.53  2953.22  2953.39  2955.56  2958.07  2960.45
eigval :     2964.79  2967.37  2970.73  2972.67  2976.92  2980.77
eigval :     2982.68  2984.20  2984.93  2988.05  2989.44  2995.46
eigval :     3000.80  3003.36  3021.73  3022.81  3024.85  3026.46
eigval :     3032.08  3040.67  3069.42  3073.98  3080.54  3087.24
eigval :     3089.13  3098.15  3102.35

   temp. (K)  partition function   enthalpy   heat capacity  entropy
                                   cal/mol     cal/K/mol   cal/K/mol   J/K/mol
 298.15  VIB  0.530E+13            15438.635     91.423     98.748
         ROT  0.229E+08              888.752      2.981     36.660
         INT  0.122E+21            16327.387     94.404    135.408
         TR   0.813E+28             1481.254      4.968     43.929
         TOT                       17808.6414    99.3717   179.3368   750.3450

       T/K    H(0)-H(T)+PV         H(T)/Eh          T*S/Eh         G(T)/Eh
   ------------------------------------------------------------------------
    298.15    0.283799E-01    0.537986E+00    0.852087E-01    0.452777E+00
   ------------------------------------------------------------------------

         :::::::::::::::::::::::::::::::::::::::::::::::::::::
         ::                  THERMODYNAMIC                  ::
         :::::::::::::::::::::::::::::::::::::::::::::::::::::
         :: total free energy         -74.067241768069 Eh   ::
         ::.................................................::
         :: total energy              -74.520019132164 Eh   ::
         :: zero point energy           0.509606170396 Eh   ::
         :: G(RRHO) w/o ZPVE           -0.056828806302 Eh   ::
         :: G(RRHO) contrib.            0.452777364094 Eh   ::
         :::::::::::::::::::::::::::::::::::::::::::::::::::::

           -------------------------------------------------
          | TOTAL ENERGY              -74.520019132164 Eh   |
          | TOTAL ENTHALPY            -73.982033085243 Eh   |
          | TOTAL FREE ENERGY         -74.067241768069 Eh   |
          | GRADIENT NORM               0.000043897076 Eh/α |
          | HOMO-LUMO GAP               3.282583811371 eV   |
           -------------------------------------------------

 * finished run on 2025/09/10 at 08:00:29.400
