   * xtb version 6.7.1 (edcfbbe) compiled by 'albert@albert-system' on 2024-07-22

   ID    Z sym.   atoms
    1    6 C      1-23, 25, 26
    2   35 Br     24
    3    1 H      27-59

          program call               : xtb data2507/toluene/[BMIM][PF6]/[BMIM][PF6]_toluene_T1_crest.xyz --gfn 2 --uhf 2 --gbsa toluene --ohess vtight --parallel 40 --molden --ceasefiles --namespace data2507/toluene/[BMIM][PF6]/[BMIM][PF6]_toluene_T1_finalOpt
      * Solvation model:               GBSA
        Solvent                        toluene
        Solvent mass                       9.2140E+01 g/mol
          :  Hamiltonian                  GFN2-xTB          :
 * total energy  :   -74.4161152 Eh     change       -0.8348309E-09 Eh
 * total energy  :   -74.4162170 Eh     change       -0.1018377E-03 Eh
 * total energy  :   -74.4163074 Eh     change       -0.9043995E-04 Eh
 * total energy  :   -74.4163434 Eh     change       -0.3594386E-04 Eh
 * total energy  :   -74.4164139 Eh     change       -0.7050750E-04 Eh
 * total energy  :   -74.4164507 Eh     change       -0.3682878E-04 Eh
 * total energy  :   -74.4164683 Eh     change       -0.1759591E-04 Eh
 * total energy  :   -74.4165074 Eh     change       -0.3911951E-04 Eh
 * total energy  :   -74.4165255 Eh     change       -0.1807707E-04 Eh
 * total energy  :   -74.4165499 Eh     change       -0.2437649E-04 Eh
 * total energy  :   -74.4167577 Eh     change       -0.8449939E-06 Eh
 * total energy  :   -74.4167585 Eh     change       -0.7816458E-06 Eh
 * total energy  :   -74.4167592 Eh     change       -0.7592210E-06 Eh
 * total energy  :   -74.4167599 Eh     change       -0.6924976E-06 Eh
 * total energy  :   -74.4167606 Eh     change       -0.6331176E-06 Eh
 * total energy  :   -74.4167612 Eh     change       -0.6498029E-06 Eh
 * total energy  :   -74.4167619 Eh     change       -0.6861488E-06 Eh
 * total energy  :   -74.4167624 Eh     change       -0.5249928E-06 Eh
 * total energy  :   -74.4167625 Eh     change       -0.5359385E-07 Eh
   *** GEOMETRY OPTIMIZATION CONVERGED AFTER 40 ITERATIONS ***

 final structure:
================
59
 xtb: 6.7.1 (edcfbbe)
C           -5.03521187400598        2.28739818531025       -1.16533514780753
C           -5.07349751839255        2.85025592309673        0.25166284054177
C           -3.71334700785260        2.81215432752768        0.95051586584419
C           -3.24210083174859        1.39481825715900        1.26747042474709
C           -1.88617841818510        1.39189870093621        1.96703388532864
C           -1.37731674004993       -0.00277818356941        2.33772612409600
C           -0.87035185512393       -0.86180053439886        1.15322669524446
C           -0.16136436223424       -2.10329206184192        1.74421356645467
C            0.16474764221730       -3.21629409440286        0.74549589436374
C            1.28932059263820       -2.91637602875834       -0.24623177809229
C            2.65830466036683       -2.74760843870765        0.40835604005432
C            3.77048044837139       -2.60592510281938       -0.62866962433220
C            5.13696297618160       -2.42163003763980        0.02167674884422
C           -1.98349257605124       -1.25384250966822        0.21259584857302
C           -3.08588708509061       -2.02029565521798        0.44695395820843
C           -3.99622521967835       -2.25718228933715       -0.59618413068571
C           -3.77843466728463       -1.71108128854994       -1.87866679345923
C           -2.68231700693373       -0.94725820383215       -2.15279008467740
C           -1.73517442950244       -0.69870961195773       -1.10955766452452
C           -0.54802919375214        0.00628812039526       -1.09252910415567
C            0.14401017740360        0.74306856667632       -2.11329346412445
C            1.30827390827408        1.37067743008184       -1.80603625393752
C            1.83858932571678        1.30101927194129       -0.49244772535870
Br           3.46207898923747        2.20685793613339       -0.10816301708458
C            1.18745687672718        0.58381860778691        0.53826883842454
C            0.02826389039201       -0.05666081741806        0.24635277206228
H           -4.79243764441446        1.22769722423476       -1.15936273303754
H           -6.00319104117727        2.41101710134803       -1.64683256085158
H           -4.28686441251332        2.80762174393374       -1.76026471359208
H           -5.41406177580911        3.88819031417399        0.20880906185876
H           -5.79942694132804        2.28918146645797        0.84517623567536
H           -3.77915582050656        3.38108977944733        1.88214418559097
H           -2.97102265650600        3.30414760530278        0.31641605063603
H           -3.16871681494018        0.82691330362757        0.34083151708646
H           -3.98112337951714        0.90012419765529        1.90309770953682
H           -1.96724044481732        1.97778506058871        2.88721034743982
H           -1.15216771063793        1.89014876067469        1.32921184225256
H           -2.17247052536542       -0.55028884258013        2.84756304419032
H           -0.54852664355957        0.11144169806794        3.04044756133738
H            0.75136730870707       -1.77830464165686        2.24433765089221
H           -0.82052686711108       -2.52472339270797        2.50694304606442
H            0.44143417335629       -4.10675940102670        1.31714721211269
H           -0.73911870177341       -3.45922116640700        0.18153509679139
H            1.34251769309880       -3.74694413973120       -0.95597379706582
H            1.04971017208844       -2.01812554915541       -0.81776863819840
H            2.65812233359605       -1.86062027523540        1.04385404381646
H            2.86648598269043       -3.61325327290811        1.04243915710013
H            3.55465235673286       -1.74908951120033       -1.27190804873876
H            3.78903260151336       -3.49563614249035       -1.26331760866593
H            5.38043659949447       -3.27829999286192        0.64719815241420
H            5.14802837986328       -1.52964680015017        0.64483226577546
H            5.91093811848614       -2.31820388044476       -0.73585884902785
H           -3.27276645922864       -2.44481717705989        1.42267480865939
H           -4.87298454142401       -2.85951185613070       -0.41707790395089
H           -4.50550861703520       -1.90857161625126       -2.65397868743228
H           -2.51849137304832       -0.52851596881416       -3.13372081006467
H           -0.26657953986026        0.79034925057686       -3.10948503267681
H            1.85055883864010        1.93157565112900       -2.55290470449061
H            1.62025191105054        0.56668285315549        1.52703862254968

          :  Hamiltonian                  GFN2-xTB          :
         :: gradient norm              0.000163545776 Eh/a0 ::
         :: HOMO-LUMO gap              1.260059059307 eV    ::
         :: SCC energy               -75.584510108248 Eh    ::
         :: -> dispersion             -0.069863685829 Eh    ::
         :: -> Gsolv                  -0.027871331107 Eh    ::
         :: repulsion energy           1.167747625636 Eh    ::

    * Orbital Energies and Occupations

         #    Occupation            Energy/Eh            Energy/eV
      -------------------------------------------------------------
         1        2.0000           -0.8416890             -22.9035
       ...           ...                  ...                  ...
        59        2.0000           -0.4250236             -11.5655
        60        2.0000           -0.4232740             -11.5179
        61        2.0000           -0.4222645             -11.4904
        62        2.0000           -0.4211741             -11.4607
        63        2.0000           -0.4196388             -11.4190
        64        2.0000           -0.4181158             -11.3775
        65        2.0000           -0.4130268             -11.2390
        66        2.0000           -0.4127581             -11.2317
        67        2.0000           -0.4103433             -11.1660
        68        2.0000           -0.4087075             -11.1215
        69        2.0000           -0.3973649             -10.8129
        70        1.0000           -0.3697807             -10.0622
        71        1.0000           -0.2740648              -7.4577 (HOMO)
        72                         -0.2277581              -6.1976 (LUMO)
        73                         -0.2194149              -5.9706
        74                         -0.2012553              -5.4764
        75                         -0.2001964              -5.4476
        76                         -0.1279077              -3.4805
        77                         -0.0718885              -1.9562
        78                          0.0309408               0.8419
        79                          0.0315892               0.8596
        80                          0.0333038               0.9062
        81                          0.0361458               0.9836
        82                          0.0584788               1.5913
       ...                                ...                  ...
       142                          0.7294709              19.8499
      -------------------------------------------------------------
                  HL-Gap            0.0463066 Eh            1.2601 eV

     #   Z          covCN         q      C6AA      α(0)
     1   6 C        3.751    -0.100    22.472     6.760
     2   6 C        3.800    -0.053    21.524     6.606
     3   6 C        3.802    -0.057    21.601     6.617
     4   6 C        3.802    -0.059    21.628     6.621
     5   6 C        3.801    -0.056    21.577     6.613
     6   6 C        3.806    -0.060    21.641     6.622
     7   6 C        3.924     0.012    20.306     6.404
     8   6 C        3.805    -0.060    21.648     6.624
     9   6 C        3.800    -0.057    21.598     6.617
    10   6 C        3.801    -0.057    21.591     6.616
    11   6 C        3.802    -0.058    21.608     6.618
    12   6 C        3.801    -0.050    21.473     6.598
    13   6 C        3.752    -0.100    22.476     6.761
    14   6 C        3.046     0.010    27.743     8.639
    15   6 C        2.904    -0.035    28.859     8.809
    16   6 C        2.917    -0.036    28.903     8.816
    17   6 C        2.910    -0.028    28.708     8.786
    18   6 C        2.904    -0.040    28.994     8.829
    19   6 C        3.022     0.006    27.870     8.660
    20   6 C        3.021    -0.006    28.159     8.704
    21   6 C        2.906    -0.039    28.959     8.824
    22   6 C        2.972    -0.036    28.899     8.818
    23   6 C        2.913     0.061    26.643     8.464
    24  35 Br       1.050    -0.165   189.610    22.202
    25   6 C        2.967    -0.041    29.010     8.835
    26   6 C        3.047     0.013    27.682     8.629
    27   1 H        0.925     0.033     2.539     2.492
    28   1 H        0.925     0.032     2.559     2.502
    29   1 H        0.925     0.032     2.554     2.499
    30   1 H        0.924     0.029     2.607     2.525
    31   1 H        0.924     0.030     2.589     2.516
    32   1 H        0.924     0.028     2.617     2.530
    33   1 H        0.924     0.028     2.616     2.529
    34   1 H        0.925     0.040     2.447     2.446
    35   1 H        0.924     0.030     2.588     2.516
    36   1 H        0.924     0.034     2.536     2.490
    37   1 H        0.924     0.029     2.604     2.524
    38   1 H        0.924     0.041     2.436     2.441
    39   1 H        0.924     0.039     2.459     2.452
    40   1 H        0.924     0.042     2.427     2.436
    41   1 H        0.924     0.040     2.447     2.446
    42   1 H        0.924     0.036     2.509     2.477
    43   1 H        0.924     0.032     2.557     2.501
    44   1 H        0.924     0.027     2.625     2.534
    45   1 H        0.924     0.030     2.584     2.514
    46   1 H        0.924     0.031     2.570     2.507
    47   1 H        0.924     0.031     2.566     2.505
    48   1 H        0.924     0.023     2.687     2.563
    49   1 H        0.924     0.026     2.638     2.540
    50   1 H        0.925     0.034     2.535     2.490
    51   1 H        0.925     0.033     2.538     2.491
    52   1 H        0.925     0.032     2.554     2.499
    53   1 H        0.926     0.032     2.554     2.499
    54   1 H        0.926     0.032     2.565     2.504
    55   1 H        0.926     0.030     2.581     2.513
    56   1 H        0.926     0.030     2.584     2.514
    57   1 H        0.926     0.039     2.455     2.450
    58   1 H        0.926     0.041     2.436     2.441
    59   1 H        0.926     0.042     2.417     2.431

molecular dipole:
                 x           y           z       tot (Debye)
 q only:       -1.027      -0.718       0.335
   full:       -1.245      -0.796       0.176       3.783

 projected vibrational frequencies (cm⁻¹)
eigval :       -0.00    -0.00    -0.00    -0.00     0.00     0.00
eigval :       13.39    20.19    29.39    31.27    35.96    49.27
eigval :       58.71    59.68    72.69    96.20   103.19   109.44
eigval :      112.41   118.25   130.50   149.73   170.55   186.59
eigval :      199.26   211.64   227.40   233.07   248.98   252.33
eigval :      269.68   288.09   294.43   314.80   336.14   339.75
eigval :      397.56   399.44   404.73   444.62   452.96   457.88
eigval :      479.86   488.47   502.35   522.54   539.19   567.65
eigval :      586.87   656.77   670.05   692.77   703.94   739.75
eigval :      760.22   761.98   767.48   794.55   799.56   806.17
eigval :      806.87   845.53   853.28   866.06   881.57   888.04
eigval :      902.35   905.50   915.52   931.59   935.83   945.46
eigval :      955.96   975.70   992.97  1007.42  1010.86  1025.87
eigval :     1033.79  1040.57  1065.53  1071.59  1082.45  1092.14
eigval :     1106.59  1110.87  1117.41  1131.38  1133.80  1138.56
eigval :     1141.50  1149.70  1159.60  1160.11  1180.50  1188.59
eigval :     1193.58  1209.99  1226.32  1228.12  1252.42  1253.21
eigval :     1265.72  1275.20  1275.97  1284.96  1285.16  1287.39
eigval :     1291.88  1297.62  1313.32  1322.54  1326.06  1335.64
eigval :     1347.33  1349.40  1351.05  1354.05  1358.06  1363.94
eigval :     1369.93  1376.09  1376.81  1412.86  1415.70  1468.54
eigval :     1477.43  1481.75  1483.74  1485.10  1488.62  1489.39
eigval :     1491.20  1492.57  1493.37  1496.70  1498.58  1501.56
eigval :     1503.15  1504.10  1508.20  1541.63  1559.22  1635.10
eigval :     2948.07  2949.52  2951.33  2952.30  2954.74  2955.82
eigval :     2962.09  2962.62  2963.95  2964.37  2968.70  2972.28
eigval :     2974.18  2976.87  2978.05  2980.98  2986.74  2992.14
eigval :     2997.63  3011.88  3022.55  3022.64  3026.06  3027.29
eigval :     3033.29  3040.64  3067.30  3073.82  3081.69  3086.25
eigval :     3088.11  3096.73  3098.90

   temp. (K)  partition function   enthalpy   heat capacity  entropy
                                   cal/mol     cal/K/mol   cal/K/mol   J/K/mol
 298.15  VIB  0.776E+13            15917.718     93.807    101.605
         ROT  0.171E+08              888.752      2.981     36.073
         INT  0.132E+21            16806.471     96.788    137.678
         TR   0.813E+28             1481.254      4.968     43.929
         TOT                       18287.7245   101.7557   181.6070   759.8437

       T/K    H(0)-H(T)+PV         H(T)/Eh          T*S/Eh         G(T)/Eh
   ------------------------------------------------------------------------
    298.15    0.291433E-01    0.534170E+00    0.862873E-01    0.447883E+00
   ------------------------------------------------------------------------

         :::::::::::::::::::::::::::::::::::::::::::::::::::::
         ::                  THERMODYNAMIC                  ::
         :::::::::::::::::::::::::::::::::::::::::::::::::::::
         :: total free energy         -73.968879483232 Eh   ::
         ::.................................................::
         :: total energy              -74.416762484061 Eh   ::
         :: zero point energy           0.505027002354 Eh   ::
         :: G(RRHO) w/o ZPVE           -0.057144001526 Eh   ::
         :: G(RRHO) contrib.            0.447883000828 Eh   ::
         :::::::::::::::::::::::::::::::::::::::::::::::::::::

           -------------------------------------------------
          | TOTAL ENERGY              -74.416762484061 Eh   |
          | TOTAL ENTHALPY            -73.882592137705 Eh   |
          | TOTAL FREE ENERGY         -73.968879483232 Eh   |
          | GRADIENT NORM               0.000163561119 Eh/α |
          | HOMO-LUMO GAP               1.260067207586 eV   |
           -------------------------------------------------

 * finished run on 2025/09/10 at 08:38:11.946
