   * xtb version 6.7.1 (edcfbbe) compiled by 'albert@albert-system' on 2024-07-22

   ID    Z sym.   atoms
    1    6 C      1-9, 11-15, 17-21, 23-26, 28-44, 46-54
    2    7 N      10, 27, 45
    3    8 O      16, 22
    4    1 H      55-93

          program call               : xtb data2507/gas/25DAcBPy/25DAcBPy_gas_S0_finalOpt.xtbopt.xyz --gfn 2 --spinpol --tblite --uhf 2 --ohess vtight --parallel 40 --molden --ceasefiles --namespace data2507/gas/25DAcBPy/25DAcBPy_gas_T1_preOpt
 * total energy  :  -141.6892660 Eh     change        0.1186464E-08 Eh
 * total energy  :  -141.6926108 Eh     change       -0.3344806E-02 Eh
 * total energy  :  -141.6940068 Eh     change       -0.1396069E-02 Eh
 * total energy  :  -141.6942191 Eh     change       -0.2122387E-03 Eh
 * total energy  :  -141.6944394 Eh     change       -0.2203218E-03 Eh
 * total energy  :  -141.6945624 Eh     change       -0.1230188E-03 Eh
 * total energy  :  -141.6946946 Eh     change       -0.1322319E-03 Eh
 * total energy  :  -141.6947958 Eh     change       -0.1011726E-03 Eh
 * total energy  :  -141.6948725 Eh     change       -0.7668347E-04 Eh
 * total energy  :  -141.6949331 Eh     change       -0.6062725E-04 Eh
 * total energy  :  -141.6975101 Eh     change       -0.2425815E-06 Eh
 * total energy  :  -141.6975104 Eh     change       -0.2439854E-06 Eh
 * total energy  :  -141.6975104 Eh     change        0.1776124E-07 Eh
 * total energy  :  -141.6975103 Eh     change        0.4179898E-07 Eh
 * total energy  :  -141.6975106 Eh     change       -0.2618444E-06 Eh
 * total energy  :  -141.6975108 Eh     change       -0.2390914E-06 Eh
 * total energy  :  -141.6975109 Eh     change       -0.1110666E-06 Eh
 * total energy  :  -141.6975111 Eh     change       -0.1375898E-06 Eh
 * total energy  :  -141.6975111 Eh     change       -0.7077364E-07 Eh
   *** GEOMETRY OPTIMIZATION CONVERGED AFTER 386 ITERATIONS ***

 final structure:
================
93
 xtb: 6.7.1 (edcfbbe)
C            8.61181125964054        2.98184068258333        1.97910173862841
C            7.60634650364671        2.77242288418161        0.83150492475740
C            7.60588592892941        3.99450852781676       -0.10580092429963
C            6.22072249031324        2.61485568336159        1.42485241200074
C            5.67930084580080        3.64007037002070        2.18780474528129
C            4.42324010447964        3.54497548042583        2.75811612677452
C            3.67719438366228        2.39342755548632        2.57191111400335
C            4.18897292800060        1.35943629411112        1.81916783931607
C            5.45713617440921        1.45585036504131        1.23397321203558
N            5.94127773007791        0.40390366898534        0.48107253939285
C            5.12686598480042       -0.75286373399563        0.30910198912751
C            4.18007971736071       -0.78735527437206       -0.70780063595420
C            3.38379867383391       -1.90459102878818       -0.87165660900791
C            3.52702749446167       -3.00087445489141       -0.02311643266896
C            2.73278202687909       -4.24776284806257       -0.20358806393526
O            3.26958656115608       -5.34621356503827       -0.08694867572667
C            1.31764924889241       -4.11081121037760       -0.51605109857182
C            0.58564755488970       -5.21467217864920       -1.02390022355347
C           -0.74376079356500       -5.09820718193847       -1.29182117512861
C           -1.40095495421927       -3.86456678499560       -1.03737925037081
C           -2.81222140607960       -3.76918611835195       -1.34759435417886
O           -3.41252826279972       -4.74511207098125       -1.83590448378573
C           -3.55589731316072       -2.51957747509485       -1.09215971135805
C           -4.91383117888715       -2.52195076929717       -1.44400119250311
C           -5.69889340130691       -1.41060850446929       -1.24234458939708
C           -5.14521838667982       -0.26433265923490       -0.67897997297485
N           -5.94374426073372        0.89308844128295       -0.45971369437997
C           -6.61737617088176        1.02308540573019        0.73912239160110
C           -6.51503268698378        0.00923722993961        1.69975660172505
C           -7.17867505029835        0.10717171401637        2.90253533440123
C           -7.95756603313686        1.22059667798235        3.17144003296011
C           -8.05903330689577        2.22408676818411        2.22564729298326
C           -7.40207895815036        2.15315234353244        1.00494786067232
C           -7.54968651027676        3.28332596890955        0.00647556818447
C           -7.03061442409027        4.58169637184930        0.65241927543571
C           -9.03901457060672        3.42838599463068       -0.35795816988507
C           -6.76294650448764        3.02476991245712       -1.26245202666712
C           -6.78678693567153        3.95912731096093       -2.28866618084057
C           -6.08978547040953        3.77008743235444       -3.46775895019308
C           -5.34353713461075        2.61597612006307       -3.64047102775016
C           -5.30096686391904        1.67109078635283       -2.63944283694933
C           -6.00429421598931        1.86062382928854       -1.44335937485854
C           -3.79958495763638       -0.24781598805830       -0.32387096484822
C           -3.01662838737958       -1.36422458864730       -0.53029262412762
N           -0.69582462692131       -2.85414497749148       -0.51839058678548
C            0.57763898904828       -2.94462925907803       -0.26602449411545
C            4.50064786285655       -2.96759336261057        0.97342086858138
C            5.28888678821157       -1.84822823477942        1.14947314460336
C            7.19006576375401        0.43659533815052       -0.11036414871267
C            7.62237822922744       -0.65673754870423       -0.87027144803488
C            8.86314370389092       -0.65410653169410       -1.46867991203077
C            9.69657901567706        0.44212669378518       -1.32260604460185
C            9.26894008532101        1.52641865952780       -0.57879071056827
C            8.02451345685966        1.55228510290017        0.03546408998460
H            8.60703015340945        2.11592691291121        2.63841144826515
H            8.35461258344938        3.86004552422519        2.56446395799990
H            9.61854069746340        3.11323024640109        1.59287254657725
H            7.32301433621244        4.89512671049454        0.43173926544902
H            6.89533554099087        3.84007307523340       -0.91566305153613
H            8.58990615852611        4.15120552445298       -0.53834886859331
H            6.24998246301807        4.54237564015123        2.34626368436559
H            4.03246084550202        4.36176582195677        3.34518583044506
H            2.69686684033663        2.29906758097631        3.01388283599633
H            3.60749764702708        0.46131362757966        1.68006956172362
H            4.07770228102199        0.06304434886393       -1.36600864717105
H            2.66620115486042       -1.93724081291773       -1.67812655350702
H            1.11537635249235       -6.13937404274996       -1.19812624248639
H           -1.34086398104919       -5.90257009928745       -1.69355311451383
H           -5.31995286114770       -3.42390630798386       -1.87715064604137
H           -6.74386358296981       -1.41550589978982       -1.51510312753632
H           -5.90789819759306       -0.85797019047023        1.49247110999355
H           -7.08762818294426       -0.68534284171332        3.62954097643635
H           -8.48203428957843        1.30788783010393        4.11048027894181
H           -8.66937931866221        3.08521303010005        2.45126371992455
H           -5.97888643875311        4.47257175946955        0.91034197422835
H           -7.58399679008538        4.81141946945622        1.55848852522513
H           -7.13123859899920        5.42085561474341       -0.02998795430232
H           -9.18809374340166        4.24149479632118       -1.06265190673733
H           -9.40013911922429        2.50829688467089       -0.81344485136805
H           -9.63636466661804        3.63072882890347        0.52645201079529
H           -7.36458378328024        4.86313723632773       -2.17078329917128
H           -6.13007769317545        4.51738577529180       -4.24521460239065
H           -4.79467157389629        2.45123405818484       -4.55512950533122
H           -4.71995251352268        0.77241764356839       -2.77555335973202
H           -3.37946136108140        0.64645036397865        0.11339749569393
H           -1.97107870744386       -1.35395412061808       -0.25470470336433
H            1.03696703900138       -2.07244840022187        0.18219754321209
H            4.62381171110805       -3.83318018979831        1.60647810742401
H            6.03680948492332       -1.81482980557733        1.92786158306536
H            6.97489523898514       -1.51137343081136       -0.98885044647884
H            9.17805918857357       -1.50779170853160       -2.04913983073948
H           10.67107082518478        0.45473070395923       -1.78589465169401
H            9.92866792872425        2.37472055711678       -0.47808661626025

 projected vibrational frequencies (cm⁻¹)
eigval :       -0.00    -0.00    -0.00    -0.00     0.00     0.00
eigval :        3.57     4.32     7.10    12.88    18.74    24.15
eigval :       27.65    31.78    37.95    39.42    48.06    58.04
eigval :       76.92    81.11    88.73    95.96    97.33   101.21
eigval :      104.01   128.93   129.26   131.05   132.67   149.33
eigval :      158.85   167.07   191.36   191.78   199.26   211.99
eigval :      218.15   218.26   224.97   234.36   235.10   248.46
eigval :      258.84   294.14   298.36   310.00   317.15   324.53
eigval :      328.06   328.60   338.69   342.18   342.38   371.58
eigval :      372.97   378.31   379.44   387.17   392.72   395.61
eigval :      403.54   409.01   411.80   424.45   429.43   449.37
eigval :      450.05   450.06   479.33   482.67   499.08   505.84
eigval :      509.51   510.39   530.96   544.84   545.17   545.86
eigval :      556.74   570.07   576.65   581.97   587.06   592.73
eigval :      598.24   605.58   607.43   621.43   625.68   645.22
eigval :      650.40   663.97   676.40   684.84   685.56   690.60
eigval :      696.95   698.14   700.39   717.62   719.50   746.24
eigval :      771.70   774.88   775.47   776.69   776.93   812.36
eigval :      815.60   819.49   826.96   827.73   858.39   866.23
eigval :      868.42   868.67   869.24   869.76   881.97   883.78
eigval :      905.67   906.77   907.68   914.23   914.80   914.96
eigval :      915.19   915.52   916.15   919.56   921.47   921.68
eigval :      922.56   922.60   922.79   931.20   932.21   937.99
eigval :      938.77   955.46   957.67   957.80   989.43  1013.77
eigval :     1013.80  1014.31  1021.13  1076.51  1076.65  1085.93
eigval :     1086.36  1108.35  1109.47  1110.58  1115.13  1115.96
eigval :     1119.66  1128.24  1139.38  1139.73  1145.52  1155.21
eigval :     1155.96  1166.84  1169.51  1173.41  1181.17  1185.25
eigval :     1185.54  1185.75  1185.91  1186.42  1204.62  1208.62
eigval :     1217.24  1239.99  1242.99  1245.44  1246.51  1248.08
eigval :     1251.44  1259.73  1262.15  1263.89  1264.99  1294.59
eigval :     1294.61  1308.53  1308.67  1311.75  1317.05  1319.86
eigval :     1322.43  1324.34  1333.88  1335.05  1335.17  1336.22
eigval :     1394.48  1397.32  1398.24  1402.14  1402.26  1417.02
eigval :     1420.25  1420.42  1431.46  1432.84  1434.08  1434.76
eigval :     1443.97  1453.84  1463.56  1465.47  1469.88  1479.59
eigval :     1485.28  1488.05  1488.36  1488.84  1489.02  1490.68
eigval :     1498.71  1498.86  1502.54  1502.89  1536.57  1554.77
eigval :     1557.19  1563.06  1564.68  1574.71  1578.55  1578.76
eigval :     1583.80  1584.70  1586.37  1594.69  1596.28  1609.71
eigval :     3028.43  3028.93  3030.41  3030.98  3041.83  3042.65
eigval :     3042.98  3045.18  3045.49  3049.13  3051.63  3051.89
eigval :     3055.12  3055.44  3080.56  3081.96  3083.24  3083.93
eigval :     3084.06  3084.17  3084.37  3085.15  3086.55  3087.93
eigval :     3089.30  3089.54  3089.72  3091.55  3095.38  3095.47
eigval :     3098.11  3099.16  3099.32  3099.66  3100.92  3104.05
eigval :     3106.80  3107.13  3107.44

   temp. (K)  partition function   enthalpy   heat capacity  entropy
                                   cal/mol     cal/K/mol   cal/K/mol   J/K/mol
 298.15  VIB  0.205E+24            27525.598    169.517    174.487
         ROT  0.181E+09              888.752      2.981     40.772
         INT  0.371E+32            28414.351    172.498    215.258
         TR   0.180E+29             1481.254      4.968     45.506
         TOT                       29895.6046   177.4659   260.7639  1091.0362

       T/K    H(0)-H(T)+PV         H(T)/Eh          T*S/Eh         G(T)/Eh
   ------------------------------------------------------------------------
    298.15    0.476417E-01    0.774790E+00    0.123897E+00    0.650893E+00
   ------------------------------------------------------------------------

         :::::::::::::::::::::::::::::::::::::::::::::::::::::
         ::                  THERMODYNAMIC                  ::
         :::::::::::::::::::::::::::::::::::::::::::::::::::::
         :: total free energy        -141.046618564990 Eh   ::
         ::.................................................::
         :: total energy             -141.697511169582 Eh   ::
         :: zero point energy           0.727148275154 Eh   ::
         :: G(RRHO) w/o ZPVE           -0.076255670561 Eh   ::
         :: G(RRHO) contrib.            0.650892604593 Eh   ::
         :::::::::::::::::::::::::::::::::::::::::::::::::::::

           -------------------------------------------------
          | TOTAL ENERGY             -141.697511169582 Eh   |
          | TOTAL ENTHALPY           -140.922721215974 Eh   |
          | TOTAL FREE ENERGY        -141.046618564990 Eh   |
          | GRADIENT NORM               0.000124202964 Eh/α |
           -------------------------------------------------

 * finished run on 2025/09/07 at 03:46:36.796
