   * xtb version 6.7.1 (edcfbbe) compiled by 'albert@albert-system' on 2024-07-22

   ID    Z sym.   atoms
    1    6 C      1-9, 11-15, 17-21, 23-26, 28-44, 46-54
    2    7 N      10, 27, 45
    3    8 O      16, 22
    4    1 H      55-93

          program call               : xtb data2507/gas/25DAcBPy/25DAcBPy_gas_T1_crest.xyz --gfn 2 --spinpol --tblite --uhf 2 --ohess vtight --parallel 40 --molden --ceasefiles --namespace data2507/gas/25DAcBPy/25DAcBPy_gas_T1_finalOpt
 * total energy  :  -141.6991296 Eh     change        0.3452993E-07 Eh
 * total energy  :  -141.6991416 Eh     change       -0.1201886E-04 Eh
 * total energy  :  -141.6991480 Eh     change       -0.6407442E-05 Eh
 * total energy  :  -141.6991503 Eh     change       -0.2303417E-05 Eh
 * total energy  :  -141.6991557 Eh     change       -0.5395167E-05 Eh
 * total energy  :  -141.6991640 Eh     change       -0.8348748E-05 Eh
 * total energy  :  -141.6991735 Eh     change       -0.9487029E-05 Eh
 * total energy  :  -141.6991823 Eh     change       -0.8790341E-05 Eh
 * total energy  :  -141.6991897 Eh     change       -0.7424794E-05 Eh
 * total energy  :  -141.6991956 Eh     change       -0.5831859E-05 Eh
 * total energy  :  -141.6993120 Eh     change       -0.4806710E-06 Eh
 * total energy  :  -141.6993127 Eh     change       -0.6839862E-06 Eh
 * total energy  :  -141.6993123 Eh     change        0.4188705E-06 Eh
 * total energy  :  -141.6993131 Eh     change       -0.7755068E-06 Eh
 * total energy  :  -141.6993133 Eh     change       -0.2608419E-06 Eh
 * total energy  :  -141.6993138 Eh     change       -0.4607027E-06 Eh
 * total energy  :  -141.6993141 Eh     change       -0.2615269E-06 Eh
 * total energy  :  -141.6993141 Eh     change       -0.2628482E-07 Eh
 * total energy  :  -141.6993141 Eh     change       -0.4422373E-07 Eh
   *** GEOMETRY OPTIMIZATION CONVERGED AFTER 76 ITERATIONS ***

 final structure:
================
93
 xtb: 6.7.1 (edcfbbe)
C           10.90902970369317       -0.15747528877849        2.04502633305515
C           10.38550507104340       -0.24483466276394        0.59928917550384
C           11.54373777095064       -0.54953946319587       -0.36894630122055
C            9.77704354244472        1.09113762596274        0.22189707811928
C           10.56336510420710        2.23467870820091        0.24273602967054
C           10.05871873759613        3.47731995074462       -0.09360925208033
C            8.72982667280004        3.59434997659791       -0.46490268071563
C            7.92517762659059        2.47658540604790       -0.49458789945850
C            8.43330252388132        1.21771847319557       -0.15313690297717
N            7.60161435561640        0.11487408263240       -0.19078513030884
C            6.23985233118271        0.28987354831802       -0.57320739058252
C            5.28149311345866        0.57495970522640        0.39204982393376
C            3.95831369960666        0.73150119066282        0.02563026922736
C            3.58043874356448        0.60651639434650       -1.30925149441451
C            2.17203058695848        0.81485401139895       -1.75481517978315
O            1.93946408661738        1.49007993579486       -2.75602040800417
C            1.12808486173787        0.18594420243488       -0.96910333342668
C            1.31930599223331       -0.83141620854941       -0.00097900919223
C            0.24961328793294       -1.35689656695493        0.65985542449647
C           -1.05989216412295       -0.88913381343458        0.37196994897963
C           -2.16591755457794       -1.45839685039991        1.11308127625874
O           -1.95661789029550       -2.31081829980064        1.99431126935869
C           -3.55405937966911       -1.03366408273584        0.83138023707583
C           -3.93209441591098       -0.14836455677866       -0.17537619897166
C           -5.25856039349404        0.17848995209313       -0.36593855096314
C           -6.23789338456615       -0.37689679540261        0.45204560648786
N           -7.60341761438185       -0.03375635323389        0.24548073090431
C           -8.38144595226388       -0.84185069406001       -0.56078509217282
C           -7.81673936030162       -1.98457857873610       -1.14067287135238
C           -8.56879137432323       -2.81438841925146       -1.94233838888769
C           -9.90028706955609       -2.51878925896097       -2.18359354876710
C          -10.45890775998414       -1.38771362005003       -1.61759684721916
C           -9.72593582270636       -0.53281142441037       -0.80605460732019
C          -10.38979865656536        0.69559484587171       -0.21753887083259
C          -11.57299831598432        0.24509777283215        0.65951513566643
C          -10.89024706226847        1.58464570253548       -1.37136394355968
C           -9.43327023692036        1.50182334150517        0.63748004152680
C           -9.87625521362276        2.66256411007104        1.25650493863759
C           -9.04719736378908        3.42971402541294        2.05390357995549
C           -7.73458717253975        3.03381314386606        2.25092639101876
C           -7.26691771375155        1.88671151327892        1.64906363918616
C           -8.10219419392478        1.11153073636076        0.83523005228938
C           -5.87622418496691       -1.26412042693797        1.46149784384944
C           -4.55160800875297       -1.58883020484489        1.64472419862497
N           -1.21141612670738        0.04998534624800       -0.57002507332666
C           -0.20820148071250        0.55821524239922       -1.21376825924260
C            4.55332701266084        0.35449942701836       -2.27373576209554
C            5.87438689780159        0.18519391272792       -1.91000321779814
C            8.04616633429380       -1.15259590156780        0.13255571983760
C            7.15587334073052       -2.23136937206886        0.07537445431719
C            7.56940022476880       -3.50670515956307        0.39199532731540
C            8.88182278864435       -3.73071394947225        0.77233961094929
C            9.76345738354864       -2.66702809978461        0.82981524637963
C            9.37528432128069       -1.37171968883494        0.51700312933611
H           10.08648359697109        0.05761700107533        2.72452811559343
H           11.64929874719662        0.63157494319825        2.14207480025852
H           11.36822489945644       -1.09413027853280        2.34812149773403
H           11.16809508769688       -0.60934698204074       -1.38868826791909
H           12.01689251446819       -1.49560845980824       -0.12168586474966
H           12.29907188494910        0.23003293136309       -0.32693985838425
H           11.60142429809523        2.16029883379449        0.52899372038256
H           10.69824891504265        4.34608977469896       -0.06637477167060
H            8.31865458214999        4.55592184529526       -0.73197933063032
H            6.89060560953956        2.57124719538511       -0.78544777296814
H            5.58188719885103        0.67503945158881        1.42476714469696
H            3.22049652298165        0.97644812688421        0.77525018392919
H            2.31236532384049       -1.21012621602450        0.19330029249703
H            0.34169563586552       -2.13478272919208        1.40263615559556
H           -3.16992283189735        0.28414612448039       -0.80904864245554
H           -5.54955061511925        0.86466086102123       -1.14795812065593
H           -6.77902413587197       -2.21481996230075       -0.95705550975870
H           -8.11510451342173       -3.69091512212329       -2.37913310228048
H          -10.49923429116277       -3.16215298220179       -2.80957007587242
H          -11.49674084452619       -1.16970642280462       -1.81849830551149
H          -11.21323224880381       -0.38179586740217        1.47320018245441
H          -12.29091917912651       -0.32617271548043        0.07794624079937
H          -12.08613488159858        1.10155214469782        1.08750075455415
H          -10.05034622360784        1.89945339413523       -1.98775655093066
H          -11.59320998790412        1.04482193667089       -1.99938891135529
H          -11.38700971642368        2.47190740876849       -0.98929443783814
H          -10.89746144434228        2.98274486472932        1.11650418976228
H           -9.42394691718859        4.32756392458094        2.51912423671958
H           -7.07456167026529        3.61804164240955        2.87382173780539
H           -6.24494784793622        1.57885803510726        1.80549534621110
H           -6.64221257752996       -1.69114762252898        2.09190639948812
H           -4.24580728284834       -2.27668582670447        2.41896584089881
H           -0.41519691090522        1.31046326670320       -1.96415795477368
H            4.25481960472540        0.29010109898853       -3.30900804030920
H            6.62989164056212       -0.02352733369346       -2.65296400939468
H            6.13290708834374       -2.06004085878505       -0.22174954384330
H            6.86695602908735       -4.32472803467287        0.34159072184326
H            9.21719199164716       -4.72537625902350        1.02253597577001
H           10.78292822752630       -2.85847896567122        1.12818534692442

 projected vibrational frequencies (cm⁻¹)
eigval :       -0.00    -0.00    -0.00    -0.00    -0.00     0.00
eigval :        3.03     5.04     6.64    11.00    18.20    23.61
eigval :       28.13    31.46    37.05    41.77    48.57    58.52
eigval :       69.33    71.72    88.01    95.95    97.25   101.16
eigval :      101.77   128.90   128.99   135.30   138.93   151.53
eigval :      153.37   170.00   191.28   191.49   198.23   211.34
eigval :      218.11   218.38   229.29   233.23   234.28   247.29
eigval :      265.38   288.52   299.01   307.54   315.75   320.34
eigval :      328.17   328.55   341.15   342.25   344.18   371.67
eigval :      372.24   377.77   379.50   386.43   394.69   396.10
eigval :      403.46   408.55   411.69   416.74   440.14   448.69
eigval :      449.92   450.07   479.87   489.95   498.83   505.67
eigval :      509.59   510.51   537.78   540.73   544.92   545.20
eigval :      556.75   570.99   572.93   582.12   587.20   592.29
eigval :      597.51   605.10   607.80   619.03   627.81   643.83
eigval :      649.68   665.98   675.93   684.71   685.51   689.51
eigval :      696.77   698.04   702.60   715.40   721.21   746.25
eigval :      772.34   774.87   775.30   776.55   776.80   812.12
eigval :      814.08   818.24   827.08   827.83   859.80   866.45
eigval :      867.96   868.49   869.04   872.06   879.06   881.05
eigval :      904.20   907.73   908.01   914.20   914.63   914.98
eigval :      915.36   915.64   916.49   919.39   921.80   922.23
eigval :      922.38   922.41   922.57   930.06   933.95   937.94
eigval :      938.56   957.52   957.62   957.96   993.03  1013.61
eigval :     1013.65  1014.68  1022.29  1076.48  1076.66  1085.73
eigval :     1086.30  1108.95  1109.68  1115.47  1116.11  1120.69
eigval :     1124.20  1128.77  1139.47  1139.79  1147.69  1155.25
eigval :     1156.10  1167.01  1169.07  1174.80  1181.19  1185.13
eigval :     1185.20  1185.40  1185.69  1185.88  1202.36  1205.04
eigval :     1215.25  1237.26  1242.26  1245.55  1246.39  1246.47
eigval :     1248.89  1259.05  1261.88  1263.39  1264.28  1294.31
eigval :     1294.39  1296.47  1308.67  1309.53  1317.51  1318.56
eigval :     1322.57  1324.29  1333.77  1334.83  1334.95  1336.52
eigval :     1390.71  1396.73  1401.64  1401.98  1402.93  1408.98
eigval :     1419.31  1419.49  1431.45  1432.84  1434.07  1434.75
eigval :     1453.65  1456.05  1463.41  1465.53  1469.01  1483.56
eigval :     1486.78  1487.69  1488.02  1488.45  1488.77  1495.12
eigval :     1498.27  1498.59  1502.18  1502.56  1540.54  1557.10
eigval :     1558.23  1563.31  1564.89  1574.87  1578.95  1579.73
eigval :     1583.92  1584.87  1586.76  1594.86  1595.41  1603.51
eigval :     3028.35  3028.90  3030.12  3030.61  3042.30  3042.73
eigval :     3044.79  3045.21  3046.39  3050.73  3051.09  3054.32
eigval :     3054.63  3054.84  3070.03  3081.47  3082.78  3083.38
eigval :     3083.58  3083.75  3083.92  3084.50  3086.42  3087.97
eigval :     3088.56  3089.02  3089.28  3092.04  3092.44  3095.01
eigval :     3098.06  3098.36  3098.84  3099.22  3101.03  3104.10
eigval :     3105.68  3106.76  3107.30

   temp. (K)  partition function   enthalpy   heat capacity  entropy
                                   cal/mol     cal/K/mol   cal/K/mol   J/K/mol
 298.15  VIB  0.301E+24            27538.916    169.422    174.949
         ROT  0.181E+09              888.752      2.981     40.769
         INT  0.545E+32            28427.668    172.403    215.719
         TR   0.180E+29             1481.254      4.968     45.506
         TOT                       29908.9224   177.3711   261.2245  1092.9634

       T/K    H(0)-H(T)+PV         H(T)/Eh          T*S/Eh         G(T)/Eh
   ------------------------------------------------------------------------
    298.15    0.476629E-01    0.774753E+00    0.124116E+00    0.650637E+00
   ------------------------------------------------------------------------

         :::::::::::::::::::::::::::::::::::::::::::::::::::::
         ::                  THERMODYNAMIC                  ::
         :::::::::::::::::::::::::::::::::::::::::::::::::::::
         :: total free energy        -141.048677188416 Eh   ::
         ::.................................................::
         :: total energy             -141.699314215182 Eh   ::
         :: zero point energy           0.727090322599 Eh   ::
         :: G(RRHO) w/o ZPVE           -0.076453295833 Eh   ::
         :: G(RRHO) contrib.            0.650637026766 Eh   ::
         :::::::::::::::::::::::::::::::::::::::::::::::::::::

           -------------------------------------------------
          | TOTAL ENERGY             -141.699314215182 Eh   |
          | TOTAL ENTHALPY           -140.924560990900 Eh   |
          | TOTAL FREE ENERGY        -141.048677188416 Eh   |
          | GRADIENT NORM               0.000087336257 Eh/α |
           -------------------------------------------------

 * finished run on 2025/09/07 at 03:59:58.940
