   * xtb version 6.7.1 (edcfbbe) compiled by 'albert@albert-system' on 2024-07-22

   ID    Z sym.   atoms
    1    6 C      1-9, 11-15, 17-21, 23-26, 28-44, 46-54
    2    7 N      10, 27, 45
    3    8 O      16, 22
    4    1 H      55-93

          program call               : xtb data2507/gas/25DAcBPy/25DAcBPy_gas_S0_crest.xyz --gfn 2 --ohess vtight --parallel 40 --molden --ceasefiles --namespace data2507/gas/25DAcBPy/25DAcBPy_gas_S0_finalOpt
          :  Hamiltonian                  GFN2-xTB          :
 * total energy  :  -141.7487500 Eh     change       -0.2328250E-08 Eh
 * total energy  :  -141.7487507 Eh     change       -0.7635002E-06 Eh
 * total energy  :  -141.7487526 Eh     change       -0.1901389E-05 Eh
 * total energy  :  -141.7487576 Eh     change       -0.4913919E-05 Eh
 * total energy  :  -141.7487639 Eh     change       -0.6377825E-05 Eh
 * total energy  :  -141.7487679 Eh     change       -0.4003317E-05 Eh
 * total energy  :  -141.7487708 Eh     change       -0.2815327E-05 Eh
 * total energy  :  -141.7487738 Eh     change       -0.3009582E-05 Eh
 * total energy  :  -141.7487778 Eh     change       -0.4044276E-05 Eh
 * total energy  :  -141.7487814 Eh     change       -0.3594785E-05 Eh
 * total energy  :  -141.7488393 Eh     change       -0.5405897E-06 Eh
 * total energy  :  -141.7488401 Eh     change       -0.7346889E-06 Eh
 * total energy  :  -141.7488408 Eh     change       -0.7374212E-06 Eh
 * total energy  :  -141.7488410 Eh     change       -0.1840764E-06 Eh
 * total energy  :  -141.7488415 Eh     change       -0.4639648E-06 Eh
 * total energy  :  -141.7488416 Eh     change       -0.1369421E-06 Eh
 * total energy  :  -141.7488418 Eh     change       -0.2495361E-06 Eh
 * total energy  :  -141.7488421 Eh     change       -0.2301022E-06 Eh
 * total energy  :  -141.7488421 Eh     change       -0.2908652E-07 Eh
   *** GEOMETRY OPTIMIZATION CONVERGED AFTER 49 ITERATIONS ***

 final structure:
================
93
 xtb: 6.7.1 (edcfbbe)
C            7.20869987606155        4.07025568215608        0.82771626582326
C            6.59222626965945        3.23071547298815       -0.30615833680294
C            6.72979916598584        3.96672569666498       -1.65150036584506
C            5.11979379606501        3.02785262370938       -0.00706165265278
C            4.29324052329627        4.13693604304904        0.11712685455416
C            2.95246477518330        4.02385163559596        0.43212723926960
C            2.41751708243192        2.76892355037214        0.65819199011734
C            3.21581698020018        1.65099281352631        0.53898407651483
C            4.56262036961669        1.75869085848985        0.17826816653841
N            5.34024298764226        0.61259656864522        0.04944117287332
C            4.72687162453288       -0.64938786046174        0.21253531177525
C            3.78327654508994       -1.08761183745353       -0.71485545187150
C            3.13319531179711       -2.29000981683224       -0.53168777660808
C            3.42706453564774       -3.08511671977103        0.57673962823301
C            2.71783175069651       -4.35918420407304        0.83618499005120
O            3.24017112304668       -5.30238593013003        1.39338255746630
C            1.29375027854387       -4.39930362283295        0.40789396533207
C            0.70820380245421       -5.59470403184626       -0.00692122187704
C           -0.61863243881928       -5.59388619555961       -0.39427637015663
C           -1.32382655831034       -4.39031047139369       -0.35796950222211
C           -2.72573438667783       -4.32641281725500       -0.87429766003692
O           -3.18520898941479       -5.23006793556076       -1.54310270905728
C           -3.46072901326221       -3.07582528342873       -0.59274031693680
C           -4.28973635929977       -2.56140599321004       -1.59002045344513
C           -4.91921328455324       -1.34578100982613       -1.42110737763153
C           -4.74882671316382       -0.63489017189840       -0.23579034442666
N           -5.34425446449130        0.63753835798948       -0.06954861271952
C           -6.72501091650057        0.73731454325595        0.04234022087864
C           -7.50674415302555       -0.42189050591360        0.04108904504137
C           -8.88030202548688       -0.35326781188938        0.13834323118236
C           -9.50246244557323        0.87682453731982        0.25138550795683
C           -8.72963562347416        2.02191028974730        0.28972562881233
C           -7.34484217252681        1.98148796828477        0.19548333888115
C           -6.55588740235128        3.27299299415793        0.29019325576477
C           -6.84860123750675        3.92459708212250        1.65413789239530
C           -6.99264530108664        4.20752589938771       -0.85280963271055
C           -5.06313309167595        3.03409687534311        0.17201922451063
C           -4.19537523938365        4.11672281201605        0.22948766427255
C           -2.82839013068510        3.97181863869256        0.08693452156706
C           -2.30508667570269        2.71261940410624       -0.14367098817652
C           -3.14360902275948        1.61957191332230       -0.20162362235238
C           -4.52349192404618        1.75806502972843       -0.01973380081391
C           -3.97490408701416       -1.17737755617626        0.78745084033055
C           -3.33057652657408       -2.38395645695524        0.61071562506476
N           -0.77714788362492       -3.25821102357432        0.07897405296028
C            0.47843352552464       -3.26451445778323        0.46171718474431
C            4.41412510744848       -2.67051248456605        1.47082304372574
C            5.04943348280611       -1.45819269092020        1.30042153274125
C            6.69736666258019        0.67999852101619       -0.24551916590569
C            7.42716931295458       -0.49785859383854       -0.43092708448235
C            8.77702479479438       -0.46196936877491       -0.70965623322689
C            9.42498172905384        0.75463891962350       -0.82199735897625
C            8.69764059549357        1.92092002146741       -0.67921748147718
C            7.33713838744610        1.91350018482664       -0.40083265842937
H            7.10043606914624        3.54708659663572        1.77606161284748
H            6.71493160725306        5.03442504562300        0.91027160742199
H            8.26640391795728        4.24408772993087        0.65091939636888
H            6.21751414476413        4.92438396528744       -1.62443393756201
H            6.29373959512345        3.36633563881021       -2.44786202634931
H            7.77392010153317        4.14681970760140       -1.89119722300691
H            4.70523579426265        5.12329895377348       -0.03237993114434
H            2.33765498707177        4.90682100871113        0.51521439046815
H            1.37982885311852        2.65599743928344        0.93490789063734
H            2.78938474126209        0.68010508894238        0.73796976151761
H            3.55878201367765       -0.46884370149919       -1.57092605545202
H            2.41142240661380       -2.62347374296714       -1.26270007760623
H            1.30517623989027       -6.49477062853461       -0.03206420900677
H           -1.11791108721189       -6.48813550957498       -0.73309062111528
H           -4.40184221525792       -3.11598670759873       -2.50968671072671
H           -5.53641389665333       -0.93157409472837       -2.20455016733599
H           -7.03101458970089       -1.38779546688733       -0.02829067562374
H           -9.46145288150769       -1.26318715870867        0.13011166995974
H          -10.57719191609728        0.94484588074531        0.32285185994675
H           -9.22577036843900        2.97429307320582        0.40000773898384
H           -6.53911490435564        3.25737967552865        2.45652871299298
H           -7.90969647021310        4.12783458896766        1.76813003826160
H           -6.30958009846722        4.86191619367056        1.76047522967569
H           -6.46519424452312        5.15601267327429       -0.80288777623755
H           -6.77442165917150        3.74380463193646       -1.81307392109584
H           -8.05909802213879        4.40888143223552       -0.80380656236494
H           -4.59427244229368        5.10734076981937        0.38699438399568
H           -2.18239522053463        4.83476838532086        0.14113205042631
H           -1.24316904481796        2.57738749654984       -0.28658975281309
H           -2.72305436633633        0.64583692367255       -0.39876201587309
H           -3.87405821538130       -0.63310810862744        1.71480692248864
H           -2.74079938665326       -2.79766793209296        1.41238911697940
H            0.85499992599109       -2.32218185144991        0.83864005541639
H            4.64792037938302       -3.30329720956115        2.31376807820378
H            5.79264058515870       -1.12254129276734        2.00818642168781
H            6.92967986290361       -1.45301133903875       -0.36530735867332
H            9.31835969001005       -1.38650762449375       -0.84299040953081
H           10.48241031293990        0.79685987002213       -1.03327343110289
H            9.20994521707307        2.86420236188342       -0.79272366820895

          :  Hamiltonian                  GFN2-xTB          :
         :: gradient norm              0.000165693966 Eh/a0 ::
         :: HOMO-LUMO gap              0.856985952391 eV    ::
         :: SCC energy              -144.213680519825 Eh    ::
         :: -> dispersion             -0.129078660695 Eh    ::
         :: repulsion energy           2.464838417687 Eh    ::

    * Orbital Energies and Occupations

         #    Occupation            Energy/Eh            Energy/eV
      -------------------------------------------------------------
         1        2.0000           -0.7187340             -19.5577
       ...           ...                  ...                  ...
       119        2.0000           -0.4103065             -11.1650
       120        2.0000           -0.4086202             -11.1191
       121        2.0000           -0.4083373             -11.1114
       122        2.0000           -0.4078239             -11.0975
       123        2.0000           -0.4064321             -11.0596
       124        2.0000           -0.4039147             -10.9911
       125        2.0000           -0.4020566             -10.9405
       126        2.0000           -0.3982325             -10.8365
       127        2.0000           -0.3967495             -10.7961
       128        2.0000           -0.3929365             -10.6923
       129        2.0000           -0.3846850             -10.4678
       130        2.0000           -0.3526738              -9.5967
       131        2.0000           -0.3480225              -9.4702 (HOMO)
       132        0.0000           -0.3165288              -8.6132 (LUMO)
       133                         -0.2876903              -7.8285
       134                         -0.2688125              -7.3148
       135                         -0.2543710              -6.9218
       136                         -0.2488637              -6.7719
       137                         -0.2403369              -6.5399
       138                         -0.2287753              -6.2253
       139                         -0.2249728              -6.1218
       140                         -0.2247981              -6.1171
       141                         -0.2227549              -6.0615
       142                         -0.2221620              -6.0453
       ...                                ...                  ...
       255                          0.6860050              18.6671
      -------------------------------------------------------------
                  HL-Gap            0.0314937 Eh            0.8570 eV

     #   Z          covCN         q      C6AA      α(0)
     1   6 C        3.761    -0.103    22.522     6.765
     2   6 C        3.909     0.021    20.155     6.381
     3   6 C        3.761    -0.103    22.522     6.765
     4   6 C        2.980    -0.012    28.315     8.729
     5   6 C        2.928    -0.036    28.888     8.814
     6   6 C        2.917    -0.043    29.068     8.841
     7   6 C        2.920    -0.032    28.804     8.801
     8   6 C        2.924    -0.058    29.452     8.900
     9   6 C        2.927     0.057    26.719     8.477
    10   7 N        2.753    -0.067    22.547     7.052
    11   6 C        2.928     0.077    26.270     8.406
    12   6 C        2.920    -0.037    28.918     8.819
    13   6 C        2.920    -0.027    28.669     8.780
    14   6 C        2.973    -0.017    28.430     8.746
    15   6 C        2.826     0.226    23.263     7.903
    16   8 O        0.858    -0.360    20.898     6.129
    17   6 C        2.968    -0.016    28.402     8.742
    18   6 C        2.929    -0.000    28.037     8.684
    19   6 C        2.915    -0.025    28.639     8.776
    20   6 C        2.960     0.076    26.311     8.413
    21   6 C        2.829     0.224    23.284     7.907
    22   8 O        0.858    -0.360    20.893     6.128
    23   6 C        2.973    -0.006    28.169     8.706
    24   6 C        2.925    -0.018    28.448     8.747
    25   6 C        2.919    -0.038    28.935     8.821
    26   6 C        2.928     0.076    26.299     8.410
    27   7 N        2.753    -0.067    22.534     7.050
    28   6 C        2.926     0.057    26.712     8.476
    29   6 C        2.924    -0.059    29.457     8.900
    30   6 C        2.920    -0.033    28.811     8.802
    31   6 C        2.917    -0.044    29.086     8.844
    32   6 C        2.928    -0.036    28.897     8.816
    33   6 C        2.980    -0.013    28.339     8.732
    34   6 C        3.909     0.021    20.157     6.381
    35   6 C        3.761    -0.103    22.516     6.764
    36   6 C        3.761    -0.103    22.517     6.765
    37   6 C        2.980    -0.013    28.331     8.731
    38   6 C        2.928    -0.036    28.900     8.816
    39   6 C        2.917    -0.044    29.091     8.845
    40   6 C        2.920    -0.033    28.811     8.802
    41   6 C        2.924    -0.059    29.470     8.902
    42   6 C        2.928     0.057    26.711     8.476
    43   6 C        2.921    -0.036    28.905     8.817
    44   6 C        2.920    -0.018    28.468     8.750
    45   7 N        1.840    -0.215    26.515     7.631
    46   6 C        2.907     0.064    26.575     8.453
    47   6 C        2.923    -0.018    28.448     8.747
    48   6 C        2.919    -0.037    28.924     8.819
    49   6 C        2.926     0.057    26.717     8.477
    50   6 C        2.924    -0.058    29.452     8.900
    51   6 C        2.920    -0.032    28.806     8.801
    52   6 C        2.917    -0.043    29.069     8.841
    53   6 C        2.928    -0.036    28.889     8.815
    54   6 C        2.980    -0.013    28.324     8.730
    55   1 H        0.925     0.032     2.561     2.503
    56   1 H        0.925     0.040     2.449     2.447
    57   1 H        0.925     0.040     2.445     2.445
    58   1 H        0.925     0.040     2.447     2.446
    59   1 H        0.925     0.032     2.564     2.504
    60   1 H        0.925     0.040     2.446     2.446
    61   1 H        0.926     0.032     2.558     2.501
    62   1 H        0.926     0.029     2.606     2.525
    63   1 H        0.926     0.029     2.600     2.522
    64   1 H        0.926     0.022     2.703     2.571
    65   1 H        0.926     0.049     2.327     2.385
    66   1 H        0.926     0.040     2.444     2.445
    67   1 H        0.926     0.065     2.140     2.288
    68   1 H        0.926     0.071     2.075     2.252
    69   1 H        0.926     0.059     2.212     2.326
    70   1 H        0.926     0.050     2.323     2.383
    71   1 H        0.926     0.027     2.636     2.539
    72   1 H        0.926     0.029     2.601     2.522
    73   1 H        0.926     0.027     2.628     2.535
    74   1 H        0.926     0.031     2.579     2.511
    75   1 H        0.925     0.031     2.567     2.506
    76   1 H        0.925     0.040     2.454     2.450
    77   1 H        0.925     0.039     2.457     2.451
    78   1 H        0.925     0.039     2.457     2.451
    79   1 H        0.925     0.032     2.564     2.504
    80   1 H        0.925     0.040     2.453     2.449
    81   1 H        0.926     0.031     2.578     2.511
    82   1 H        0.926     0.027     2.636     2.539
    83   1 H        0.926     0.027     2.629     2.535
    84   1 H        0.926     0.027     2.624     2.533
    85   1 H        0.926     0.049     2.336     2.390
    86   1 H        0.926     0.052     2.289     2.366
    87   1 H        0.925     0.046     2.364     2.404
    88   1 H        0.926     0.062     2.179     2.308
    89   1 H        0.926     0.052     2.300     2.372
    90   1 H        0.926     0.026     2.646     2.544
    91   1 H        0.926     0.030     2.588     2.516
    92   1 H        0.926     0.028     2.609     2.526
    93   1 H        0.926     0.032     2.563     2.503

molecular dipole:
                 x           y           z       tot (Debye)
 q only:        0.234       1.753       0.062
   full:        0.471       1.556       0.061       4.135

 projected vibrational frequencies (cm⁻¹)
eigval :       -0.00    -0.00    -0.00     0.00     0.00     0.00
eigval :       -3.78     8.77     9.94    14.32    18.21    21.14
eigval :       26.46    34.85    42.54    50.18    57.85    59.67
eigval :       66.87    72.01    94.06   103.20   103.70   104.59
eigval :      107.22   127.23   127.78   129.19   134.00   157.97
eigval :      164.01   165.20   189.09   189.36   200.16   207.30
eigval :      217.72   219.31   227.22   230.86   237.93   238.65
eigval :      250.48   291.25   299.96   310.42   318.02   321.45
eigval :      330.48   332.54   333.85   344.01   344.88   357.09
eigval :      374.06   376.23   378.25   380.66   383.68   394.49
eigval :      398.30   408.68   410.28   424.70   433.36   453.42
eigval :      453.69   460.05   476.76   490.40   494.03   507.49
eigval :      514.90   515.03   533.71   547.54   547.59   550.57
eigval :      560.85   576.16   580.28   583.29   592.38   593.97
eigval :      604.31   606.60   620.35   631.49   650.28   651.94
eigval :      669.81   671.02   683.32   683.41   691.52   694.42
eigval :      694.46   703.94   723.52   725.45   748.09   757.20
eigval :      777.64   778.14   778.87   779.32   780.57   816.30
eigval :      820.39   827.57   829.48   840.49   866.64   867.11
eigval :      869.17   869.24   871.50   875.51   892.57   905.52
eigval :      909.93   913.07   913.74   914.19   914.65   915.08
eigval :      915.40   918.87   921.60   921.84   922.18   923.59
eigval :      926.08   928.23   930.44   932.95   937.41   938.74
eigval :      942.71   957.30   957.49   961.74  1014.47  1014.57
eigval :     1015.46  1022.86  1036.25  1076.95  1076.99  1085.54
eigval :     1085.87  1115.01  1115.59  1120.05  1120.81  1125.27
eigval :     1131.11  1132.20  1141.24  1141.48  1160.32  1160.35
eigval :     1170.86  1173.06  1175.54  1182.09  1184.19  1185.23
eigval :     1187.32  1188.19  1189.44  1192.49  1205.62  1211.25
eigval :     1239.45  1243.99  1247.80  1250.33  1250.70  1252.16
eigval :     1261.47  1261.70  1264.47  1269.31  1269.73  1295.11
eigval :     1295.28  1303.44  1313.62  1314.21  1318.14  1320.75
eigval :     1326.40  1326.50  1334.19  1334.51  1337.47  1339.40
eigval :     1378.18  1401.37  1402.83  1403.24  1403.62  1421.07
eigval :     1421.37  1432.44  1435.66  1435.99  1441.30  1442.23
eigval :     1473.02  1473.25  1478.18  1479.13  1489.64  1489.92
eigval :     1490.74  1490.98  1495.53  1495.99  1500.33  1500.51
eigval :     1504.94  1505.16  1539.69  1554.03  1554.83  1559.72
eigval :     1575.52  1576.03  1579.94  1581.49  1590.80  1591.19
eigval :     1592.65  1593.13  1602.22  1602.33  1695.72  1698.18
eigval :     3026.72  3026.82  3028.92  3028.96  3040.13  3040.94
eigval :     3042.80  3043.62  3049.04  3049.74  3052.80  3053.55
eigval :     3054.86  3077.14  3079.07  3079.59  3080.88  3081.80
eigval :     3083.24  3084.22  3084.77  3084.94  3085.42  3086.96
eigval :     3088.96  3089.77  3094.90  3095.32  3095.47  3096.14
eigval :     3096.54  3097.49  3099.98  3101.85  3102.65  3103.09
eigval :     3103.73  3104.34  3110.20

   temp. (K)  partition function   enthalpy   heat capacity  entropy
                                   cal/mol     cal/K/mol   cal/K/mol   J/K/mol
 298.15  VIB  0.417E+23            27388.870    168.989    172.864
         ROT  0.151E+09              888.752      2.981     40.407
         INT  0.630E+31            28277.623    171.970    213.271
         TR   0.180E+29             1481.254      4.968     45.506
         TOT                       29758.8768   176.9385   258.7764  1082.7205

       T/K    H(0)-H(T)+PV         H(T)/Eh          T*S/Eh         G(T)/Eh
   ------------------------------------------------------------------------
    298.15    0.474238E-01    0.777520E+00    0.122953E+00    0.654567E+00
   ------------------------------------------------------------------------

         :::::::::::::::::::::::::::::::::::::::::::::::::::::
         ::                  THERMODYNAMIC                  ::
         :::::::::::::::::::::::::::::::::::::::::::::::::::::
         :: total free energy        -141.094275151771 Eh   ::
         ::.................................................::
         :: total energy             -141.748842102142 Eh   ::
         :: zero point energy           0.730096183030 Eh   ::
         :: G(RRHO) w/o ZPVE           -0.075529232659 Eh   ::
         :: G(RRHO) contrib.            0.654566950371 Eh   ::
         :::::::::::::::::::::::::::::::::::::::::::::::::::::

           -------------------------------------------------
          | TOTAL ENERGY             -141.748842102142 Eh   |
          | TOTAL ENTHALPY           -140.971322130338 Eh   |
          | TOTAL FREE ENERGY        -141.094275151771 Eh   |
          | GRADIENT NORM               0.000165658016 Eh/α |
          | HOMO-LUMO GAP               0.856987207089 eV   |
           -------------------------------------------------

 * finished run on 2025/09/07 at 03:45:35.320
