   * xtb version 6.7.1 (edcfbbe) compiled by 'albert@albert-system' on 2024-07-22

   ID    Z sym.   atoms
    1    6 C      1-9, 11-15, 17-21, 23-26, 28-44, 46-54
    2    7 N      10, 27, 45
    3    8 O      16, 22
    4    1 H      55-93

          program call               : xtb data2507/gas/25DAcBPy/25DAcBPy.xyz --gfn 2 --ohess vtight --parallel 40 --molden --ceasefiles --namespace data2507/gas/25DAcBPy/25DAcBPy_gas_S0_preOpt
          :  Hamiltonian                  GFN2-xTB          :
 * total energy  :  -141.7162648 Eh     change       -0.2673460E-08 Eh
 * total energy  :  -141.7368293 Eh     change       -0.2056446E-01 Eh
 * total energy  :  -141.7436490 Eh     change       -0.6819699E-02 Eh
 * total energy  :  -141.7448538 Eh     change       -0.1204765E-02 Eh
 * total energy  :  -141.7456896 Eh     change       -0.8358161E-03 Eh
 * total energy  :  -141.7461659 Eh     change       -0.4763169E-03 Eh
 * total energy  :  -141.7465201 Eh     change       -0.3542118E-03 Eh
 * total energy  :  -141.7468607 Eh     change       -0.3406381E-03 Eh
 * total energy  :  -141.7471827 Eh     change       -0.3219137E-03 Eh
 * total energy  :  -141.7474166 Eh     change       -0.2339590E-03 Eh
 * total energy  :  -141.7487912 Eh     change       -0.8306281E-06 Eh
 * total energy  :  -141.7487914 Eh     change       -0.1980542E-06 Eh
 * total energy  :  -141.7487916 Eh     change       -0.2766008E-06 Eh
 * total energy  :  -141.7487920 Eh     change       -0.3995493E-06 Eh
 * total energy  :  -141.7487924 Eh     change       -0.3140059E-06 Eh
 * total energy  :  -141.7487926 Eh     change       -0.2412147E-06 Eh
 * total energy  :  -141.7487929 Eh     change       -0.2611159E-06 Eh
 * total energy  :  -141.7487931 Eh     change       -0.1931592E-06 Eh
 * total energy  :  -141.7487931 Eh     change       -0.2571710E-08 Eh
   *** GEOMETRY OPTIMIZATION CONVERGED AFTER 77 ITERATIONS ***

 final structure:
================
93
 xtb: 6.7.1 (edcfbbe)
C           11.41351765634879       -0.36117392541007        0.47376443573919
C           10.26693049193313       -0.11148825588060       -0.52301400629979
C           10.80698806296577       -0.09136369979933       -1.96475094904819
C            9.64369933593911        1.23801986699248       -0.22458293532029
C           10.42762047704320        2.38132307848050       -0.30783188667654
C            9.91084376156981        3.64426346899791       -0.09000749581349
C            8.56477769088885        3.78161200291466        0.19592837893993
C            7.76434229620984        2.66260799812091        0.28688408239145
C            8.29301538506619        1.38089749583571        0.10728832370111
N            7.46437947631414        0.26943675050951        0.21915296770856
C            6.11254974617849        0.45296898250127        0.58674532448096
C            5.09659757593322        0.19827039063663       -0.33244015228510
C            3.77427650432160        0.36083746493141        0.02684606719727
C            3.44429805924718        0.79106103323273        1.31241173923989
C            2.04399122160704        0.99795068876679        1.74445249978753
O            1.74334165421806        1.79236243190309        2.61225516944289
C            1.00842072566306        0.17269666265558        1.06657939830486
C            1.20758996642421       -1.16581340454181        0.73332042394893
C            0.17503665331659       -1.86209624192920        0.13425124024212
C           -1.03471927337381       -1.20621635649480       -0.09700302073504
C           -2.14024728117526       -1.95265489961635       -0.77302763853294
O           -1.88147146263645       -2.92066072596146       -1.46355478513627
C           -3.52082589933086       -1.46674055487957       -0.58965979489065
C           -4.46070588357624       -1.80361041232401       -1.56744021940955
C           -5.76963397894477       -1.38838111488942       -1.45914318290074
C           -6.17095484552530       -0.63741047840681       -0.35583443772580
N           -7.51277890553057       -0.20744398325378       -0.23854719753932
C           -8.50931082116527       -1.15140704778740       -0.02249166959216
C           -8.16655409615535       -2.49587090516961        0.15179774098406
C           -9.13447955197372       -3.45644182269039        0.35485094031241
C          -10.46788146621038       -3.09215782239295        0.40120948394785
C          -10.80669057804213       -1.75898790095744        0.26847047660850
C           -9.85222789023020       -0.77109130098288        0.06513057445868
C          -10.29138308193445        0.67719232504638       -0.02572370227157
C          -10.99807928748515        1.05629999460667        1.28867500620705
C          -11.25739827605008        0.83007809841049       -1.21484947082237
C           -9.11639311829000        1.61196548548113       -0.23666017412545
C           -9.34650315814544        2.97697296843270       -0.34751011835155
C           -8.32484169085237        3.87801111794549       -0.57983879352365
C           -7.03288243778415        3.40785678903418       -0.73003875012355
C           -6.77605432344113        2.05743804219458       -0.62319004226928
C           -7.80227321289022        1.14743375494984       -0.35118577614869
C           -5.24340394154387       -0.31851051690351        0.63340359728351
C           -3.93039416743660       -0.72710565953615        0.51973050680127
N           -1.22745045951758        0.07012798492348        0.22480899136852
C           -0.24174563872131        0.73224721606329        0.78806438304479
C            4.46644861186555        1.07286266735690        2.22022319097000
C            5.78695146580138        0.89582553912477        1.86756110673435
C            7.93420967913245       -1.01786265490800       -0.01502172313620
C            7.08423421504329       -2.11290541610479        0.16739386797901
C            7.51881608554888       -3.39977972769832       -0.06981915574235
C            8.81959887615542       -3.62201581483377       -0.48306560748309
C            9.67360966804504       -2.54506194688557       -0.62630642419833
C            9.26245121295675       -1.23949329681267       -0.39222815154814
H           11.89962828299926       -1.31259804014537        0.27703980967855
H           11.02327770911371       -0.37893810607529        1.48972657442897
H           12.16244992865771        0.42302467851459        0.40791397574107
H           11.54829897769485        0.69258757610330       -2.09122035268394
H            9.99192736221234        0.09158121614943       -2.66260088714102
H           11.26977515696317       -1.04071289727701       -2.21936129660447
H           11.47462812840583        2.28871964613443       -0.55333568249644
H           10.54980293668255        4.51128595694914       -0.15766382662706
H            8.13205933005381        4.75948851696020        0.34453090442737
H            6.71218486916733        2.78549795838823        0.49159427788436
H            5.35686978537821       -0.12630815036359       -1.32905782653559
H            2.99780645544269        0.18445054727403       -0.70292660626896
H            2.14616928608256       -1.65272360924042        0.95716622311323
H            0.27490421851972       -2.89780273536007       -0.15066466660436
H           -4.13389750075801       -2.38346873194159       -2.41767972562255
H           -6.49293028616544       -1.63847095878595       -2.22113356973028
H           -7.12876806429160       -2.79039228678006        0.13635542655614
H           -8.84288623399730       -4.48832475548481        0.48128737136893
H          -11.23595225133817       -3.83487311928936        0.55342471258455
H          -11.84883837667164       -1.48421289076203        0.32897095933340
H          -10.31091336401701        0.93983370955353        2.12471212364570
H          -11.86122235626083        0.42023420651728        1.46369772277837
H          -11.33613309612393        2.08849519742480        1.26400301635127
H          -11.61162387118105        1.85365611240311       -1.29901305882791
H          -10.74921754783177        0.56577545768914       -2.14039046881803
H          -12.12037967955821        0.18014559633784       -1.09986731737444
H          -10.35380501220426        3.35361537356698       -0.25385775146316
H           -8.53869463939673        4.93312341491649       -0.65604708705876
H           -6.22129168495108        4.08960175786445       -0.93548156049837
H           -5.76667337045183        1.70238105236234       -0.76056170682859
H           -5.56620340574645        0.25062154532036        1.49267015440833
H           -3.22783089237752       -0.48632787159361        1.30051893234522
H           -0.43689396010441        1.76838196627759        1.03126969171883
H            4.19816453226616        1.41681856881605        3.20785985746594
H            6.57786760096730        1.09960767714790        2.57387065805210
H            6.07285377026762       -1.95486690855075        0.50854204770895
H            6.84000341852816       -4.22706887480758        0.07389830281023
H            9.17113177627519       -4.62351294297483       -0.67786876540975
H           10.69309924000460       -2.73319426619446       -0.92674724197611

          :  Hamiltonian                  GFN2-xTB          :
         :: gradient norm              0.000138784672 Eh/a0 ::
         :: HOMO-LUMO gap              0.899926794644 eV    ::
         :: SCC energy              -144.212932261089 Eh    ::
         :: -> dispersion             -0.127605782438 Eh    ::
         :: repulsion energy           2.464139205391 Eh    ::

    * Orbital Energies and Occupations

         #    Occupation            Energy/Eh            Energy/eV
      -------------------------------------------------------------
         1        2.0000           -0.7176693             -19.5288
       ...           ...                  ...                  ...
       119        2.0000           -0.4104279             -11.1683
       120        2.0000           -0.4079550             -11.1010
       121        2.0000           -0.4078871             -11.0992
       122        2.0000           -0.4072570             -11.0820
       123        2.0000           -0.4054326             -11.0324
       124        2.0000           -0.4029470             -10.9647
       125        2.0000           -0.4020688             -10.9408
       126        2.0000           -0.3972014             -10.8084
       127        2.0000           -0.3967354             -10.7957
       128        2.0000           -0.3919365             -10.6651
       129        2.0000           -0.3816973             -10.3865
       130        2.0000           -0.3526456              -9.5960
       131        2.0000           -0.3473136              -9.4509 (HOMO)
       132                         -0.3142417              -8.5510 (LUMO)
       133                         -0.2894006              -7.8750
       134                         -0.2674172              -7.2768
       135                         -0.2541689              -6.9163
       136                         -0.2490635              -6.7774
       137                         -0.2394487              -6.5157
       138                         -0.2287205              -6.2238
       139                         -0.2240225              -6.0960
       140                         -0.2238309              -6.0907
       141                         -0.2223005              -6.0491
       142                         -0.2200702              -5.9884
       ...                                ...                  ...
       255                          0.6807784              18.5249
      -------------------------------------------------------------
                  HL-Gap            0.0330719 Eh            0.8999 eV

     #   Z          covCN         q      C6AA      α(0)
     1   6 C        3.761    -0.103    22.522     6.765
     2   6 C        3.909     0.022    20.155     6.381
     3   6 C        3.761    -0.103    22.523     6.765
     4   6 C        2.980    -0.013    28.322     8.730
     5   6 C        2.928    -0.036    28.889     8.815
     6   6 C        2.917    -0.043    29.067     8.841
     7   6 C        2.920    -0.032    28.804     8.801
     8   6 C        2.924    -0.058    29.449     8.899
     9   6 C        2.927     0.057    26.718     8.477
    10   7 N        2.753    -0.068    22.551     7.053
    11   6 C        2.927     0.078    26.262     8.404
    12   6 C        2.920    -0.037    28.927     8.820
    13   6 C        2.919    -0.027    28.667     8.780
    14   6 C        2.972    -0.016    28.405     8.742
    15   6 C        2.827     0.225    23.269     7.904
    16   8 O        0.858    -0.362    20.940     6.135
    17   6 C        2.968    -0.016    28.398     8.741
    18   6 C        2.926    -0.009    28.249     8.716
    19   6 C        2.918    -0.027    28.680     8.782
    20   6 C        2.961     0.077    26.283     8.409
    21   6 C        2.829     0.223    23.315     7.912
    22   8 O        0.858    -0.366    21.014     6.146
    23   6 C        2.971    -0.008    28.209     8.712
    24   6 C        2.926    -0.017    28.430     8.744
    25   6 C        2.919    -0.037    28.931     8.820
    26   6 C        2.928     0.077    26.271     8.406
    27   7 N        2.753    -0.066    22.525     7.049
    28   6 C        2.927     0.057    26.711     8.476
    29   6 C        2.924    -0.058    29.453     8.900
    30   6 C        2.920    -0.033    28.812     8.802
    31   6 C        2.917    -0.044    29.083     8.843
    32   6 C        2.928    -0.036    28.896     8.816
    33   6 C        2.980    -0.013    28.329     8.731
    34   6 C        3.909     0.021    20.156     6.381
    35   6 C        3.761    -0.103    22.518     6.765
    36   6 C        3.761    -0.103    22.517     6.764
    37   6 C        2.980    -0.013    28.331     8.731
    38   6 C        2.928    -0.036    28.897     8.816
    39   6 C        2.917    -0.044    29.081     8.843
    40   6 C        2.920    -0.032    28.808     8.802
    41   6 C        2.924    -0.059    29.455     8.900
    42   6 C        2.927     0.057    26.712     8.476
    43   6 C        2.920    -0.037    28.910     8.817
    44   6 C        2.919    -0.020    28.513     8.756
    45   7 N        1.838    -0.212    26.460     7.623
    46   6 C        2.912     0.071    26.414     8.428
    47   6 C        2.924    -0.017    28.442     8.746
    48   6 C        2.919    -0.037    28.916     8.818
    49   6 C        2.927     0.057    26.714     8.476
    50   6 C        2.924    -0.059    29.456     8.900
    51   6 C        2.920    -0.033    28.813     8.802
    52   6 C        2.917    -0.043    29.072     8.842
    53   6 C        2.928    -0.036    28.885     8.814
    54   6 C        2.980    -0.012    28.317     8.729
    55   1 H        0.925     0.040     2.448     2.447
    56   1 H        0.925     0.032     2.561     2.503
    57   1 H        0.925     0.040     2.445     2.445
    58   1 H        0.925     0.040     2.446     2.446
    59   1 H        0.925     0.032     2.563     2.503
    60   1 H        0.925     0.040     2.447     2.446
    61   1 H        0.926     0.032     2.561     2.503
    62   1 H        0.926     0.028     2.608     2.525
    63   1 H        0.926     0.030     2.587     2.515
    64   1 H        0.926     0.026     2.650     2.546
    65   1 H        0.926     0.049     2.330     2.387
    66   1 H        0.926     0.041     2.432     2.439
    67   1 H        0.926     0.046     2.373     2.409
    68   1 H        0.926     0.067     2.118     2.276
    69   1 H        0.926     0.064     2.157     2.297
    70   1 H        0.926     0.050     2.325     2.385
    71   1 H        0.926     0.026     2.644     2.543
    72   1 H        0.926     0.029     2.604     2.523
    73   1 H        0.926     0.027     2.627     2.534
    74   1 H        0.926     0.031     2.575     2.509
    75   1 H        0.925     0.032     2.564     2.504
    76   1 H        0.925     0.039     2.456     2.451
    77   1 H        0.925     0.040     2.453     2.449
    78   1 H        0.925     0.040     2.454     2.450
    79   1 H        0.925     0.032     2.564     2.504
    80   1 H        0.925     0.040     2.455     2.450
    81   1 H        0.926     0.031     2.577     2.510
    82   1 H        0.926     0.027     2.626     2.534
    83   1 H        0.926     0.029     2.597     2.520
    84   1 H        0.926     0.028     2.614     2.528
    85   1 H        0.926     0.050     2.322     2.383
    86   1 H        0.926     0.057     2.238     2.339
    87   1 H        0.925     0.063     2.169     2.303
    88   1 H        0.926     0.063     2.159     2.298
    89   1 H        0.926     0.051     2.305     2.374
    90   1 H        0.926     0.022     2.702     2.571
    91   1 H        0.926     0.029     2.606     2.525
    92   1 H        0.926     0.028     2.608     2.526
    93   1 H        0.926     0.032     2.558     2.501

molecular dipole:
                 x           y           z       tot (Debye)
 q only:        0.419       0.025      -0.130
   full:        0.798      -0.103      -0.071       2.052

 projected vibrational frequencies (cm⁻¹)
eigval :       -0.00    -0.00    -0.00     0.00     0.00     0.00
eigval :        4.25     7.60     9.16    12.40    16.44    21.74
eigval :       26.54    35.42    41.02    48.92    52.96    58.00
eigval :       59.46    80.25    90.13   101.80   102.18   104.76
eigval :      105.70   127.30   127.57   129.56   143.56   148.95
eigval :      151.66   169.76   189.00   189.21   194.52   214.79
eigval :      218.20   219.56   224.80   235.93   237.19   243.95
eigval :      252.03   286.27   300.87   306.87   310.76   321.15
eigval :      331.94   332.27   341.89   343.65   344.84   353.72
eigval :      371.05   374.85   376.32   380.32   384.75   392.75
eigval :      394.64   408.71   410.40   426.39   444.75   453.10
eigval :      453.51   463.37   482.65   488.23   495.08   501.67
eigval :      514.73   514.78   539.63   547.42   547.43   549.11
eigval :      561.79   575.07   579.12   583.16   591.50   594.22
eigval :      603.60   607.59   614.41   630.04   648.33   651.96
eigval :      666.74   674.00   683.22   683.35   692.08   694.35
eigval :      694.45   704.78   721.19   728.21   748.02   756.79
eigval :      777.08   777.82   778.64   778.92   781.10   817.22
eigval :      821.16   827.79   830.16   840.10   866.00   867.05
eigval :      869.32   869.36   871.01   876.31   892.99   903.14
eigval :      910.47   913.34   913.63   913.97   914.69   914.77
eigval :      915.40   919.43   921.20   921.77   922.02   923.05
eigval :      925.23   930.02   930.65   936.71   937.52   938.71
eigval :      942.95   957.31   957.50   964.58  1014.53  1014.60
eigval :     1015.38  1023.33  1038.21  1077.02  1077.06  1085.67
eigval :     1085.76  1115.11  1115.43  1120.45  1120.70  1131.03
eigval :     1132.37  1136.11  1141.42  1141.43  1160.17  1160.27
eigval :     1171.80  1173.17  1176.06  1180.87  1184.90  1187.13
eigval :     1188.07  1188.87  1188.96  1190.35  1206.90  1211.22
eigval :     1235.11  1242.49  1246.22  1250.56  1250.61  1253.14
eigval :     1261.20  1261.76  1269.01  1269.59  1270.86  1295.26
eigval :     1295.37  1296.48  1314.32  1315.06  1318.60  1320.85
eigval :     1326.74  1327.47  1334.41  1334.55  1337.91  1338.71
eigval :     1376.78  1402.89  1403.11  1403.55  1403.82  1421.09
eigval :     1421.51  1435.46  1435.90  1436.50  1441.61  1441.90
eigval :     1471.89  1472.28  1478.39  1478.66  1489.61  1489.83
eigval :     1490.76  1490.97  1495.63  1495.91  1500.45  1500.52
eigval :     1504.97  1505.07  1541.18  1553.76  1554.15  1561.86
eigval :     1575.62  1576.11  1579.40  1580.45  1590.85  1591.28
eigval :     1592.88  1593.15  1602.27  1602.34  1681.36  1692.98
eigval :     3026.89  3027.02  3028.95  3029.19  3040.20  3040.82
eigval :     3042.90  3043.55  3049.11  3049.72  3052.96  3053.90
eigval :     3067.44  3072.81  3079.69  3079.88  3080.04  3081.04
eigval :     3082.02  3084.52  3084.75  3085.17  3085.71  3087.25
eigval :     3089.71  3089.82  3094.76  3095.51  3095.92  3096.00
eigval :     3096.52  3097.99  3100.01  3101.61  3103.13  3103.41
eigval :     3103.48  3104.48  3114.98

   temp. (K)  partition function   enthalpy   heat capacity  entropy
                                   cal/mol     cal/K/mol   cal/K/mol   J/K/mol
 298.15  VIB  0.720E+23            27419.625    168.773    173.377
         ROT  0.178E+09              888.752      2.981     40.735
         INT  0.128E+32            28308.378    171.754    214.112
         TR   0.180E+29             1481.254      4.968     45.506
         TOT                       29789.6316   176.7221   259.6178  1086.2409

       T/K    H(0)-H(T)+PV         H(T)/Eh          T*S/Eh         G(T)/Eh
   ------------------------------------------------------------------------
    298.15    0.474728E-01    0.777549E+00    0.123353E+00    0.654196E+00
   ------------------------------------------------------------------------

         :::::::::::::::::::::::::::::::::::::::::::::::::::::
         ::                  THERMODYNAMIC                  ::
         :::::::::::::::::::::::::::::::::::::::::::::::::::::
         :: total free energy        -141.094597113670 Eh   ::
         ::.................................................::
         :: total energy             -141.748793055698 Eh   ::
         :: zero point energy           0.730075934690 Eh   ::
         :: G(RRHO) w/o ZPVE           -0.075879992662 Eh   ::
         :: G(RRHO) contrib.            0.654195942028 Eh   ::
         :::::::::::::::::::::::::::::::::::::::::::::::::::::

           -------------------------------------------------
          | TOTAL ENERGY             -141.748793055698 Eh   |
          | TOTAL ENTHALPY           -140.971244321261 Eh   |
          | TOTAL FREE ENERGY        -141.094597113670 Eh   |
          | GRADIENT NORM               0.000138703753 Eh/α |
          | HOMO-LUMO GAP               0.899931783437 eV   |
           -------------------------------------------------

 * finished run on 2025/09/07 at 03:36:23.694
