   * xtb version 6.7.1 (edcfbbe) compiled by 'albert@albert-system' on 2024-07-22

   ID    Z sym.   atoms
    1    6 C      1-4, 6-26, 28-36, 38, 40-60, 62-76
    2    7 N      5, 27, 37, 39, 61
    3    1 H      77-121

          program call               : xtb data2507/gas/2PBCzPy/2PBCzPy_gas_S0_finalOpt.xtbopt.xyz --gfn 2 --spinpol --tblite --uhf 2 --ohess vtight --parallel 40 --molden --ceasefiles --namespace data2507/gas/2PBCzPy/2PBCzPy_gas_T1_preOpt
 * total energy  :  -189.6647856 Eh     change        0.6597816E-09 Eh
 * total energy  :  -189.6679828 Eh     change       -0.3197232E-02 Eh
 * total energy  :  -189.6702115 Eh     change       -0.2228704E-02 Eh
 * total energy  :  -189.6706459 Eh     change       -0.4344082E-03 Eh
 * total energy  :  -189.6714159 Eh     change       -0.7699686E-03 Eh
 * total energy  :  -189.6716917 Eh     change       -0.2758567E-03 Eh
 * total energy  :  -189.6719686 Eh     change       -0.2769063E-03 Eh
 * total energy  :  -189.6721580 Eh     change       -0.1893250E-03 Eh
 * total energy  :  -189.6722733 Eh     change       -0.1153827E-03 Eh
 * total energy  :  -189.6723646 Eh     change       -0.9125440E-04 Eh
 * total energy  :  -189.6728767 Eh     change       -0.5401924E-06 Eh
 * total energy  :  -189.6728773 Eh     change       -0.5871868E-06 Eh
 * total energy  :  -189.6728778 Eh     change       -0.5073555E-06 Eh
 * total energy  :  -189.6728782 Eh     change       -0.4116739E-06 Eh
 * total energy  :  -189.6728786 Eh     change       -0.3393764E-06 Eh
 * total energy  :  -189.6728790 Eh     change       -0.3666651E-06 Eh
 * total energy  :  -189.6728795 Eh     change       -0.5313487E-06 Eh
 * total energy  :  -189.6728800 Eh     change       -0.4743596E-06 Eh
 * total energy  :  -189.6728800 Eh     change       -0.3729505E-07 Eh
   *** GEOMETRY OPTIMIZATION CONVERGED AFTER 68 ITERATIONS ***

 final structure:
================
121
 xtb: 6.7.1 (edcfbbe)
C           -8.58141618865195       -0.20083997636999        0.67849303227985
C           -7.55805200160559       -0.40592997468489        1.58866145463437
C           -6.64558309380408       -1.42576122339979        1.39419643204625
C           -6.74478155206306       -2.24242251191344        0.27127167533477
N           -5.80891417873066       -3.26407551672908        0.05584039719890
C           -6.09614693400542       -4.57630636462873       -0.26652076468869
C           -7.32437444601512       -5.21497826924329       -0.35534310120608
C           -7.32995871098936       -6.56062435984505       -0.67050641526893
C           -6.14609126317846       -7.26221542984537       -0.88549604383992
C           -4.91964568952411       -6.63682564690266       -0.77590420145867
C           -4.88822393732089       -5.28561536699851       -0.46008767930750
C           -3.82310698311668       -4.34356859472084       -0.24981768916056
C           -2.44265523133876       -4.43582408460644       -0.32637226212895
C           -1.67313762985407       -3.29907415231354       -0.10326676733755
C           -0.21056776329414       -3.33902493590286       -0.18895160959861
C            0.47443856204708       -2.26906887764517       -0.79034197256249
C            1.84818685586551       -2.21263842533594       -0.83321182162922
C            2.56864523100282       -3.23861630922313       -0.23232597423316
C            1.89772275086104       -4.36720204376841        0.30312628205789
C            0.51375260353778       -4.41213219629229        0.32332873744839
C            2.92468964681233       -5.25840834704747        0.76601736332095
C            2.89861163523562       -6.50504796989863        1.37354921694931
C            4.09624964502298       -7.08819184995468        1.74219899487725
C            5.30644386272045       -6.43150662118564        1.53102561536952
C            5.35775161370143       -5.18936812411414        0.92532742866117
C            4.16296349718049       -4.61357162272721        0.51758580577133
N            3.93061639285122       -3.39268263868291       -0.09176924962517
C            4.86890761324562       -2.40384157276301       -0.37517317011912
C            6.12730221361484       -2.68786987793136       -0.96128820026188
C            7.01135723768173       -1.68452102477214       -1.20643320076403
C            6.72939905029894       -0.30814060932654       -0.93446023622212
C            7.65692073264135        0.67160936538156       -1.34794810781690
C            7.38094475551254        2.06541993556263       -1.48537420131763
C            8.35938412819572        2.92651328053279       -1.88783164777333
C            9.64564426759531        2.44130769597643       -2.18723026312589
C            9.83556384027243        1.07107701420335       -2.08236485617548
N            8.90890637097070        0.24246627801462       -1.68922966949207
C            5.46911685763375       -0.05149687265462       -0.28916323694400
N            5.07169463086167        1.22521275456472        0.14838883227575
C            5.65003594841193        1.97358486565939        1.15677858627076
C            6.89002828196411        1.82370765077626        1.75734430438360
C            7.23446052591140        2.72175840915911        2.75014301192303
C            6.36726345187159        3.73901866064038        3.14201844132301
C            5.12338862897529        3.88222517998980        2.55660560924732
C            4.75390037178957        2.99428292547536        1.55667933102304
C            3.56700422797328        2.83544411367341        0.75791875927315
C            2.33509364187181        3.46834595960470        0.72019623116210
C            1.36999845576836        3.03018408331067       -0.18365525960092
C            0.01463598284492        3.59102428146645       -0.17587058334975
C           -0.20729077039112        4.95202988225672        0.08226047770323
C           -1.47482864178298        5.49364367336847        0.13314039070887
C           -2.55723418786996        4.64776798881154       -0.07028358436137
C           -2.35493918485605        3.28090835802586       -0.36947078838676
C           -1.07433972992010        2.75761615460162       -0.41332098192625
C           -3.65712090547580        2.71026450073768       -0.57495455921211
C           -4.09895471594022        1.43444657342002       -0.89731143696648
C           -5.45786596560747        1.21102186639208       -0.99828101348725
C           -6.36950804543534        2.23914959044347       -0.77093118454976
C           -5.95292542750127        3.52019834367429       -0.46195055074920
C           -4.58777211404723        3.75708954659106       -0.38494672898084
N           -3.90921116335173        4.92221188975734       -0.08268729468364
C           -4.49372008063519        6.17323851145240        0.15895955006695
C           -4.13709365057439        6.90571542910928        1.28756689339081
C           -4.71043575339513        8.14261269708036        1.51691648031085
C           -5.64715645626103        8.65341480726314        0.63379352151122
C           -6.00682690245206        7.92328347111516       -0.48690892875958
C           -5.43145120015109        6.69012436293552       -0.73046168570444
C            1.68861751901232        2.01030887123826       -1.09671765419519
C            2.90458830007852        1.36732615257707       -1.07492270148818
C            3.82379367511838        1.74349543799818       -0.10421082547020
C            4.58838427592395       -1.07614319507081       -0.03595784664015
C           -2.30748261266554       -2.08520181921007        0.20772170913962
C           -3.67729185819106       -1.97447393496315        0.30477144561588
C           -4.43892103698479       -3.11185140837854        0.07372935587562
C           -7.76976613889346       -2.03026305578829       -0.64665580679595
C           -8.68577051895703       -1.01629733311729       -0.43613733558591
H           -9.29652455010461        0.59200008683721        0.83866039462776
H           -7.47341430492656        0.22735843591409        2.45901084442716
H           -5.86200390651894       -1.60411041382868        2.11501563933924
H           -8.24629014628380       -4.68359044436676       -0.17261528085980
H           -8.27351762793038       -7.08035487743628       -0.74795942413741
H           -6.19273146002455       -8.31234562507158       -1.13247756006860
H           -4.00170879171445       -7.18429087408710       -0.92785010996326
H           -1.97294935964711       -5.37113094996103       -0.59080751522132
H           -0.09758086719493       -1.47990820749389       -1.25462218367427
H            2.34649585296501       -1.39606422449516       -1.32825770222233
H            0.00241926862500       -5.25305477547593        0.76731141363746
H            1.95883734202241       -7.00336837710766        1.55829178251585
H            4.09720231292867       -8.05947685632279        2.21402041405163
H            6.22484490478658       -6.89939268107506        1.85283497183510
H            6.29984548735240       -4.68110183755376        0.79377568887931
H            6.36010660594935       -3.70219953177935       -1.24738447671197
H            7.96593161653762       -1.89547870037982       -1.66286863406707
H            6.37506906036374        2.42025587475551       -1.33284880471691
H            8.14571858135347        3.98027824616861       -1.99894874539793
H           10.44578175137858        3.09577049134429       -2.48918612513140
H           10.79634270724831        0.62411950504626       -2.31006238501978
H            7.56189466473451        1.03541138579508        1.45537106661080
H            8.19648965714216        2.63290268450711        3.23240453456948
H            6.67394766508062        4.42314913295088        3.91938222027402
H            4.45053239724999        4.66713301390575        2.86830231015645
H            2.11378367034070        4.26643350147770        1.41265433466595
H            0.64416014546978        5.60115377461892        0.22235236326299
H           -1.61595383539104        6.54880651346692        0.31337360139364
H           -0.92881091573115        1.70569241680260       -0.60589741490848
H           -3.39032117272180        0.63819978286301       -1.06771291760599
H           -5.82671594569187        0.22765089947478       -1.24982882724976
H           -7.42599141808952        2.02738055890969       -0.83949601362991
H           -6.66899384554609        4.30714719293626       -0.27871884752482
H           -3.42304004547834        6.49415106941876        1.98518842830823
H           -4.43006059646521        8.70683860619352        2.39403092113416
H           -6.09531788664507        9.61797875937658        0.81813765776464
H           -6.73311914764926        8.31999971371143       -1.18075097521715
H           -5.69156320048841        6.12828516722950       -1.61513892332094
H            0.96295691419614        1.73765821906879       -1.84811923143255
H            3.14884506822885        0.60167569571637       -1.79578727881750
H            3.67583224616976       -0.85399673298723        0.49904423711489
H           -1.69713706915205       -1.21592947956811        0.40434645968882
H           -4.13950699200278       -1.02968050458524        0.54557885738335
H           -7.83275674210532       -2.65190083956909       -1.52755826979235
H           -9.47857188250422       -0.85679923783958       -1.15216605971725

 projected vibrational frequencies (cm⁻¹)
eigval :       -0.00    -0.00     0.00     0.00     0.00     0.00
eigval :        7.56     9.74    11.10    16.98    17.92    26.58
eigval :       28.13    31.08    37.16    41.27    45.54    48.53
eigval :       55.57    57.79    64.92    66.08    69.45    73.45
eigval :       74.73    80.36    92.05    97.20   105.20   112.26
eigval :      113.56   127.96   131.73   135.75   140.49   148.85
eigval :      156.83   162.25   164.31   166.90   178.42   191.08
eigval :      204.39   217.58   225.51   232.82   237.00   245.45
eigval :      249.16   263.92   269.33   272.83   278.24   286.03
eigval :      290.77   312.75   317.13   322.02   339.14   354.34
eigval :      372.19   374.65   379.21   380.29   380.68   383.52
eigval :      392.26   396.21   398.25   400.46   401.30   409.33
eigval :      412.82   416.63   424.82   429.14   430.64   432.51
eigval :      433.85   442.70   449.33   452.65   465.12   469.09
eigval :      478.65   484.12   494.89   507.67   526.81   529.11
eigval :      536.75   537.60   541.30   552.94   557.30   560.71
eigval :      567.85   571.43   573.05   576.76   584.83   588.85
eigval :      590.17   591.90   593.72   597.44   605.61   612.72
eigval :      614.66   616.89   621.15   623.47   624.72   628.74
eigval :      641.98   656.69   666.24   670.17   674.73   675.85
eigval :      677.67   686.73   687.21   693.54   696.72   702.51
eigval :      706.05   708.28   708.95   709.07   724.67   727.02
eigval :      763.62   763.73   764.40   768.29   770.85   772.07
eigval :      774.02   775.63   775.97   780.19   808.62   812.79
eigval :      815.51   832.80   835.73   842.41   846.23   865.51
eigval :      868.53   868.95   869.98   870.14   870.33   873.00
eigval :      876.61   878.54   882.61   884.22   887.27   891.74
eigval :      892.90   893.38   896.26   899.21   902.02   902.10
eigval :      902.72   906.74   906.96   909.87   911.09   913.61
eigval :      915.07   917.88   919.83   920.32   921.02   921.77
eigval :      922.99   927.09   928.83   930.84   931.66   933.57
eigval :      934.30   935.28   936.30   987.27   997.93   998.36
eigval :     1002.75  1012.07  1014.33  1028.18  1029.28  1065.37
eigval :     1066.10  1068.08  1069.07  1071.21  1071.76  1073.38
eigval :     1080.69  1080.95  1095.35  1106.09  1118.39  1118.53
eigval :     1119.40  1122.97  1123.88  1134.68  1143.69  1150.99
eigval :     1154.13  1155.28  1159.47  1170.74  1176.29  1178.12
eigval :     1178.75  1179.51  1180.99  1181.20  1183.78  1184.47
eigval :     1189.60  1198.85  1200.42  1201.80  1211.00  1212.66
eigval :     1223.56  1226.47  1229.93  1232.99  1241.99  1245.89
eigval :     1247.96  1252.72  1255.67  1270.75  1272.15  1274.77
eigval :     1275.08  1280.48  1285.95  1288.34  1294.52  1297.59
eigval :     1307.50  1309.14  1318.21  1318.34  1319.97  1324.55
eigval :     1340.58  1344.56  1345.36  1349.40  1350.94  1352.30
eigval :     1355.82  1358.49  1360.22  1362.36  1366.58  1368.40
eigval :     1372.24  1376.20  1401.24  1412.30  1417.10  1420.34
eigval :     1421.49  1424.68  1425.50  1431.75  1434.52  1436.27
eigval :     1438.80  1441.96  1452.64  1457.34  1461.34  1466.49
eigval :     1476.53  1476.88  1481.98  1482.45  1483.56  1483.95
eigval :     1488.70  1493.76  1524.09  1545.07  1552.19  1555.49
eigval :     1560.06  1561.57  1565.39  1572.47  1576.34  1581.77
eigval :     1581.89  1582.32  1583.56  1585.44  1586.46  1594.35
eigval :     1595.21  1595.40  1596.64  1600.44  1610.81  1613.21
eigval :     3029.65  3064.00  3077.13  3077.34  3078.29  3078.30
eigval :     3078.84  3079.18  3079.57  3079.90  3080.37  3080.62
eigval :     3081.86  3082.39  3083.05  3083.57  3084.04  3084.61
eigval :     3086.42  3087.10  3087.86  3088.13  3088.91  3089.50
eigval :     3090.32  3091.14  3091.25  3091.90  3092.22  3093.45
eigval :     3094.19  3094.43  3094.54  3094.74  3096.76  3098.23
eigval :     3098.55  3100.09  3100.19  3100.70  3101.59  3103.73
eigval :     3107.94  3109.02  3120.47

   temp. (K)  partition function   enthalpy   heat capacity  entropy
                                   cal/mol     cal/K/mol   cal/K/mol   J/K/mol
 298.15  VIB  0.148E+28            34969.069    223.725    217.440
         ROT  0.351E+09              888.752      2.981     42.082
         INT  0.521E+36            35857.821    226.706    259.522
         TR   0.291E+29             1481.254      4.968     46.464
         TOT                       37339.0752   231.6742   305.9856  1280.2439

       T/K    H(0)-H(T)+PV         H(T)/Eh          T*S/Eh         G(T)/Eh
   ------------------------------------------------------------------------
    298.15    0.595036E-01    0.983114E+00    0.145384E+00    0.837731E+00
   ------------------------------------------------------------------------

         :::::::::::::::::::::::::::::::::::::::::::::::::::::
         ::                  THERMODYNAMIC                  ::
         :::::::::::::::::::::::::::::::::::::::::::::::::::::
         :: total free energy        -188.835149440057 Eh   ::
         ::.................................................::
         :: total energy             -189.672879999443 Eh   ::
         :: zero point energy           0.923610607663 Eh   ::
         :: G(RRHO) w/o ZPVE           -0.085880048277 Eh   ::
         :: G(RRHO) contrib.            0.837730559386 Eh   ::
         :::::::::::::::::::::::::::::::::::::::::::::::::::::

           -------------------------------------------------
          | TOTAL ENERGY             -189.672879999443 Eh   |
          | TOTAL ENTHALPY           -188.689765787850 Eh   |
          | TOTAL FREE ENERGY        -188.835149440057 Eh   |
          | GRADIENT NORM               0.000070847402 Eh/α |
           -------------------------------------------------

 * finished run on 2025/09/14 at 08:43:01.552
