   * xtb version 6.7.1 (edcfbbe) compiled by 'albert@albert-system' on 2024-07-22

   ID    Z sym.   atoms
    1    6 C      1-4, 6-26, 28-36, 38, 40-60, 62-76
    2    7 N      5, 27, 37, 39, 61
    3    1 H      77-121

          program call               : xtb data2507/gas/2PBCzPy/2PBCzPy.xyz --gfn 2 --ohess vtight --parallel 40 --molden --ceasefiles --namespace data2507/gas/2PBCzPy/2PBCzPy_gas_S0_preOpt
          :  Hamiltonian                  GFN2-xTB          :
 * total energy  :  -189.7225144 Eh     change       -0.3852819E-08 Eh
 * total energy  :  -189.7456151 Eh     change       -0.2310074E-01 Eh
 * total energy  :  -189.7520090 Eh     change       -0.6393923E-02 Eh
 * total energy  :  -189.7540255 Eh     change       -0.2016461E-02 Eh
 * total energy  :  -189.7555619 Eh     change       -0.1536411E-02 Eh
 * total energy  :  -189.7562471 Eh     change       -0.6852301E-03 Eh
 * total energy  :  -189.7566253 Eh     change       -0.3781449E-03 Eh
 * total energy  :  -189.7569256 Eh     change       -0.3003432E-03 Eh
 * total energy  :  -189.7571700 Eh     change       -0.2443795E-03 Eh
 * total energy  :  -189.7573763 Eh     change       -0.2062565E-03 Eh
 * total energy  :  -189.7588505 Eh     change       -0.6501930E-06 Eh
 * total energy  :  -189.7588513 Eh     change       -0.7686115E-06 Eh
 * total energy  :  -189.7588523 Eh     change       -0.1038705E-05 Eh
 * total energy  :  -189.7588537 Eh     change       -0.1428979E-05 Eh
 * total energy  :  -189.7588554 Eh     change       -0.1700520E-05 Eh
 * total energy  :  -189.7588570 Eh     change       -0.1529478E-05 Eh
 * total energy  :  -189.7588583 Eh     change       -0.1280791E-05 Eh
 * total energy  :  -189.7588593 Eh     change       -0.1025847E-05 Eh
 * total energy  :  -189.7588593 Eh     change       -0.4950664E-08 Eh
   *** GEOMETRY OPTIMIZATION CONVERGED AFTER 122 ITERATIONS ***

 final structure:
================
121
 xtb: 6.7.1 (edcfbbe)
C          -13.38146386146185       -3.88546540772046       -3.04812680762402
C          -13.03149200741885       -2.54708041124881       -2.98139335712137
C          -12.17807123688376       -2.09758126808437       -1.99107815640048
C          -11.65797827419346       -2.99412560212451       -1.06186573163903
N          -10.78596014754676       -2.54431659829171       -0.06117520929628
C          -10.90205810537060       -2.80178794424832        1.29057968484615
C          -11.89153218717527       -3.49012505904273        1.97777777076318
C          -11.78047086958983       -3.57808790687022        3.35224736561694
C          -10.71810237594185       -2.99074776203456        4.03575873793328
C           -9.74347381501321       -2.28428636137281        3.35996571324283
C           -9.83334486303358       -2.18177987813143        1.97824741244053
C           -9.03290630619015       -1.52589211285008        0.98203558004146
C           -7.86355465807088       -0.78346991034662        1.03994482657014
C           -7.31684400112412       -0.28567987890068       -0.13544633503654
C           -6.08255640445939        0.51336487648022       -0.10585845422900
C           -5.01819504081101        0.13030825997956        0.72137273581178
C           -3.84038207346311        0.84645199306941        0.78288473351864
C           -3.73173952943975        1.98949693254405        0.00413896172089
C           -4.78363081171031        2.37992564912349       -0.85413861810489
C           -5.95585807389789        1.64203249459391       -0.90494914528549
C           -4.33188506465538        3.55484136992748       -1.54663286531791
C           -4.91714712102295        4.39114382976005       -2.48739765883058
C           -4.19795465680324        5.47634026965450       -2.94714747914110
C           -2.91775159557832        5.74082959702863       -2.46699809718257
C           -2.31650525255611        4.92300188582216       -1.52956139189919
C           -3.02213611495842        3.81565781064132       -1.08356465407362
N           -2.67117135949411        2.86474127277828       -0.14386095173366
C           -1.45198708813458        2.78808394493139        0.53565196315142
C           -1.42537885732088        2.61373667688178        1.91851182199655
C           -0.21724836127564        2.52209676765827        2.57736074306032
C            0.98983054692457        2.62610518812594        1.89284052780302
C            2.25401780507503        2.56746717411716        2.64647965359898
C            3.31347618986374        3.43701618282834        2.38210554371347
C            4.48592034648257        3.29055528203062        3.09988044971790
C            4.56339856442798        2.29939786396693        4.06608545334911
C            3.43898810557670        1.51973679989333        4.28817657134118
N            2.31877446705314        1.64639904041116        3.60405602351833
C            0.96047352380214        2.77336755739319        0.49895062789218
N            2.15074725833002        2.79009420631512       -0.24361720716098
C            2.56598703405569        3.80167470788932       -1.08566510772731
C            1.92202126849236        4.97908267900888       -1.43438117574934
C            2.57670412912522        5.84578407955603       -2.28834389358121
C            3.84821958842292        5.55812763614235       -2.77892913312870
C            4.50507837110508        4.39920679132489       -2.41504207494139
C            3.86677380654733        3.51222995455689       -1.55868863380252
C            4.24727120393360        2.26047947128590       -0.96440707599280
C            5.39110094500640        1.48004493191186       -1.03827791739856
C            5.45100084916253        0.29718209902446       -0.31415569160272
C            6.65893974222701       -0.54131856877265       -0.34538561930257
C            7.33323247178503       -0.76247701742177       -1.55382718358546
C            8.46113528255763       -1.55339395348616       -1.63075524722984
C            8.92590934814171       -2.14097446754676       -0.46278022205787
C            8.27922851245262       -1.90458220346534        0.77170667505584
C            7.14322165130792       -1.11205323143254        0.82435351640125
C            9.03738016746907       -2.60640268859663        1.76952530518576
C            8.89367164269866       -2.76479693163203        3.14135684655478
C            9.80893252120487       -3.54716501014987        3.81648625669906
C           10.84788432910841       -4.18027806911831        3.13786547882365
C           11.01153907907494       -4.03797037461173        1.77322794786976
C           10.10955300245844       -3.23249874637082        1.09291586262539
N           10.03009032001944       -2.94326051634594       -0.25510916474627
C           10.91035396183478       -3.39933034244558       -1.24579958209355
C           10.41400689817995       -4.00602649281125       -2.39620042332785
C           11.28534481573051       -4.45223012285804       -3.37224671182778
C           12.65295899351334       -4.30834072420583       -3.20720180176612
C           13.14862289172275       -3.70885318607047       -2.06127531569762
C           12.28478850736298       -3.24967787027101       -1.08441785063410
C            4.34672582360285       -0.10450206735712        0.45073280992361
C            3.19441251815826        0.64830547806446        0.52850179999134
C            3.16013932841739        1.85122624200730       -0.16150923528595
C           -0.25412961307072        2.85480263167486       -0.16796357220620
C           -7.94347113978648       -0.55801871950950       -1.35938329433078
C           -9.10329089083312       -1.30018659683121       -1.44132110302565
C           -9.66021091718765       -1.77072713311026       -0.26069492070221
C          -12.00661124831226       -4.33983159594165       -1.13353476786422
C          -12.86934091155959       -4.77784357694250       -2.12094875185379
H          -14.05117840990370       -4.23213118730582       -3.82059849440837
H          -13.43184543362010       -1.84694515035396       -3.69974724772241
H          -11.92056248610792       -1.05121769620463       -1.92211149131126
H          -12.72856389732157       -3.93337509337352        1.45948594823341
H          -12.53676174279528       -4.11119790948798        3.90949089726317
H          -10.66609517476381       -3.08426135681322        5.11036695522400
H           -8.92893641256585       -1.81467583505425        3.89064980122093
H           -7.39456109555037       -0.58115716964025        1.99111205645714
H           -5.11583237580462       -0.77018670760259        1.30954696634616
H           -3.02532384276787        0.51232528053019        1.40684401208949
H           -6.76578615592424        1.95223599950925       -1.54774669205755
H           -5.91678690666875        4.19542547607565       -2.84496693688327
H           -4.63356918240186        6.13776968159450       -3.68115096380100
H           -2.38423879896665        6.60610215288265       -2.83188389221208
H           -1.33330189351555        5.15111148796448       -1.14856364017839
H           -2.35280721810694        2.56734106595352        2.46791734924532
H           -0.18683773541632        2.38746443527213        3.64735169140324
H            3.21722347357945        4.21604512300491        1.64134343794041
H            5.32737849986280        3.94041162408791        2.90758585658539
H            5.46523708050340        2.14447195765739        4.63730118154289
H            3.43188242747116        0.74907050761538        5.04868759322325
H            0.94553775597636        5.21849910986856       -1.04176261477832
H            2.09374716080179        6.76738637011793       -2.57793953348102
H            4.32689753745902        6.25950994560183       -3.44599093702755
H            5.49735921373197        4.18492689152650       -2.78247438519849
H            6.23267944709224        1.80249648369425       -1.63278860975282
H            6.94389986157341       -0.31365860369169       -2.45576893469255
H            8.96777573381361       -1.70198150955118       -2.57260715317473
H            6.65464017664380       -0.92109315363967        1.76820948602856
H            8.07817088390026       -2.28716265950105        3.66343683075049
H            9.71713648563088       -3.68143943561587        4.88410189144743
H           11.53917187656780       -4.79973605058231        3.69018817841308
H           11.80907787021767       -4.54818923704842        1.25433877242226
H            9.34827341741683       -4.13672231016646       -2.51077190043797
H           10.89449584295363       -4.92287181809438       -4.26230715891562
H           13.33051065094130       -4.66241052665394       -3.96940455082802
H           14.21415191821406       -3.59040476427333       -1.93052389168723
H           12.66650589254687       -2.76166932155147       -0.20001636880786
H            4.39502191693530       -1.04598545463447        0.97749193345949
H            2.35071932974834        0.30989578022686        1.11019680537811
H           -0.26441961567885        2.93270172471822       -1.24495546555687
H           -7.48673528359950       -0.19557420236728       -2.26856167017039
H           -9.55229328527573       -1.51866084705269       -2.39866958866409
H          -11.58714854169256       -5.03644599956996       -0.42305074277146
H          -13.13592794217582       -5.82321141796448       -2.17195358932123

          :  Hamiltonian                  GFN2-xTB          :
         :: gradient norm              0.000053163875 Eh/a0 ::
         :: HOMO-LUMO gap              2.393413164332 eV    ::
         :: SCC energy              -193.357297146971 Eh    ::
         :: -> dispersion             -0.180454005122 Eh    ::
         :: repulsion energy           3.598437858855 Eh    ::

    * Orbital Energies and Occupations

         #    Occupation            Energy/Eh            Energy/eV
      -------------------------------------------------------------
         1        2.0000           -0.6763675             -18.4049
       ...           ...                  ...                  ...
       165        2.0000           -0.4052803             -11.0282
       166        2.0000           -0.4019230             -10.9369
       167        2.0000           -0.3955547             -10.7636
       168        2.0000           -0.3946148             -10.7380
       169        2.0000           -0.3775578             -10.2739
       170        2.0000           -0.3772364             -10.2651
       171        2.0000           -0.3746029             -10.1935
       172        2.0000           -0.3740778             -10.1792
       173        2.0000           -0.3694763             -10.0540
       174        2.0000           -0.3657774              -9.9533
       175        2.0000           -0.3640555              -9.9065
       176        2.0000           -0.3528740              -9.6022
       177        2.0000           -0.3518487              -9.5743 (HOMO)
       178                         -0.2638924              -7.1809 (LUMO)
       179                         -0.2463097              -6.7024
       180                         -0.2437360              -6.6324
       181                         -0.2430266              -6.6131
       182                         -0.2424420              -6.5972
       183                         -0.2420777              -6.5873
       184                         -0.2381361              -6.4800
       185                         -0.2347686              -6.3884
       186                         -0.2341866              -6.3725
       187                         -0.2317977              -6.3075
       188                         -0.2313319              -6.2949
       ...                                ...                  ...
       349                          0.7564408              20.5838
      -------------------------------------------------------------
                  HL-Gap            0.0879563 Eh            2.3934 eV

     #   Z          covCN         q      C6AA      α(0)
     1   6 C        2.919    -0.033    28.832     8.805
     2   6 C        2.920    -0.028    28.702     8.785
     3   6 C        2.922    -0.042    29.053     8.839
     4   6 C        2.913     0.065    26.539     8.448
     5   7 N        2.802    -0.044    22.092     6.981
     6   6 C        3.076     0.047    26.875     8.500
     7   6 C        2.910    -0.051    29.268     8.871
     8   6 C        2.924    -0.034    28.840     8.807
     9   6 C        2.920    -0.041    29.023     8.834
    10   6 C        2.913    -0.033    28.820     8.803
    11   6 C        3.069    -0.017    28.365     8.733
    12   6 C        3.065    -0.018    28.390     8.737
    13   6 C        2.918    -0.039    28.962     8.825
    14   6 C        2.977    -0.000    28.032     8.685
    15   6 C        2.977     0.001    28.000     8.680
    16   6 C        2.929    -0.038    28.947     8.823
    17   6 C        2.908    -0.052    29.284     8.873
    18   6 C        3.075     0.044    26.936     8.509
    19   6 C        3.065    -0.017    28.371     8.734
    20   6 C        2.918    -0.039    28.961     8.825
    21   6 C        3.068    -0.016    28.343     8.730
    22   6 C        2.913    -0.033    28.810     8.802
    23   6 C        2.920    -0.041    29.008     8.832
    24   6 C        2.924    -0.033    28.827     8.805
    25   6 C        2.910    -0.050    29.236     8.866
    26   6 C        3.074     0.046    26.887     8.502
    27   7 N        2.802    -0.042    22.042     6.973
    28   6 C        2.912     0.066    26.514     8.444
    29   6 C        2.920    -0.048    29.186     8.859
    30   6 C        2.925    -0.026    28.661     8.780
    31   6 C        2.981    -0.009    28.241     8.717
    32   6 C        2.964     0.100    25.791     8.330
    33   6 C        2.917    -0.040    29.000     8.831
    34   6 C        2.928    -0.011    28.285     8.722
    35   6 C        2.914    -0.040    29.003     8.831
    36   6 C        2.906     0.061    26.628     8.461
    37   7 N        1.845    -0.231    26.907     7.688
    38   6 C        2.914     0.062    26.603     8.458
    39   7 N        2.803    -0.046    22.133     6.987
    40   6 C        3.077     0.047    26.872     8.499
    41   6 C        2.910    -0.051    29.262     8.870
    42   6 C        2.924    -0.034    28.835     8.806
    43   6 C        2.920    -0.041    29.024     8.835
    44   6 C        2.913    -0.033    28.818     8.803
    45   6 C        3.069    -0.017    28.366     8.733
    46   6 C        3.065    -0.019    28.413     8.741
    47   6 C        2.918    -0.040    28.986     8.829
    48   6 C        2.977    -0.000    28.029     8.684
    49   6 C        2.977    -0.000    28.031     8.685
    50   6 C        2.929    -0.039    28.958     8.825
    51   6 C        2.908    -0.052    29.288     8.874
    52   6 C        3.077     0.045    26.922     8.507
    53   6 C        3.065    -0.018    28.391     8.737
    54   6 C        2.918    -0.039    28.960     8.825
    55   6 C        3.069    -0.017    28.367     8.733
    56   6 C        2.913    -0.033    28.821     8.803
    57   6 C        2.920    -0.041    29.025     8.835
    58   6 C        2.924    -0.034    28.841     8.807
    59   6 C        2.910    -0.051    29.269     8.871
    60   6 C        3.076     0.047    26.874     8.499
    61   7 N        2.802    -0.044    22.094     6.981
    62   6 C        2.913     0.065    26.540     8.448
    63   6 C        2.922    -0.042    29.052     8.839
    64   6 C        2.920    -0.028    28.700     8.785
    65   6 C        2.919    -0.033    28.832     8.805
    66   6 C        2.920    -0.028    28.702     8.786
    67   6 C        2.922    -0.042    29.055     8.839
    68   6 C        2.930    -0.038    28.948     8.824
    69   6 C        2.908    -0.051    29.257     8.869
    70   6 C        3.079     0.045    26.917     8.506
    71   6 C        2.925    -0.057    29.425     8.896
    72   6 C        2.929    -0.039    28.961     8.826
    73   6 C        2.908    -0.052    29.289     8.874
    74   6 C        3.077     0.045    26.919     8.506
    75   6 C        2.922    -0.042    29.053     8.839
    76   6 C        2.920    -0.028    28.701     8.785
    77   1 H        0.926     0.035     2.523     2.484
    78   1 H        0.926     0.036     2.508     2.476
    79   1 H        0.926     0.041     2.441     2.443
    80   1 H        0.926     0.027     2.635     2.539
    81   1 H        0.926     0.028     2.614     2.528
    82   1 H        0.926     0.027     2.627     2.535
    83   1 H        0.926     0.030     2.581     2.513
    84   1 H        0.926     0.032     2.552     2.498
    85   1 H        0.926     0.033     2.545     2.495
    86   1 H        0.926     0.030     2.590     2.517
    87   1 H        0.926     0.033     2.544     2.494
    88   1 H        0.926     0.031     2.569     2.507
    89   1 H        0.926     0.028     2.613     2.528
    90   1 H        0.926     0.029     2.596     2.520
    91   1 H        0.926     0.025     2.666     2.553
    92   1 H        0.926     0.049     2.337     2.390
    93   1 H        0.926     0.057     2.231     2.336
    94   1 H        0.926     0.033     2.539     2.492
    95   1 H        0.926     0.035     2.515     2.480
    96   1 H        0.926     0.036     2.508     2.477
    97   1 H        0.925     0.038     2.479     2.462
    98   1 H        0.926     0.023     2.694     2.567
    99   1 H        0.926     0.029     2.603     2.523
   100   1 H        0.926     0.028     2.619     2.531
   101   1 H        0.926     0.031     2.579     2.511
   102   1 H        0.926     0.033     2.550     2.497
   103   1 H        0.926     0.031     2.567     2.505
   104   1 H        0.926     0.027     2.626     2.534
   105   1 H        0.926     0.031     2.575     2.510
   106   1 H        0.926     0.030     2.591     2.517
   107   1 H        0.926     0.027     2.628     2.535
   108   1 H        0.926     0.028     2.612     2.527
   109   1 H        0.926     0.027     2.632     2.537
   110   1 H        0.926     0.041     2.440     2.443
   111   1 H        0.926     0.036     2.505     2.475
   112   1 H        0.926     0.035     2.521     2.483
   113   1 H        0.926     0.036     2.508     2.476
   114   1 H        0.926     0.040     2.444     2.445
   115   1 H        0.926     0.033     2.550     2.497
   116   1 H        0.926     0.031     2.574     2.509
   117   1 H        0.926     0.052     2.298     2.371
   118   1 H        0.926     0.031     2.570     2.507
   119   1 H        0.926     0.027     2.629     2.535
   120   1 H        0.926     0.040     2.443     2.444
   121   1 H        0.926     0.036     2.508     2.477

molecular dipole:
                 x           y           z       tot (Debye)
 q only:        0.060      -0.250      -0.381
   full:        0.414      -0.085      -0.471       1.609

 projected vibrational frequencies (cm⁻¹)
eigval :       -0.00    -0.00    -0.00    -0.00     0.00     0.00
eigval :        4.09     7.52     8.47    10.47    15.98    17.82
eigval :       24.02    25.99    29.62    33.67    38.60    48.16
eigval :       52.62    56.85    58.67    62.58    65.09    68.33
eigval :       74.15    76.53    90.63    92.96   103.23   109.71
eigval :      110.77   115.88   126.37   129.84   132.45   140.46
eigval :      151.84   165.33   171.88   179.81   182.86   193.12
eigval :      197.24   215.84   220.56   232.13   235.46   240.81
eigval :      256.00   260.92   266.94   268.19   282.06   285.16
eigval :      290.31   318.02   327.05   328.49   336.31   357.26
eigval :      365.73   374.17   380.70   380.81   383.57   394.65
eigval :      395.55   396.16   399.18   399.81   404.31   415.16
eigval :      417.18   419.33   427.99   429.97   430.75   435.31
eigval :      441.49   446.92   454.36   460.99   466.48   476.43
eigval :      485.01   488.68   518.95   526.02   526.66   532.80
eigval :      534.44   535.38   535.82   554.18   559.41   569.60
eigval :      573.32   576.55   580.28   587.20   589.48   592.80
eigval :      593.52   596.61   597.85   605.43   612.80   613.74
eigval :      615.81   618.10   624.82   625.37   644.99   653.06
eigval :      662.62   670.39   673.58   675.91   677.43   686.93
eigval :      687.15   691.99   698.72   706.87   707.65   708.11
eigval :      709.26   717.44   718.78   726.40   730.13   763.44
eigval :      763.46   766.25   767.77   769.92   772.42   775.04
eigval :      775.61   775.65   781.97   813.68   813.78   831.07
eigval :      834.74   840.69   848.10   851.23   861.40   867.98
eigval :      869.46   869.52   875.33   875.65   878.47   878.77
eigval :      883.57   884.04   891.94   895.19   896.26   897.88
eigval :      899.61   900.84   901.12   905.21   905.45   906.54
eigval :      909.73   911.62   913.65   915.30   916.20   916.54
eigval :      919.69   920.08   921.09   921.95   921.96   923.03
eigval :      927.56   931.98   932.84   933.38   933.46   934.79
eigval :      935.48   937.31   988.66   998.13   998.24  1008.48
eigval :     1013.48  1016.17  1030.74  1031.44  1047.90  1067.36
eigval :     1071.20  1071.47  1072.26  1073.44  1073.69  1080.58
eigval :     1080.70  1096.36  1113.60  1118.21  1118.23  1122.26
eigval :     1123.28  1126.27  1128.83  1148.91  1151.67  1155.93
eigval :     1156.48  1159.16  1168.89  1175.45  1178.63  1178.86
eigval :     1179.29  1180.41  1181.26  1181.29  1184.09  1184.18
eigval :     1196.64  1200.63  1200.96  1210.07  1212.20  1228.02
eigval :     1230.18  1232.77  1237.12  1244.82  1246.77  1247.45
eigval :     1250.72  1256.41  1257.07  1273.79  1274.09  1275.49
eigval :     1275.55  1280.35  1289.78  1293.08  1296.49  1303.81
eigval :     1305.25  1312.25  1317.06  1318.24  1318.42  1322.27
eigval :     1344.10  1346.03  1346.44  1354.56  1355.64  1359.49
eigval :     1362.74  1362.80  1363.03  1369.60  1375.96  1378.39
eigval :     1407.98  1415.99  1417.89  1419.89  1421.97  1425.04
eigval :     1426.91  1433.77  1434.63  1437.45  1438.84  1440.32
eigval :     1457.23  1459.95  1461.41  1481.63  1482.44  1483.68
eigval :     1484.06  1484.70  1484.96  1489.94  1501.24  1501.65
eigval :     1547.31  1559.88  1564.88  1565.49  1569.68  1570.59
eigval :     1577.01  1582.59  1582.70  1583.99  1584.71  1585.68
eigval :     1586.56  1587.37  1596.43  1596.48  1597.70  1598.04
eigval :     1600.89  1601.17  1612.77  1613.36  1617.69  1618.28
eigval :     3051.28  3073.60  3075.51  3075.51  3076.93  3077.65
eigval :     3078.00  3078.15  3078.60  3078.67  3080.46  3080.53
eigval :     3080.68  3080.97  3081.21  3082.16  3082.79  3083.71
eigval :     3086.02  3086.79  3086.88  3088.21  3088.61  3089.19
eigval :     3089.83  3090.54  3090.60  3091.23  3091.42  3091.80
eigval :     3093.00  3093.11  3094.12  3094.19  3095.26  3095.43
eigval :     3095.77  3096.33  3097.06  3097.35  3097.84  3098.90
eigval :     3099.06  3099.08  3107.74

   temp. (K)  partition function   enthalpy   heat capacity  entropy
                                   cal/mol     cal/K/mol   cal/K/mol   J/K/mol
 298.15  VIB  0.435E+29            34885.185    220.890    219.514
         ROT  0.582E+09              888.752      2.981     43.088
         INT  0.253E+38            35773.938    223.871    262.602
         TR   0.291E+29             1481.254      4.968     46.464
         TOT                       37255.1916   228.8390   309.0659  1293.1316

       T/K    H(0)-H(T)+PV         H(T)/Eh          T*S/Eh         G(T)/Eh
   ------------------------------------------------------------------------
    298.15    0.593699E-01    0.986938E+00    0.146847E+00    0.840091E+00
   ------------------------------------------------------------------------

         :::::::::::::::::::::::::::::::::::::::::::::::::::::
         ::                  THERMODYNAMIC                  ::
         :::::::::::::::::::::::::::::::::::::::::::::::::::::
         :: total free energy        -188.918768405280 Eh   ::
         ::.................................................::
         :: total energy             -189.758859288076 Eh   ::
         :: zero point energy           0.927568119910 Eh   ::
         :: G(RRHO) w/o ZPVE           -0.087477237115 Eh   ::
         :: G(RRHO) contrib.            0.840090882796 Eh   ::
         :::::::::::::::::::::::::::::::::::::::::::::::::::::

           -------------------------------------------------
          | TOTAL ENERGY             -189.758859288076 Eh   |
          | TOTAL ENTHALPY           -188.771921241317 Eh   |
          | TOTAL FREE ENERGY        -188.918768405280 Eh   |
          | GRADIENT NORM               0.000053164703 Eh/α |
          | HOMO-LUMO GAP               2.393413738479 eV   |
           -------------------------------------------------

 * finished run on 2025/09/14 at 08:32:36.644
