   * xtb version 6.7.1 (edcfbbe) compiled by 'albert@albert-system' on 2024-07-22

   ID    Z sym.   atoms
    1    6 C      1-4, 6-26, 28-36, 38, 40-60, 62-76
    2    7 N      5, 27, 37, 39, 61
    3    1 H      77-121

          program call               : xtb data2507/gas/2PBCzPy/2PBCzPy_gas_T1_crest.xyz --gfn 2 --spinpol --tblite --uhf 2 --ohess vtight --parallel 40 --molden --ceasefiles --namespace data2507/gas/2PBCzPy/2PBCzPy_gas_T1_finalOpt
 * total energy  :  -189.6727555 Eh     change       -0.9999013E-08 Eh
 * total energy  :  -189.6728070 Eh     change       -0.5151791E-04 Eh
 * total energy  :  -189.6728303 Eh     change       -0.2324748E-04 Eh
 * total energy  :  -189.6728333 Eh     change       -0.3052717E-05 Eh
 * total energy  :  -189.6728363 Eh     change       -0.2932921E-05 Eh
 * total energy  :  -189.6728391 Eh     change       -0.2844498E-05 Eh
 * total energy  :  -189.6728433 Eh     change       -0.4195781E-05 Eh
 * total energy  :  -189.6728469 Eh     change       -0.3539534E-05 Eh
 * total energy  :  -189.6728484 Eh     change       -0.1573979E-05 Eh
 * total energy  :  -189.6728498 Eh     change       -0.1393455E-05 Eh
 * total energy  :  -189.6728808 Eh     change       -0.2545800E-06 Eh
 * total energy  :  -189.6728812 Eh     change       -0.4474616E-06 Eh
 * total energy  :  -189.6728816 Eh     change       -0.3590638E-06 Eh
 * total energy  :  -189.6728821 Eh     change       -0.4892933E-06 Eh
 * total energy  :  -189.6728825 Eh     change       -0.4259049E-06 Eh
 * total energy  :  -189.6728829 Eh     change       -0.4361973E-06 Eh
 * total energy  :  -189.6728834 Eh     change       -0.4068245E-06 Eh
 * total energy  :  -189.6728835 Eh     change       -0.1478524E-06 Eh
 * total energy  :  -189.6728835 Eh     change       -0.9546852E-08 Eh
   *** GEOMETRY OPTIMIZATION CONVERGED AFTER 44 ITERATIONS ***

 final structure:
================
121
 xtb: 6.7.1 (edcfbbe)
C           -8.58545647902337       -0.26042734245481        0.61814022129041
C           -7.56299293307046       -0.42639952775666        1.53723055287444
C           -6.63575986176990       -1.43833011906144        1.37406027775756
C           -6.71921544257529       -2.28664720133160        0.27360070758121
N           -5.77005664465197       -3.30222774069179        0.09034612909345
C           -6.04078487987671       -4.62581431933174       -0.19856973697927
C           -7.26112164497029       -5.28081790241549       -0.27694124871706
C           -7.24960982915678       -6.63436842353674       -0.55612080942167
C           -6.05670423516678       -7.32791502087545       -0.74565428908306
C           -4.83811841418569       -6.68570698440156       -0.64623515306505
C           -4.82396238163119       -5.32622993078880       -0.36684087212262
C           -3.77073761929476       -4.36686805250712       -0.17621932995122
C           -2.38911677409041       -4.44571574051865       -0.24434255765575
C           -1.63302412436958       -3.29515647474979       -0.04722418531274
C           -0.16988630171095       -3.32210893092789       -0.12652005566497
C            0.50730227862709       -2.25877961659154       -0.74825876093180
C            1.88059648653421       -2.19091608066201       -0.78891358697475
C            2.60854745561137       -3.19810200965958       -0.16558945486167
C            1.94623696490007       -4.32098632381254        0.39210464189732
C            0.56273839676887       -4.37755462937164        0.41027509395514
C            2.97986400125268       -5.19348103414799        0.87548134904896
C            2.96331229678549       -6.42716984207886        1.50920331763801
C            4.16523788532080       -6.99216889331873        1.89194410883919
C            5.37020783253415       -6.32996080063703        1.66857243842343
C            5.41203097401993       -5.10050053486477        1.03682351224731
C            4.21305554305299       -4.54350376263850        0.61554643349329
N            3.97144494015389       -3.33763254185682       -0.01952193912571
C            4.90140857635724       -2.34607027597840       -0.32038559900774
C            6.16334525310380       -2.62926895460830       -0.89891908256139
C            7.03821227240633       -1.62226565282776       -1.16152160128327
C            6.74314070759578       -0.24365893913961       -0.91565252358867
C            7.66278723606145        0.73633772223884       -1.34576313803017
C            7.37617475336193        2.12552050635056       -1.50584957108828
C            8.34710313123629        2.98683081189655       -1.92567794909463
C            9.63632562453170        2.50625260391741       -2.22008438240512
C            9.83721345389272        1.13971639907270       -2.09101893596302
N            8.91767443719267        0.31116281163656       -1.68138945095561
C            5.47922254630645        0.01319593691570       -0.27797028039693
N            5.06698922792881        1.29372419757564        0.13499854022676
C            5.62928769810891        2.06200505415827        1.13770053916711
C            6.86907050825290        1.93837353753883        1.74453721869966
C            7.19550036279877        2.85286691947857        2.72844582017851
C            6.31104363551992        3.86079633035945        3.10549004696864
C            5.06742525443192        3.97792750986283        2.51375415892274
C            4.71584391900542        3.07306100323205        1.52261293698658
C            3.53488970103676        2.88708733453606        0.72088127923368
C            2.29257117446233        3.49845873945629        0.67334636718749
C            1.33819420007202        3.03670098346388       -0.23037287769927
C           -0.02699035493351        3.57301564528561       -0.23034180667670
C           -0.27598864205524        4.92820166918601        0.03474150396618
C           -1.55360364807558        5.44570249905231        0.08311399041880
C           -2.61903248121254        4.58152020760131       -0.13265859505370
C           -2.38959024067852        3.22124466879294       -0.44185211371671
C           -1.09942168171300        2.72164955224127       -0.48002244218656
C           -3.67962055840105        2.62895210427350       -0.66248076647207
C           -4.09568888827206        1.34869341135720       -1.00113850081968
C           -5.44947776791483        1.10223564749297       -1.11675936011466
C           -6.38135079842957        2.11171519374265       -0.88818725682067
C           -5.99051699970105        3.39661660514972       -0.56204773217247
C           -4.63061561661412        3.65697376819610       -0.47010400161914
N           -3.97562088779464        4.83127450703725       -0.15165850330897
C           -4.58505748119194        6.06684218281238        0.10746970918516
C           -4.24760238715343        6.78646318542396        1.25020582159094
C           -4.84670837471171        8.00727780796415        1.49886650127855
C           -5.79005438070798        8.51461234325257        0.62078544936122
C           -6.13006110223308        7.79751739393764       -0.51436980316661
C           -5.52903288464278        6.58058722798455       -0.77708194280400
C            1.67849028719955        2.01509277857498       -1.13393759472250
C            2.90406550727595        1.39117125109792       -1.10026666198403
C            3.81267477257486        1.79069376108896       -0.12888402213262
C            4.60783319281662       -1.01491473369288       -0.00706119792358
C           -2.28237580372096       -2.08092200483800        0.22967223614666
C           -3.65385292899404       -1.98279439669139        0.31693265124967
C           -4.40193568768216       -3.13406716771471        0.11166523472626
C           -7.74283826824614       -2.11324729543671       -0.65394264937714
C           -8.67365352366420       -1.10688904341847       -0.47454203407573
H           -9.31230121483295        0.52624668453377        0.75420472935098
H           -7.49078572648857        0.23136169096658        2.39039029236771
H           -5.85304177504123       -1.58624710179715        2.10264272860960
H           -8.19014174776906       -4.75562390867589       -0.11336378924190
H           -8.18677779504476       -7.16672176479383       -0.62490926241282
H           -6.09001686406963       -8.38479156552249       -0.96439446249128
H           -3.91308828777581       -7.22639930845471       -0.77808715065029
H           -1.90823316324321       -5.38230577182162       -0.48282090225929
H           -0.07032971059206       -1.48460381773129       -1.23042767175108
H            2.37298137836277       -1.38012010826830       -1.29925678971090
H            0.05787406268039       -5.21341612702438        0.87088252828610
H            2.02749890174368       -6.92947716728258        1.70304686382759
H            4.17360326530455       -7.95316146176913        2.38432731128232
H            6.29199338102592       -6.78323113073033        2.00144233358785
H            6.34999559680069       -4.58719917722661        0.89564090936402
H            6.40636228107754       -3.64659681882700       -1.16524393096486
H            7.99553037469431       -1.83272452560146       -1.61242151256009
H            6.36821734546843        2.47542979632648       -1.35571312009721
H            8.12531007389425        4.03691615008428       -2.05423774516704
H           10.43057794124351        3.16141659909255       -2.53574944892316
H           10.80097742009936        0.69611120873381       -2.31264528813596
H            7.55440331183485        1.15742173033908        1.45394553381431
H            8.15688870175513        2.78454204862909        3.21530538053486
H            6.60397726620144        4.55844348870931        3.87611819201580
H            4.38118916083917        4.75578261646402        2.81375651989311
H            2.05567353997751        4.29797888957159        1.35890576217107
H            0.56204966940838        5.59270201477335        0.18310062833401
H           -1.71544898373950        6.49663494221291        0.27066299503834
H           -0.93426020396215        1.67368712331068       -0.67800751374480
H           -3.37175855710123        0.56652640470742       -1.17255967299560
H           -5.79817879199148        0.11483700637364       -1.38096730375918
H           -7.43318244807790        1.88229247035210       -0.96954791836623
H           -6.72227099424992        4.16871372922158       -0.37772333382225
H           -3.52803237801681        6.37705905787270        1.94344477422061
H           -4.58145723329389        8.56130748770411        2.38711732098228
H           -6.25866291809307        9.46634884931702        0.82034940230667
H           -6.86131690100414        8.19186090556198       -1.20434047813520
H           -5.77407560017337        6.02951744133923       -1.67275548844308
H            0.96187053290161        1.72476875973977       -1.88733361158734
H            3.16342315840077        0.62228496719711       -1.81243703126568
H            3.69197579362889       -0.79133438387512        0.52168843828305
H           -1.68297019238924       -1.20000501678111        0.40710633559258
H           -4.12728399293964       -1.03688543912013        0.53005463631431
H           -7.79348610674106       -2.75918085061361       -1.51800837408096
H           -9.46552256302144       -0.97784541130959       -1.19772927376244

 projected vibrational frequencies (cm⁻¹)
eigval :       -0.00    -0.00     0.00     0.00     0.00     0.00
eigval :        6.98     9.83    11.82    16.92    18.01    26.64
eigval :       27.97    31.05    37.37    41.76    45.83    48.41
eigval :       55.51    57.79    64.98    66.34    69.49    73.61
eigval :       74.69    80.66    92.04    96.94   105.15   112.18
eigval :      113.92   127.90   131.74   135.69   140.80   148.79
eigval :      156.70   162.32   164.01   167.04   178.50   191.25
eigval :      204.54   217.64   225.50   232.93   237.05   245.54
eigval :      249.08   263.98   269.39   272.88   278.18   286.07
eigval :      290.99   312.60   317.13   322.26   339.12   354.44
eigval :      372.18   374.83   379.09   380.40   380.66   383.63
eigval :      392.28   396.06   398.32   400.32   401.04   409.37
eigval :      412.77   416.70   424.87   429.08   430.66   432.48
eigval :      434.04   442.78   449.47   452.64   465.28   469.12
eigval :      478.67   484.10   495.04   507.61   526.92   529.14
eigval :      536.80   537.65   541.40   552.98   557.06   560.80
eigval :      567.22   571.55   573.08   576.74   584.85   588.91
eigval :      590.23   591.95   593.68   597.49   605.75   612.95
eigval :      614.64   616.90   621.07   623.33   624.63   628.74
eigval :      642.03   656.58   666.20   670.21   674.87   675.88
eigval :      677.57   686.77   687.14   693.25   696.69   702.89
eigval :      706.09   708.29   708.99   709.28   724.66   727.04
eigval :      763.63   763.84   764.50   768.27   770.78   772.11
eigval :      773.99   775.79   775.99   780.15   808.67   812.77
eigval :      815.41   832.97   835.69   842.48   846.25   865.50
eigval :      868.51   868.80   869.71   870.12   870.35   872.95
eigval :      876.41   878.55   882.65   884.20   887.12   892.37
eigval :      892.89   893.30   896.13   898.27   901.97   902.13
eigval :      902.71   906.32   907.03   909.91   911.10   913.02
eigval :      915.03   917.98   919.77   920.34   921.13   921.82
eigval :      922.99   927.02   928.57   930.77   931.63   933.59
eigval :      934.35   935.31   936.40   986.91   997.88   998.36
eigval :     1003.00  1012.03  1014.29  1028.19  1029.34  1065.18
eigval :     1065.96  1067.87  1068.94  1071.16  1071.78  1073.27
eigval :     1080.67  1080.99  1095.33  1106.03  1118.36  1118.58
eigval :     1119.43  1123.04  1123.94  1134.47  1143.76  1150.98
eigval :     1153.84  1155.35  1159.54  1170.98  1176.21  1178.10
eigval :     1178.70  1179.52  1181.04  1181.23  1183.87  1184.52
eigval :     1189.66  1198.42  1200.39  1201.93  1211.43  1213.15
eigval :     1223.69  1226.48  1230.23  1233.24  1242.28  1246.12
eigval :     1248.23  1252.65  1255.52  1270.89  1272.20  1274.80
eigval :     1275.14  1280.62  1286.04  1288.37  1294.67  1297.74
eigval :     1307.50  1309.16  1318.18  1318.51  1320.13  1324.47
eigval :     1340.58  1344.47  1345.43  1349.58  1350.96  1352.30
eigval :     1355.79  1358.48  1360.25  1362.38  1366.54  1368.55
eigval :     1372.11  1376.16  1401.24  1412.42  1417.12  1420.33
eigval :     1421.53  1424.75  1425.59  1431.79  1434.54  1436.51
eigval :     1438.95  1441.99  1452.53  1457.31  1461.47  1466.37
eigval :     1476.55  1476.89  1481.98  1482.54  1483.63  1484.18
eigval :     1488.56  1493.46  1523.91  1545.04  1551.89  1555.37
eigval :     1560.00  1561.52  1565.44  1572.50  1576.41  1581.75
eigval :     1581.86  1582.30  1583.51  1585.47  1586.56  1594.33
eigval :     1595.21  1595.31  1596.66  1600.45  1610.86  1613.08
eigval :     3029.44  3064.18  3077.18  3077.43  3078.17  3078.22
eigval :     3078.85  3079.36  3079.63  3079.84  3080.38  3080.78
eigval :     3081.89  3082.46  3083.04  3083.62  3084.11  3084.69
eigval :     3086.49  3087.08  3088.12  3088.35  3089.06  3089.80
eigval :     3090.38  3091.24  3091.39  3092.04  3092.31  3093.69
eigval :     3094.47  3094.50  3094.71  3094.87  3096.84  3098.30
eigval :     3098.56  3100.09  3100.17  3100.74  3101.63  3103.76
eigval :     3107.99  3109.10  3119.95

   temp. (K)  partition function   enthalpy   heat capacity  entropy
                                   cal/mol     cal/K/mol   cal/K/mol   J/K/mol
 298.15  VIB  0.146E+28            34965.728    223.745    217.428
         ROT  0.349E+09              888.752      2.981     42.071
         INT  0.509E+36            35854.480    226.726    259.499
         TR   0.291E+29             1481.254      4.968     46.464
         TOT                       37335.7339   231.6939   305.9633  1280.1504

       T/K    H(0)-H(T)+PV         H(T)/Eh          T*S/Eh         G(T)/Eh
   ------------------------------------------------------------------------
    298.15    0.594983E-01    0.983124E+00    0.145373E+00    0.837751E+00
   ------------------------------------------------------------------------

         :::::::::::::::::::::::::::::::::::::::::::::::::::::
         ::                  THERMODYNAMIC                  ::
         :::::::::::::::::::::::::::::::::::::::::::::::::::::
         :: total free energy        -188.835132174010 Eh   ::
         ::.................................................::
         :: total energy             -189.672883513929 Eh   ::
         :: zero point energy           0.923626089041 Eh   ::
         :: G(RRHO) w/o ZPVE           -0.085874749122 Eh   ::
         :: G(RRHO) contrib.            0.837751339919 Eh   ::
         :::::::::::::::::::::::::::::::::::::::::::::::::::::

           -------------------------------------------------
          | TOTAL ENERGY             -189.672883513929 Eh   |
          | TOTAL ENTHALPY           -188.689759145722 Eh   |
          | TOTAL FREE ENERGY        -188.835132174010 Eh   |
          | GRADIENT NORM               0.000063252011 Eh/α |
           -------------------------------------------------

 * finished run on 2025/09/14 at 08:59:42.031
