   * xtb version 6.7.1 (edcfbbe) compiled by 'albert@albert-system' on 2024-07-22

   ID    Z sym.   atoms
    1    6 C      1-4, 6-26, 28-36, 38, 40-60, 62-76
    2    7 N      5, 27, 37, 39, 61
    3    1 H      77-121

          program call               : xtb data2507/gas/2PBCzPy/2PBCzPy_gas_S0_crest.xyz --gfn 2 --ohess vtight --parallel 40 --molden --ceasefiles --namespace data2507/gas/2PBCzPy/2PBCzPy_gas_S0_finalOpt
          :  Hamiltonian                  GFN2-xTB          :
 * total energy  :  -189.7624050 Eh     change       -0.2411866E-08 Eh
 * total energy  :  -189.7624071 Eh     change       -0.2115857E-05 Eh
 * total energy  :  -189.7624096 Eh     change       -0.2484775E-05 Eh
 * total energy  :  -189.7624160 Eh     change       -0.6451557E-05 Eh
 * total energy  :  -189.7624187 Eh     change       -0.2738154E-05 Eh
 * total energy  :  -189.7624208 Eh     change       -0.2033360E-05 Eh
 * total energy  :  -189.7624235 Eh     change       -0.2715523E-05 Eh
 * total energy  :  -189.7624261 Eh     change       -0.2579657E-05 Eh
 * total energy  :  -189.7624284 Eh     change       -0.2332552E-05 Eh
 * total energy  :  -189.7624317 Eh     change       -0.3336596E-05 Eh
 * total energy  :  -189.7624782 Eh     change       -0.3549744E-06 Eh
 * total energy  :  -189.7624785 Eh     change       -0.3806418E-06 Eh
 * total energy  :  -189.7624788 Eh     change       -0.2991221E-06 Eh
 * total energy  :  -189.7624791 Eh     change       -0.2583650E-06 Eh
 * total energy  :  -189.7624794 Eh     change       -0.2640134E-06 Eh
 * total energy  :  -189.7624796 Eh     change       -0.2814158E-06 Eh
 * total energy  :  -189.7624799 Eh     change       -0.2970299E-06 Eh
 * total energy  :  -189.7624803 Eh     change       -0.3880864E-06 Eh
 * total energy  :  -189.7624803 Eh     change       -0.3483507E-08 Eh
   *** GEOMETRY OPTIMIZATION CONVERGED AFTER 44 ITERATIONS ***

 final structure:
================
121
 xtb: 6.7.1 (edcfbbe)
C           -8.58095912666696       -0.25336202853909        0.87651918250181
C           -7.56045533359055       -0.50545117258924        1.77799226406731
C           -6.65629529262490       -1.52391689035877        1.54151915360585
C           -6.75999888566997       -2.29144412160238        0.38474536918380
N           -5.82973796928235       -3.30727834396376        0.12471678594959
C           -6.12149993176812       -4.60008313959873       -0.26198362151165
C           -7.35168937680233       -5.23123160154748       -0.37709108280661
C           -7.36213620201123       -6.55943977401253       -0.75769485352220
C           -6.18088477605140       -7.25283785547689       -1.01218130357627
C           -4.95295930989170       -6.63651648134397       -0.87772254205180
C           -4.91630590033949       -5.30220927198259       -0.49582892082251
C           -3.84800968602983       -4.37509252848860       -0.24515923637285
C           -2.46687852382167       -4.46653883953740       -0.33734260219758
C           -1.69538275520370       -3.34669642991122       -0.06020489141867
C           -0.22895063859667       -3.38243832254522       -0.16407478857198
C            0.43871600247143       -2.30387689724562       -0.75935554859717
C            1.81332681944181       -2.24024682582454       -0.82601673846454
C            2.54450324339816       -3.27189072272199       -0.25665790674066
C            1.89181746411713       -4.40417247836643        0.27646228298045
C            0.50567881148327       -4.45554624185956        0.32306999982943
C            2.92944964201308       -5.30016789873055        0.70917590132478
C            2.91175554044823       -6.55064852859898        1.31115280344065
C            4.11387035905243       -7.14274051448516        1.64354243904472
C            5.32048835355124       -6.49158655604357        1.40185545245307
C            5.36317343470580       -5.24626189264115        0.80319935041691
C            4.16105450319516       -4.66059050708959        0.43496459133244
N            3.91638358066574       -3.43246588137781       -0.15635564336442
C            4.85237249150642       -2.43046329352386       -0.42311736413105
C            6.06320363958884       -2.69607706480097       -1.06233040614638
C            6.96007978010628       -1.67156504578879       -1.28534127308182
C            6.67425674479779       -0.35191535578386       -0.93611651110250
C            7.65322471129810        0.70081791762751       -1.24690470078856
C            7.27098970079640        1.97108906055467       -1.68208491376415
C            8.25439206200187        2.90952335808892       -1.93555827674328
C            9.58348245008066        2.55719601102130       -1.75922652808959
C            9.86266534780613        1.25985985899415       -1.35727859616852
N            8.93292764512819        0.35874783706040       -1.11008935233193
C            5.45804424093220       -0.08830335294084       -0.29687335893795
N            5.07444206161247        1.19714775488788        0.12321432802612
C            5.67673995758840        1.97805266775797        1.09053100935277
C            6.92094828329062        1.83870976006278        1.68530555322922
C            7.28875071290267        2.77648699129380        2.63126275276481
C            6.43956942691867        3.82134632317914        2.98845181983343
C            5.18990099950132        3.95034342472299        2.41556032958431
C            4.79720484101771        3.02369056477293        1.45937720172476
C            3.59672089046567        2.84744258132551        0.68641883618098
C            2.37063819722949        3.49658751313738        0.64115386854688
C            1.38964360085654        3.03702707110105       -0.22989423213037
C            0.03576167365642        3.60981643070685       -0.22452725288276
C           -0.17278057462338        4.98429889094577       -0.04860781682225
C           -1.43747524829271        5.53538652844691       -0.00245139811730
C           -2.52714981854133        4.68490994674083       -0.12793377688918
C           -2.33774125115428        3.30131313930452       -0.34355802230686
C           -1.05982934098864        2.76902146887406       -0.38166647473513
C           -3.64558385291486        2.72584628210463       -0.48590812911505
C           -4.09833095810147        1.43386516006086       -0.71698874005442
C           -5.45927797175472        1.21119183569699       -0.77844474237638
C           -6.36251711619477        2.25628008072141       -0.59872217039686
C           -5.93547728487562        3.55217019325561       -0.37957351392699
C           -4.56814494376411        3.78745309739024       -0.34475505023479
N           -3.87935532467386        4.96581682441344       -0.13026311676122
C           -4.45279401078396        6.23220504423537        0.04571369154766
C           -4.06615136017499        7.03257753896020        1.11703168193000
C           -4.62831918453576        8.28473972262098        1.28165830521531
C           -5.58420616942921        8.74447814691290        0.39107171438474
C           -5.97422221066120        7.94710331097501       -0.67214116208464
C           -5.40992155156093        6.69793962117631       -0.85140074417653
C            1.68199459401131        1.98235189078599       -1.10779118827350
C            2.89133917434466        1.32413356203503       -1.07885881984711
C            3.82390034347641        1.72155714503793       -0.13305254814878
C            4.57693657061095       -1.12652824825553       -0.02765391212165
C           -2.32122331032209       -2.15023218746464        0.31887932972323
C           -3.69120418760376       -2.03915470157012        0.42761734639415
C           -4.45709676958650       -3.16009152087324        0.14314545857526
C           -7.78332772195628       -2.03274830903344       -0.52324694199684
C           -8.69143527494563       -1.02127377958232       -0.27079965357253
H           -9.28882713331690        0.53893707036750        1.06866798570306
H           -7.47141810962116        0.09011405323523        2.67425782766095
H           -5.87445414908663       -1.73829178096532        2.25439220876049
H           -8.27159524843849       -4.70716308054145       -0.16485637410943
H           -8.30740705627851       -7.07268418108078       -0.85634858207099
H           -6.23165367895478       -8.28967308711550       -1.30986061357010
H           -4.03676847808867       -7.17778516482744       -1.06021359238834
H           -2.00070186938507       -5.38865347891229       -0.65060361281705
H           -0.14403746329695       -1.50580364516073       -1.19479646217514
H            2.29670826778714       -1.40985223125155       -1.31277462603163
H            0.00598397646633       -5.30566772560714        0.76258961939012
H            1.97361261386531       -7.04330514714682        1.51759869394467
H            4.12283426332806       -8.11725931926696        2.10853231513278
H            6.24537366289018       -6.96775365898022        1.69219838535583
H            6.30571143522109       -4.74503926077079        0.64676248467425
H            6.28830356146577       -3.69691368995583       -1.39578352065182
H            7.90441139949654       -1.87182040876406       -1.76711166578193
H            6.23116633679597        2.21254337291568       -1.83588460521182
H            7.98699612046764        3.90214265849672       -2.26851823199858
H           10.37892321608543        3.26369119388406       -1.93727065415360
H           10.88248988498754        0.92197403671580       -1.22219291862076
H            7.58062153556954        1.02650453879138        1.42054108923235
H            8.25581964303879        2.69579224894119        3.10516426271564
H            6.76540558580702        4.53552430588649        3.73012074262040
H            4.52778555609031        4.75373045670091        2.70193859846559
H            2.17071072599719        4.32564771243458        1.30303158976170
H            0.68509065971611        5.63534173116737        0.03310501947082
H           -1.56952745244388        6.60058458038512        0.11523729559129
H           -0.92241118147343        1.70616995178814       -0.51055551979075
H           -3.39594576198375        0.62464082397433       -0.84778250634622
H           -5.83691318120571        0.21608561249755       -0.96106882949802
H           -7.42097143118154        2.04518617668036       -0.63265645956948
H           -6.64525952674009        4.35223032416369       -0.23163455530895
H           -3.33714399367802        6.66162435814567        1.82192630985905
H           -4.32429132559369        8.90141251931336        2.11458204423333
H           -6.02370659944536        9.72133351459436        0.52499899132369
H           -6.71587742298676        8.30343203824808       -1.37174786068226
H           -5.69428418907787        6.08302207180612       -1.69223690983737
H            0.94106693693832        1.68886174150553       -1.83628758861553
H            3.11323816218013        0.52988824483117       -1.77609457315811
H            3.67152307401491       -0.91257464162357        0.52033327038871
H           -1.70588030886790       -1.29373868115335        0.55378394566867
H           -4.14792576117202       -1.10527608031611        0.71688877195041
H           -7.85074480511520       -2.61646024579516       -1.42943281560348
H           -9.48242140617145       -0.82555463583425       -0.97993432787365

          :  Hamiltonian                  GFN2-xTB          :
         :: gradient norm              0.000045798244 Eh/a0 ::
         :: HOMO-LUMO gap              2.354989323430 eV    ::
         :: SCC energy              -193.359803598809 Eh    ::
         :: -> dispersion             -0.188314245510 Eh    ::
         :: repulsion energy           3.597323267230 Eh    ::

    * Orbital Energies and Occupations

         #    Occupation            Energy/Eh            Energy/eV
      -------------------------------------------------------------
         1        2.0000           -0.6763943             -18.4056
       ...           ...                  ...                  ...
       165        2.0000           -0.4042827             -11.0011
       166        2.0000           -0.4009786             -10.9112
       167        2.0000           -0.3959882             -10.7754
       168        2.0000           -0.3945196             -10.7354
       169        2.0000           -0.3779260             -10.2839
       170        2.0000           -0.3767536             -10.2520
       171        2.0000           -0.3753912             -10.2149
       172        2.0000           -0.3736714             -10.1681
       173        2.0000           -0.3693999             -10.0519
       174        2.0000           -0.3664137              -9.9706
       175        2.0000           -0.3636163              -9.8945
       176        2.0000           -0.3529406              -9.6040
       177        2.0000           -0.3517128              -9.5706 (HOMO)
       178                         -0.2651686              -7.2156 (LUMO)
       179                         -0.2458652              -6.6903
       180                         -0.2441758              -6.6444
       181                         -0.2434098              -6.6235
       182                         -0.2419762              -6.5845
       183                         -0.2414967              -6.5715
       184                         -0.2389635              -6.5025
       185                         -0.2349759              -6.3940
       186                         -0.2341169              -6.3706
       187                         -0.2327192              -6.3326
       188                         -0.2306728              -6.2769
       ...                                ...                  ...
       349                          0.7565251              20.5861
      -------------------------------------------------------------
                  HL-Gap            0.0865442 Eh            2.3550 eV

     #   Z          covCN         q      C6AA      α(0)
     1   6 C        2.919    -0.031    28.783     8.798
     2   6 C        2.920    -0.026    28.654     8.778
     3   6 C        2.922    -0.041    29.023     8.835
     4   6 C        2.913     0.066    26.530     8.446
     5   7 N        2.802    -0.045    22.105     6.983
     6   6 C        3.076     0.047    26.875     8.499
     7   6 C        2.910    -0.051    29.267     8.871
     8   6 C        2.924    -0.034    28.842     8.807
     9   6 C        2.920    -0.041    29.024     8.835
    10   6 C        2.912    -0.033    28.821     8.803
    11   6 C        3.069    -0.017    28.365     8.733
    12   6 C        3.064    -0.018    28.393     8.738
    13   6 C        2.917    -0.038    28.956     8.824
    14   6 C        2.977    -0.001    28.040     8.686
    15   6 C        2.978     0.001    27.993     8.679
    16   6 C        2.930    -0.038    28.943     8.823
    17   6 C        2.909    -0.052    29.301     8.876
    18   6 C        3.079     0.043    26.942     8.510
    19   6 C        3.060    -0.017    28.367     8.734
    20   6 C        2.917    -0.038    28.954     8.824
    21   6 C        3.070    -0.015    28.324     8.726
    22   6 C        2.913    -0.033    28.812     8.802
    23   6 C        2.920    -0.040    28.998     8.831
    24   6 C        2.924    -0.033    28.827     8.805
    25   6 C        2.910    -0.051    29.269     8.871
    26   6 C        3.070     0.047    26.880     8.501
    27   7 N        2.799    -0.042    22.043     6.973
    28   6 C        2.910     0.067    26.505     8.442
    29   6 C        2.919    -0.049    29.206     8.862
    30   6 C        2.926    -0.027    28.678     8.782
    31   6 C        2.979    -0.010    28.257     8.720
    32   6 C        2.963     0.099    25.800     8.331
    33   6 C        2.917    -0.041    29.017     8.833
    34   6 C        2.928    -0.011    28.291     8.723
    35   6 C        2.914    -0.041    29.014     8.833
    36   6 C        2.905     0.061    26.626     8.461
    37   7 N        1.845    -0.233    26.950     7.694
    38   6 C        2.915     0.062    26.601     8.458
    39   7 N        2.802    -0.050    22.201     6.998
    40   6 C        3.075     0.048    26.846     8.495
    41   6 C        2.909    -0.050    29.248     8.868
    42   6 C        2.925    -0.033    28.820     8.804
    43   6 C        2.920    -0.041    29.019     8.834
    44   6 C        2.913    -0.033    28.830     8.805
    45   6 C        3.073    -0.017    28.359     8.732
    46   6 C        3.058    -0.018    28.407     8.740
    47   6 C        2.918    -0.039    28.961     8.825
    48   6 C        2.977     0.000    28.022     8.683
    49   6 C        2.977    -0.000    28.032     8.685
    50   6 C        2.928    -0.039    28.961     8.826
    51   6 C        2.908    -0.052    29.288     8.874
    52   6 C        3.074     0.044    26.926     8.508
    53   6 C        3.066    -0.018    28.387     8.737
    54   6 C        2.920    -0.039    28.960     8.825
    55   6 C        3.068    -0.017    28.369     8.734
    56   6 C        2.913    -0.033    28.833     8.805
    57   6 C        2.920    -0.041    29.013     8.833
    58   6 C        2.924    -0.034    28.845     8.808
    59   6 C        2.910    -0.051    29.265     8.871
    60   6 C        3.075     0.046    26.881     8.501
    61   7 N        2.803    -0.044    22.092     6.981
    62   6 C        2.913     0.065    26.542     8.448
    63   6 C        2.922    -0.043    29.057     8.840
    64   6 C        2.920    -0.028    28.702     8.785
    65   6 C        2.919    -0.033    28.833     8.806
    66   6 C        2.920    -0.028    28.702     8.785
    67   6 C        2.922    -0.043    29.057     8.840
    68   6 C        2.931    -0.038    28.955     8.825
    69   6 C        2.909    -0.051    29.255     8.869
    70   6 C        3.091     0.044    26.906     8.502
    71   6 C        2.932    -0.058    29.444     8.899
    72   6 C        2.931    -0.038    28.951     8.824
    73   6 C        2.908    -0.053    29.317     8.878
    74   6 C        3.079     0.045    26.908     8.504
    75   6 C        2.922    -0.042    29.052     8.839
    76   6 C        2.920    -0.027    28.686     8.783
    77   1 H        0.926     0.033     2.542     2.493
    78   1 H        0.926     0.035     2.515     2.480
    79   1 H        0.926     0.041     2.442     2.444
    80   1 H        0.926     0.026     2.640     2.541
    81   1 H        0.926     0.028     2.619     2.531
    82   1 H        0.926     0.027     2.631     2.537
    83   1 H        0.926     0.030     2.584     2.514
    84   1 H        0.926     0.032     2.560     2.502
    85   1 H        0.926     0.031     2.576     2.510
    86   1 H        0.926     0.030     2.579     2.512
    87   1 H        0.926     0.033     2.538     2.491
    88   1 H        0.926     0.032     2.560     2.502
    89   1 H        0.926     0.029     2.607     2.525
    90   1 H        0.926     0.030     2.588     2.516
    91   1 H        0.926     0.030     2.580     2.512
    92   1 H        0.926     0.048     2.342     2.393
    93   1 H        0.926     0.059     2.209     2.324
    94   1 H        0.926     0.036     2.500     2.472
    95   1 H        0.926     0.034     2.528     2.486
    96   1 H        0.926     0.035     2.521     2.483
    97   1 H        0.925     0.037     2.492     2.469
    98   1 H        0.926     0.028     2.617     2.530
    99   1 H        0.926     0.029     2.599     2.521
   100   1 H        0.926     0.028     2.616     2.529
   101   1 H        0.926     0.031     2.576     2.510
   102   1 H        0.926     0.032     2.552     2.498
   103   1 H        0.926     0.031     2.574     2.509
   104   1 H        0.926     0.027     2.631     2.536
   105   1 H        0.926     0.032     2.557     2.500
   106   1 H        0.926     0.034     2.537     2.491
   107   1 H        0.926     0.024     2.680     2.560
   108   1 H        0.926     0.027     2.634     2.538
   109   1 H        0.926     0.027     2.635     2.538
   110   1 H        0.926     0.041     2.441     2.443
   111   1 H        0.926     0.036     2.506     2.476
   112   1 H        0.926     0.035     2.521     2.483
   113   1 H        0.926     0.036     2.508     2.477
   114   1 H        0.926     0.040     2.444     2.445
   115   1 H        0.926     0.032     2.554     2.499
   116   1 H        0.926     0.022     2.699     2.569
   117   1 H        0.926     0.051     2.313     2.378
   118   1 H        0.926     0.030     2.590     2.517
   119   1 H        0.926     0.033     2.542     2.493
   120   1 H        0.926     0.039     2.458     2.452
   121   1 H        0.926     0.035     2.523     2.484

molecular dipole:
                 x           y           z       tot (Debye)
 q only:       -0.436       0.874      -0.154
   full:       -0.515       1.380      -0.250       3.797

 projected vibrational frequencies (cm⁻¹)
eigval :       -0.00    -0.00     0.00     0.00     0.00     0.00
eigval :        8.51     9.72    11.41    17.40    19.02    25.69
eigval :       29.17    32.04    35.24    39.09    41.44    48.62
eigval :       51.25    57.76    63.70    65.13    69.37    71.76
eigval :       74.36    78.24    91.20    97.29   100.91   109.66
eigval :      112.96   129.15   132.24   136.78   141.71   155.12
eigval :      159.13   162.67   166.78   174.94   187.36   191.21
eigval :      204.17   217.80   227.18   231.57   236.53   245.61
eigval :      249.31   263.00   267.72   271.50   277.83   286.99
eigval :      292.27   316.31   319.70   331.65   344.89   359.41
eigval :      371.71   373.35   378.07   380.65   380.97   394.74
eigval :      397.76   398.34   399.37   401.74   409.70   411.74
eigval :      415.66   421.15   428.23   430.35   432.52   434.04
eigval :      440.18   447.71   461.66   462.76   469.19   474.83
eigval :      484.44   492.36   517.58   527.70   529.77   532.59
eigval :      536.28   536.88   538.11   555.14   560.82   571.54
eigval :      574.53   575.69   579.13   586.46   589.36   592.31
eigval :      593.93   595.46   598.99   604.92   611.86   614.65
eigval :      617.44   619.85   625.36   626.83   638.52   644.93
eigval :      667.43   670.40   676.62   677.40   678.38   687.08
eigval :      687.65   692.28   699.23   706.53   708.08   708.61
eigval :      709.92   717.06   719.74   727.63   728.60   763.51
eigval :      763.59   767.19   769.37   771.81   774.76   775.45
eigval :      775.85   779.98   784.39   809.80   815.84   832.41
eigval :      835.62   840.80   845.06   848.20   868.35   870.40
eigval :      871.46   872.23   873.47   874.06   879.15   880.06
eigval :      883.23   884.96   892.16   894.14   894.70   896.94
eigval :      901.88   902.44   902.68   902.74   906.41   907.38
eigval :      909.36   912.76   914.66   917.08   918.79   919.75
eigval :      920.51   921.67   922.23   922.77   926.17   926.96
eigval :      930.62   932.16   933.46   933.54   934.29   935.40
eigval :      936.31   937.05   988.52   997.97   998.39  1009.08
eigval :     1013.64  1017.46  1030.31  1030.85  1048.04  1069.92
eigval :     1070.56  1072.23  1072.35  1074.03  1075.04  1080.73
eigval :     1080.97  1096.58  1117.90  1118.31  1118.41  1122.05
eigval :     1123.47  1126.24  1128.50  1145.66  1151.70  1155.96
eigval :     1158.33  1162.57  1169.04  1174.96  1178.48  1178.98
eigval :     1179.27  1181.16  1181.35  1183.36  1184.17  1185.37
eigval :     1196.95  1200.98  1202.40  1210.63  1213.94  1226.94
eigval :     1233.33  1234.43  1237.01  1246.42  1246.80  1249.46
eigval :     1250.86  1256.48  1258.27  1273.24  1275.20  1275.39
eigval :     1276.96  1280.68  1286.05  1292.23  1293.75  1303.52
eigval :     1305.07  1312.57  1318.25  1318.40  1321.84  1324.95
eigval :     1343.88  1346.47  1347.40  1353.09  1355.02  1358.57
eigval :     1361.15  1361.73  1363.37  1365.77  1373.80  1377.78
eigval :     1405.16  1414.81  1418.56  1418.88  1421.62  1422.88
eigval :     1425.77  1433.21  1434.61  1436.22  1437.40  1439.15
eigval :     1454.27  1459.20  1470.59  1481.90  1482.41  1483.78
eigval :     1484.21  1484.85  1485.47  1492.12  1496.15  1498.51
eigval :     1549.11  1559.54  1564.90  1565.60  1569.41  1571.20
eigval :     1575.74  1582.57  1582.61  1584.14  1584.63  1585.47
eigval :     1586.31  1587.38  1596.32  1596.48  1596.81  1597.14
eigval :     1600.52  1600.79  1611.79  1612.75  1616.84  1617.95
eigval :     3050.37  3072.65  3074.85  3075.28  3076.74  3077.09
eigval :     3077.49  3077.77  3077.94  3078.30  3078.90  3080.47
eigval :     3080.82  3081.93  3082.89  3083.38  3083.81  3085.40
eigval :     3086.14  3086.87  3087.90  3088.70  3089.64  3089.95
eigval :     3090.49  3090.63  3091.20  3092.05  3092.79  3093.32
eigval :     3093.88  3094.31  3095.24  3096.73  3097.26  3097.40
eigval :     3098.06  3098.28  3098.42  3099.23  3099.60  3099.88
eigval :     3101.34  3109.11  3121.05

   temp. (K)  partition function   enthalpy   heat capacity  entropy
                                   cal/mol     cal/K/mol   cal/K/mol   J/K/mol
 298.15  VIB  0.118E+28            34683.622    221.300    215.738
         ROT  0.352E+09              888.752      2.981     42.090
         INT  0.417E+36            35572.374    224.281    257.828
         TR   0.291E+29             1481.254      4.968     46.464
         TOT                       37053.6282   229.2494   304.2920  1273.1577

       T/K    H(0)-H(T)+PV         H(T)/Eh          T*S/Eh         G(T)/Eh
   ------------------------------------------------------------------------
    298.15    0.590487E-01    0.987284E+00    0.144579E+00    0.842705E+00
   ------------------------------------------------------------------------

         :::::::::::::::::::::::::::::::::::::::::::::::::::::
         ::                  THERMODYNAMIC                  ::
         :::::::::::::::::::::::::::::::::::::::::::::::::::::
         :: total free energy        -188.919775088933 Eh   ::
         ::.................................................::
         :: total energy             -189.762480331579 Eh   ::
         :: zero point energy           0.928235473690 Eh   ::
         :: G(RRHO) w/o ZPVE           -0.085530231044 Eh   ::
         :: G(RRHO) contrib.            0.842705242646 Eh   ::
         :::::::::::::::::::::::::::::::::::::::::::::::::::::

           -------------------------------------------------
          | TOTAL ENERGY             -189.762480331579 Eh   |
          | TOTAL ENTHALPY           -188.775196142780 Eh   |
          | TOTAL FREE ENERGY        -188.919775088933 Eh   |
          | GRADIENT NORM               0.000045800533 Eh/α |
          | HOMO-LUMO GAP               2.354988447833 eV   |
           -------------------------------------------------

 * finished run on 2025/09/14 at 08:42:21.134
