   * xtb version 6.7.1 (edcfbbe) compiled by 'albert@albert-system' on 2024-07-22

   ID    Z sym.   atoms
    1    7 N      1, 11, 17, 39, 51
    2    6 C      2-10, 12-16, 18-38, 40-50, 52-58
    3    1 H      59-91

          program call               : xtb data2507/gas/2PyCNBCz/2PyCNBCz_gas_S0_crest.xyz --gfn 2 --ohess vtight --parallel 40 --molden --ceasefiles --namespace data2507/gas/2PyCNBCz/2PyCNBCz_gas_S0_finalOpt
          :  Hamiltonian                  GFN2-xTB          :
 * total energy  :  -144.9746641 Eh     change       -0.1743444E-08 Eh
 * total energy  :  -144.9746653 Eh     change       -0.1200200E-05 Eh
 * total energy  :  -144.9746677 Eh     change       -0.2384372E-05 Eh
 * total energy  :  -144.9746714 Eh     change       -0.3652747E-05 Eh
 * total energy  :  -144.9746732 Eh     change       -0.1837022E-05 Eh
 * total energy  :  -144.9746751 Eh     change       -0.1835416E-05 Eh
 * total energy  :  -144.9746775 Eh     change       -0.2491432E-05 Eh
 * total energy  :  -144.9746794 Eh     change       -0.1846311E-05 Eh
 * total energy  :  -144.9746805 Eh     change       -0.1087183E-05 Eh
 * total energy  :  -144.9746818 Eh     change       -0.1294565E-05 Eh
 * total energy  :  -144.9746875 Eh     change       -0.6146788E-06 Eh
 * total energy  :  -144.9746875 Eh     change       -0.5549708E-07 Eh
 * total energy  :  -144.9746878 Eh     change       -0.2617549E-06 Eh
 * total energy  :  -144.9746877 Eh     change        0.1898547E-07 Eh
 * total energy  :  -144.9746879 Eh     change       -0.1998922E-06 Eh
 * total energy  :  -144.9746881 Eh     change       -0.1580633E-06 Eh
 * total energy  :  -144.9746883 Eh     change       -0.1801690E-06 Eh
 * total energy  :  -144.9746886 Eh     change       -0.2867866E-06 Eh
 * total energy  :  -144.9746887 Eh     change       -0.8660945E-07 Eh
   *** GEOMETRY OPTIMIZATION CONVERGED AFTER 22 ITERATIONS ***

 final structure:
================
91
 xtb: 6.7.1 (edcfbbe)
N           -9.99033998929634        2.54962584713468        0.76784825815854
C           -9.05766112042796        1.95026794874904        0.46572925258884
C           -7.88093212540695        1.24736429562970        0.15484853355467
C           -6.87420806561010        1.80763573507808       -0.66154748620894
C           -7.05581059960017        3.06338069149743       -1.39630202689193
C           -5.96487019567827        3.91850988836463       -1.54435114235692
C           -6.10182545543642        5.10963797890677       -2.22931663526937
C           -7.32326057478098        5.45333921777514       -2.78656592651692
C           -8.40473120920887        4.59690940618759       -2.66336913868899
C           -8.27623088496940        3.40656528731226       -1.97209539425537
N           -5.69648383551494        1.21787321015682       -0.78528783515773
C           -5.48282748336286        0.07428798905063       -0.14058865875083
C           -4.16321213366763       -0.53493909646624       -0.25723248109888
C           -3.17466929378319        0.06828470637882       -1.03575079247347
C           -1.92853109763091       -0.50751748242712       -1.14939448286338
C           -1.64263875898024       -1.69926868630662       -0.48164217488654
N           -0.38162794205357       -2.28520693871005       -0.59838538873952
C           -0.12954655251444       -3.61605342449529       -0.88094228236829
C           -1.01687992435810       -4.64476190682414       -1.16175745293716
C           -0.49124300726160       -5.89078803336609       -1.44735289439034
C            0.88322011605293       -6.11429860162398       -1.46599204284037
C            1.77181260291244       -5.08735881489545       -1.21660939912034
C            1.26705902716049       -3.82714737692475       -0.92697861570456
C            1.88267657556598       -2.55778211528944       -0.65291160749151
C            3.20240611505133       -2.14881188459906       -0.54525731749691
C            3.47938564273480       -0.82432067175055       -0.23125579523598
C            4.87019670188246       -0.36068555623933       -0.11435947590483
C            5.83105665303997       -0.79247257780074       -1.03914777257131
C            7.14677305257866       -0.38250932624263       -0.97681483941622
C            7.51042375069480        0.48806657457511        0.04071598579078
C            6.56307811341052        0.91439468331064        0.99940609222402
C            5.24487559794427        0.49426307867992        0.91391950344308
C            7.27115740846559        1.75192450382239        1.92697508809477
C            6.88724989283277        2.46573014646067        3.05431204906937
C            7.83909327584700        3.21000944738961        3.72188479121340
C            9.15571133080640        3.26017602163270        3.26927987417036
C            9.56172081285117        2.55877998938398        2.15017373344083
C            8.61507491413386        1.78935687750749        1.48912915303463
N            8.74542348688342        1.02204562680838        0.34828913877652
C            9.92901518771922        0.82093599919798       -0.37517214675027
C           11.09005586981236        0.42017240206943        0.27970771865403
C           12.25628430510467        0.22907310293162       -0.43767541991255
C           12.27348398161678        0.42399126439314       -1.80879470397104
C           11.11756410148058        0.81699622900356       -2.46273378591066
C            9.94915604788082        1.02101427388534       -1.75256142160909
C            2.42148202654158        0.06827967693129       -0.01297796478836
C            1.10048292975138       -0.31668963724259       -0.11963591065979
C            0.83122472217026       -1.63420160588052       -0.46056424687534
C           -2.62861431384419       -2.30247072247057        0.30051351258757
C           -3.87565717051705       -1.72730993962037        0.40802138232671
N           -6.39545528069663       -0.55839511122882        0.59164084303859
C           -7.58595134436422       -0.00183177138162        0.74337767872866
C           -8.55356141484008       -0.74136351757045        1.55998533019865
C           -9.91169426372628       -0.75624255060639        1.25351431752886
C          -10.79149420331505       -1.47213506784911        2.04392129225586
C          -10.32861627110124       -2.17596576936280        3.14328147579739
C           -8.97584822013384       -2.17735151438176        3.44421678302833
C           -8.09080945483396       -1.47117470048891        2.65376159694693
H           -5.02043738171887        3.63695419250505       -1.10430179515447
H           -5.25521426265666        5.77257280364651       -2.33048412051685
H           -7.43068897320924        6.38509213247031       -3.32184676271076
H           -9.35369004887296        4.85554072299927       -3.10861303802874
H           -9.11943257917467        2.73597935735348       -1.90097267761255
H           -3.41035501042754        0.98286769637373       -1.55681109658854
H           -1.17249322778113       -0.05516812085657       -1.77340573297391
H           -2.08355487800509       -4.47972724757150       -1.17247986829425
H           -1.16251605870647       -6.70828860199660       -1.66531303680084
H            1.25434195192493       -7.10324627800073       -1.69010555508951
H            2.83782234963774       -5.25436394198378       -1.24973152878429
H            4.00401778001320       -2.85967034074385       -0.67720235987166
H            5.52475498869725       -1.45396803102432       -1.83614064911707
H            7.87007251916213       -0.73800694124902       -1.69530818164908
H            4.52577597274106        0.80724377222939        1.65588651579957
H            5.86321255583692        2.43889394262550        3.39530700142558
H            7.56230543508131        3.77043064251400        4.60251379673039
H            9.87492812405656        3.86385387917178        3.80308789696496
H           10.58031340825938        2.61886172532043        1.79728050691605
H           11.06701847836319        0.24746468633868        1.34537841583446
H           13.15417627159815       -0.08184198007199        0.07570150330325
H           13.18507406108813        0.26984617435802       -2.36612872468738
H           11.12741518888066        0.97410558677407       -3.53123121023731
H            9.05171526386369        1.34921022554488       -2.25545098237466
H            2.65011441188120        1.09524727282075        0.23085320113725
H            0.30544890000466        0.38904630061921        0.06806519311912
H           -2.39839131190522       -3.21159178150218        0.83541265073262
H           -4.64476859435788       -2.18440155577543        1.01049349476017
H          -10.27974843018704       -0.22884704084254        0.38622443070316
H          -11.84299038984556       -1.48062801115002        1.79907842494757
H          -11.02091315569746       -2.72800992121308        3.76150587305648
H           -8.61178752180876       -2.73118656178749        4.29697858196159
H           -7.03458916594241       -1.46190120224895        2.87562796006777

          :  Hamiltonian                  GFN2-xTB          :
         :: gradient norm              0.000130836248 Eh/a0 ::
         :: HOMO-LUMO gap              1.582379304812 eV    ::
         :: SCC energy              -147.735158862526 Eh    ::
         :: -> dispersion             -0.127142536465 Eh    ::
         :: repulsion energy           2.760470199569 Eh    ::

    * Orbital Energies and Occupations

         #    Occupation            Energy/Eh            Energy/eV
      -------------------------------------------------------------
         1        2.0000           -0.6881131             -18.7245
       ...           ...                  ...                  ...
       123        2.0000           -0.4133757             -11.2485
       124        2.0000           -0.4129868             -11.2379
       125        2.0000           -0.4110212             -11.1845
       126        2.0000           -0.4103342             -11.1658
       127        2.0000           -0.4066429             -11.0653
       128        2.0000           -0.4059959             -11.0477
       129        2.0000           -0.4017467             -10.9321
       130        2.0000           -0.3972645             -10.8101
       131        2.0000           -0.3798009             -10.3349
       132        2.0000           -0.3760560             -10.2330
       133        2.0000           -0.3714142             -10.1067
       134        2.0000           -0.3666654              -9.9775
       135        2.0000           -0.3544592              -9.6453 (HOMO)
       136                         -0.2963079              -8.0629 (LUMO)
       137                         -0.2846913              -7.7468
       138                         -0.2515380              -6.8447
       139                         -0.2441987              -6.6450
       140                         -0.2439562              -6.6384
       141                         -0.2367378              -6.4420
       142                         -0.2360687              -6.4238
       143                         -0.2329813              -6.3397
       144                         -0.2327276              -6.3328
       145                         -0.2322837              -6.3208
       146                         -0.2311686              -6.2904
       ...                                ...                  ...
       265                          1.1676444              31.7732
      -------------------------------------------------------------
                  HL-Gap            0.0581513 Eh            1.5824 eV

     #   Z          covCN         q      C6AA      α(0)
     1   7 N        0.911    -0.251    26.518     7.448
     2   6 C        1.905     0.111    28.369     8.602
     3   6 C        2.963    -0.026    28.638     8.778
     4   6 C        2.969     0.119    25.382     8.264
     5   6 C        2.982     0.005    27.911     8.666
     6   6 C        2.926    -0.023    28.569     8.765
     7   6 C        2.918    -0.026    28.661     8.779
     8   6 C        2.920    -0.024    28.594     8.769
     9   6 C        2.919    -0.025    28.629     8.774
    10   6 C        2.922    -0.025    28.631     8.775
    11   7 N        1.850    -0.267    27.799     7.814
    12   6 C        2.942     0.186    24.025     8.039
    13   6 C        2.985    -0.003    28.093     8.694
    14   6 C        2.923    -0.025    28.628     8.774
    15   6 C        2.920    -0.043    29.058     8.840
    16   6 C        2.913     0.070    26.431     8.430
    17   7 N        2.802    -0.040    22.006     6.967
    18   6 C        3.073     0.046    26.888     8.502
    19   6 C        2.910    -0.050    29.254     8.869
    20   6 C        2.924    -0.033    28.824     8.804
    21   6 C        2.920    -0.040    28.993     8.830
    22   6 C        2.913    -0.032    28.808     8.801
    23   6 C        3.068    -0.016    28.329     8.728
    24   6 C        3.064    -0.017    28.359     8.733
    25   6 C        2.918    -0.038    28.956     8.824
    26   6 C        2.977     0.002    27.987     8.678
    27   6 C        2.977    -0.001    28.038     8.686
    28   6 C        2.929    -0.039    28.961     8.826
    29   6 C        2.908    -0.052    29.287     8.874
    30   6 C        3.077     0.045    26.915     8.506
    31   6 C        3.065    -0.018    28.389     8.737
    32   6 C        2.918    -0.039    28.961     8.825
    33   6 C        3.068    -0.017    28.366     8.733
    34   6 C        2.913    -0.033    28.819     8.803
    35   6 C        2.920    -0.041    29.020     8.834
    36   6 C        2.924    -0.034    28.837     8.806
    37   6 C        2.910    -0.051    29.266     8.871
    38   6 C        3.076     0.047    26.874     8.499
    39   7 N        2.802    -0.044    22.090     6.981
    40   6 C        2.913     0.065    26.542     8.448
    41   6 C        2.922    -0.042    29.052     8.839
    42   6 C        2.920    -0.028    28.700     8.785
    43   6 C        2.919    -0.033    28.829     8.805
    44   6 C        2.920    -0.028    28.700     8.785
    45   6 C        2.922    -0.042    29.053     8.839
    46   6 C        2.929    -0.038    28.950     8.824
    47   6 C        2.908    -0.051    29.275     8.872
    48   6 C        3.073     0.044    26.943     8.511
    49   6 C        2.920    -0.043    29.061     8.840
    50   6 C        2.923    -0.025    28.627     8.774
    51   7 N        1.850    -0.268    27.801     7.815
    52   6 C        2.970     0.119    25.380     8.264
    53   6 C        2.982     0.005    27.910     8.666
    54   6 C        2.922    -0.025    28.630     8.775
    55   6 C        2.919    -0.025    28.629     8.774
    56   6 C        2.920    -0.024    28.595     8.769
    57   6 C        2.918    -0.026    28.660     8.779
    58   6 C        2.926    -0.023    28.567     8.765
    59   1 H        0.926     0.049     2.336     2.390
    60   1 H        0.926     0.038     2.472     2.459
    61   1 H        0.926     0.038     2.469     2.457
    62   1 H        0.926     0.040     2.444     2.445
    63   1 H        0.926     0.038     2.479     2.462
    64   1 H        0.926     0.061     2.185     2.311
    65   1 H        0.926     0.047     2.360     2.402
    66   1 H        0.926     0.029     2.600     2.522
    67   1 H        0.926     0.030     2.584     2.514
    68   1 H        0.926     0.029     2.599     2.521
    69   1 H        0.926     0.032     2.558     2.501
    70   1 H        0.926     0.034     2.534     2.489
    71   1 H        0.926     0.031     2.568     2.506
    72   1 H        0.926     0.027     2.625     2.533
    73   1 H        0.926     0.032     2.554     2.499
    74   1 H        0.926     0.030     2.583     2.513
    75   1 H        0.926     0.027     2.624     2.533
    76   1 H        0.926     0.028     2.609     2.526
    77   1 H        0.926     0.027     2.631     2.537
    78   1 H        0.926     0.041     2.441     2.443
    79   1 H        0.926     0.036     2.505     2.475
    80   1 H        0.926     0.035     2.519     2.482
    81   1 H        0.926     0.036     2.505     2.475
    82   1 H        0.926     0.040     2.442     2.444
    83   1 H        0.926     0.033     2.542     2.493
    84   1 H        0.926     0.029     2.604     2.524
    85   1 H        0.926     0.047     2.362     2.403
    86   1 H        0.926     0.061     2.187     2.313
    87   1 H        0.926     0.038     2.481     2.463
    88   1 H        0.926     0.040     2.444     2.445
    89   1 H        0.926     0.038     2.469     2.457
    90   1 H        0.926     0.038     2.472     2.459
    91   1 H        0.926     0.048     2.340     2.392

molecular dipole:
                 x           y           z       tot (Debye)
 q only:        1.211      -0.449      -0.452
   full:        1.194      -0.479      -0.555       3.561

 projected vibrational frequencies (cm⁻¹)
eigval :       -0.00    -0.00    -0.00     0.00     0.00     0.00
eigval :        5.89     8.65     9.49    21.29    24.11    25.40
eigval :       29.05    38.23    41.27    44.77    50.11    62.76
eigval :       63.09    69.47    78.13    83.51    90.70    92.71
eigval :      110.14   113.81   122.30   132.15   134.57   142.74
eigval :      160.77   169.72   179.03   202.72   205.12   223.74
eigval :      227.92   232.32   235.21   244.80   254.49   267.82
eigval :      278.97   285.48   304.21   322.90   343.72   351.15
eigval :      356.58   365.92   372.29   373.34   379.91   380.75
eigval :      395.23   396.73   400.51   411.47   417.05   427.61
eigval :      430.99   433.54   444.93   451.47   472.35   477.91
eigval :      484.44   488.41   524.10   525.95   535.22   536.52
eigval :      554.84   570.83   576.43   580.59   583.28   587.21
eigval :      589.71   593.23   596.25   602.45   613.81   615.29
eigval :      619.42   624.51   632.82   633.83   644.33   664.78
eigval :      667.80   673.44   675.80   676.10   687.82   696.80
eigval :      703.87   708.05   709.36   725.35   739.03   755.72
eigval :      763.49   767.07   767.98   770.50   775.62   775.96
eigval :      811.99   830.27   832.82   836.88   848.24   869.28
eigval :      869.78   874.42   874.67   875.82   876.53   878.44
eigval :      882.31   884.45   894.73   901.25   903.78   905.77
eigval :      905.81   906.03   912.50   914.05   920.09   921.58
eigval :      922.07   928.30   928.53   929.68   931.54   933.00
eigval :      933.07   933.44   934.37   937.66   941.11   972.52
eigval :      986.49   998.22  1013.22  1014.40  1030.90  1066.61
eigval :     1071.25  1072.57  1074.01  1080.66  1082.17  1084.14
eigval :     1118.19  1120.32  1120.78  1121.15  1124.65  1125.63
eigval :     1146.46  1155.35  1157.94  1175.66  1177.61  1178.90
eigval :     1179.06  1181.17  1181.28  1181.65  1184.02  1195.88
eigval :     1198.42  1199.39  1200.70  1212.07  1232.27  1241.88
eigval :     1247.28  1247.74  1254.34  1256.50  1258.41  1274.45
eigval :     1275.77  1278.21  1279.56  1291.98  1303.18  1318.01
eigval :     1319.04  1322.97  1323.37  1327.77  1345.91  1351.53
eigval :     1356.82  1360.73  1362.85  1371.03  1378.68  1387.22
eigval :     1389.09  1411.75  1418.70  1422.99  1427.54  1430.63
eigval :     1431.28  1435.01  1439.20  1459.52  1474.52  1476.69
eigval :     1481.21  1483.54  1484.72  1486.05  1495.08  1500.83
eigval :     1507.28  1559.19  1565.56  1570.72  1581.81  1581.99
eigval :     1582.65  1584.24  1585.83  1590.99  1595.65  1595.87
eigval :     1596.42  1596.95  1600.28  1612.12  1617.40  2343.83
eigval :     3075.79  3077.67  3078.19  3078.43  3078.48  3078.81
eigval :     3080.34  3080.73  3081.35  3083.18  3083.54  3083.76
eigval :     3086.86  3088.42  3089.25  3090.00  3090.22  3090.48
eigval :     3090.75  3091.41  3091.72  3092.61  3093.30  3094.10
eigval :     3095.62  3097.26  3097.42  3097.85  3099.12  3100.09
eigval :     3100.44  3108.67  3109.15

   temp. (K)  partition function   enthalpy   heat capacity  entropy
                                   cal/mol     cal/K/mol   cal/K/mol   J/K/mol
 298.15  VIB  0.971E+22            26855.041    167.555    169.173
         ROT  0.252E+09              888.752      2.981     41.426
         INT  0.245E+31            27743.793    170.536    210.599
         TR   0.195E+29             1481.254      4.968     45.663
         TOT                       29225.0468   175.5042   256.2618  1072.1992

       T/K    H(0)-H(T)+PV         H(T)/Eh          T*S/Eh         G(T)/Eh
   ------------------------------------------------------------------------
    298.15    0.465731E-01    0.735487E+00    0.121758E+00    0.613729E+00
   ------------------------------------------------------------------------

         :::::::::::::::::::::::::::::::::::::::::::::::::::::
         ::                  THERMODYNAMIC                  ::
         :::::::::::::::::::::::::::::::::::::::::::::::::::::
         :: total free energy        -144.360959839627 Eh   ::
         ::.................................................::
         :: total energy             -144.974688662957 Eh   ::
         :: zero point energy           0.688913979692 Eh   ::
         :: G(RRHO) w/o ZPVE           -0.075185156361 Eh   ::
         :: G(RRHO) contrib.            0.613728823330 Eh   ::
         :::::::::::::::::::::::::::::::::::::::::::::::::::::

           -------------------------------------------------
          | TOTAL ENERGY             -144.974688662957 Eh   |
          | TOTAL ENTHALPY           -144.239201606644 Eh   |
          | TOTAL FREE ENERGY        -144.360959839627 Eh   |
          | GRADIENT NORM               0.000131012093 Eh/α |
          | HOMO-LUMO GAP               1.582376900833 eV   |
           -------------------------------------------------

 * finished run on 2025/09/08 at 12:30:30.955
