   * xtb version 6.7.1 (edcfbbe) compiled by 'albert@albert-system' on 2024-07-22

   ID    Z sym.   atoms
    1    7 N      1, 11, 17, 39, 51
    2    6 C      2-10, 12-16, 18-38, 40-50, 52-58
    3    1 H      59-91

          program call               : xtb data2507/gas/2PyCNBCz/2PyCNBCz_gas_T1_crest.xyz --gfn 2 --spinpol --tblite --uhf 2 --ohess vtight --parallel 40 --molden --ceasefiles --namespace data2507/gas/2PyCNBCz/2PyCNBCz_gas_T1_finalOpt
 * total energy  :  -144.9045710 Eh     change       -0.1070845E-08 Eh
 * total energy  :  -144.9045972 Eh     change       -0.2619293E-04 Eh
 * total energy  :  -144.9046124 Eh     change       -0.1520764E-04 Eh
 * total energy  :  -144.9046137 Eh     change       -0.1278306E-05 Eh
 * total energy  :  -144.9046148 Eh     change       -0.1067659E-05 Eh
 * total energy  :  -144.9046158 Eh     change       -0.9754154E-06 Eh
 * total energy  :  -144.9046167 Eh     change       -0.9582858E-06 Eh
 * total energy  :  -144.9046175 Eh     change       -0.7740364E-06 Eh
 * total energy  :  -144.9046184 Eh     change       -0.8673533E-06 Eh
 * total energy  :  -144.9046192 Eh     change       -0.8236543E-06 Eh
 * total energy  :  -144.9046331 Eh     change       -0.4601288E-06 Eh
 * total energy  :  -144.9046334 Eh     change       -0.2993811E-06 Eh
 * total energy  :  -144.9046337 Eh     change       -0.3349297E-06 Eh
 * total energy  :  -144.9046341 Eh     change       -0.3709371E-06 Eh
 * total energy  :  -144.9046346 Eh     change       -0.5290911E-06 Eh
 * total energy  :  -144.9046354 Eh     change       -0.8193606E-06 Eh
 * total energy  :  -144.9046359 Eh     change       -0.4997226E-06 Eh
 * total energy  :  -144.9046363 Eh     change       -0.3356894E-06 Eh
 * total energy  :  -144.9046363 Eh     change       -0.1881463E-07 Eh
   *** GEOMETRY OPTIMIZATION CONVERGED AFTER 44 ITERATIONS ***

 final structure:
================
91
 xtb: 6.7.1 (edcfbbe)
N           -9.97686000264906        2.63595611379881        0.72381560953312
C           -9.03824507490494        2.01599416564103        0.45002401577640
C           -7.89820312883694        1.29314019036016        0.15016143544289
C           -6.87557545835484        1.77233608902824       -0.74240762206797
C           -7.07846525625512        2.95759620731434       -1.58033754463190
C           -8.32422645001791        3.28149398793634       -2.11248003170022
C           -8.46763145505104        4.40340299052006       -2.90715120028035
C           -7.37757468577596        5.21308601019923       -3.17998180725372
C           -6.13248937575449        4.88860092296442       -2.66446859857038
C           -5.98006637051651        3.76741518009160       -1.87426992838932
N           -5.73250180977703        1.16877801861302       -0.83433161606878
C           -5.42543300273339        0.05481815055705       -0.13609952135607
C           -4.15240238067515       -0.55701103086321       -0.25554944112310
C           -3.16313885984552       -0.00639721299444       -1.09520334622512
C           -1.92756797915360       -0.59127301785259       -1.20028989360095
C           -1.62891665707047       -1.74683904630489       -0.47023291959602
N           -0.36130652933540       -2.33745675552509       -0.57378323929757
C           -0.10965621722142       -3.66803476746969       -0.83984225607574
C           -1.00138510386966       -4.69896098678924       -1.10131492710570
C           -0.47851662146423       -5.95225483421606       -1.36012685246027
C            0.89555435264115       -6.17912302248417       -1.36908364291139
C            1.78924635826151       -5.15057406187042       -1.13311607959382
C            1.28849647840316       -3.88443407076666       -0.87042191380421
C            1.90128526154697       -2.60942993818304       -0.61057699772604
C            3.21461545134276       -2.18930570859175       -0.50741346433133
C            3.48239991234169       -0.85434926160750       -0.20977806423561
C            4.86439078059633       -0.38068492164205       -0.09182735663594
C            5.85192450948049       -0.86496094322400       -0.96447708083578
C            7.16154775606987       -0.44034817227832       -0.90039860352017
C            7.49720596946217        0.49783792286087        0.06766384664744
C            6.52439042920423        0.97658251951416        0.97728727537082
C            5.21287781947396        0.54377839877832        0.88923976263390
C            7.20668621246333        1.87932481061102        1.86410603005737
C            6.79413739195562        2.66077727265434        2.93410625106173
C            7.72758638611370        3.45629479800283        3.56994774129466
C            9.05208152266799        3.48951640735589        3.14095464691249
C            9.48623500713358        2.72028046685147        2.07756854565129
C            8.55842508140779        1.90121829988215        1.45107702257840
N            8.71769312696562        1.06103757484014        0.36511978298156
C            9.91937351342507        0.82592279163708       -0.31916863317925
C           11.06651170537916        0.47268082263393        0.38529227309887
C           12.24985405309372        0.24759227346884       -0.29329211450584
C           12.29717534793059        0.36294203886927       -1.67275055197918
C           11.15477280420808        0.70952313697252       -2.37506844482484
C            9.96881654519761        0.94566151006074       -1.70491930612986
C            2.41494603033376        0.03640621947803       -0.01013791979596
C            1.09961487177295       -0.35811539306212       -0.11747065784965
C            0.83965559200869       -1.68724301713980       -0.43375195531429
C           -2.60287233957205       -2.30656705641834        0.36351386411568
C           -3.84060948680110       -1.72559805516124        0.46830096468379
N           -6.37941829138112       -0.46762941729485        0.66499569921216
C           -7.55196545904559        0.06368614293265        0.81272901241315
C           -8.49755788168936       -0.62472613674138        1.69628789054810
C           -8.00243938199533       -1.32153114839655        2.79961623033686
C           -8.86500093677684       -1.98541203032863        3.64829043560246
C          -10.22942248136412       -1.97194970640615        3.40445598908274
C          -10.72491851364603       -1.29791850177922        2.30064129763326
C           -9.86816012085256       -0.62628044707681        1.44879365259599
H           -9.17815692331439        2.65025333884633       -1.92162411505811
H           -9.43750234096932        4.64578473074629       -3.31519291266992
H           -7.49679064815122        6.09251346725236       -3.79535004782125
H           -5.27803220060755        5.51387903081485       -2.87898816339714
H           -5.01542962847518        3.50889510318949       -1.46383054320767
H           -3.40638105426080        0.87822964188654       -1.66357583737619
H           -1.18126223286200       -0.18081687233376       -1.86506613536558
H           -2.06644976057627       -4.52590525899870       -1.11420861658036
H           -1.15040808407772       -6.77257608809429       -1.56400332400668
H            1.26505790883853       -7.17299219112625       -1.57279185227910
H            2.85434676962530       -5.32527995246133       -1.15532796667375
H            4.02188507389006       -2.89640839241210       -0.62354600195383
H            5.56928942985393       -1.57596551915452       -1.72629676550848
H            7.90309568058144       -0.83281764147890       -1.57971784941553
H            4.47713605940451        0.89626178135621        1.59580197672225
H            5.76420388576828        2.64684784808528        3.25689446962301
H            7.42838299031511        4.06987184306240        4.40638934178582
H            9.75544818807701        4.13340386482791        3.64767307007737
H           10.51076462035929        2.76663096541506        1.74066376588359
H           11.01941319546323        0.36222497405061        1.45838382455635
H           13.13719435583872       -0.02685790527749        0.25744981869250
H           13.22217235033508        0.18327711198641       -2.19919615512089
H           11.18862657214809        0.80487199397878       -3.45014765695978
H            9.08133959476159        1.23822891006802       -2.24602338702899
H            2.63544313490870        1.06956504902813        0.21267266430675
H            0.29533244939728        0.34239366869172        0.04667866682675
H           -2.35962808459972       -3.18652857836078        0.94119491607778
H           -4.59652145322663       -2.14732459805490        1.11289760220281
H           -6.93851952522492       -1.32170529337054        2.98363527735301
H           -8.47329885917143       -2.51462377065075        4.50475688154602
H          -10.90400268271479       -2.48825181367806        4.07128160002751
H          -11.78592758569189       -1.29354047584800        2.10032267746924
H          -10.26511069804259       -0.11871443855948        0.58335278967809

 projected vibrational frequencies (cm⁻¹)
eigval :       -0.00    -0.00    -0.00     0.00     0.00     0.00
eigval :        6.77     8.37     9.05    22.60    22.76    23.10
eigval :       27.97    29.63    39.53    42.51    49.44    62.63
eigval :       63.49    68.88    76.79    82.55    91.04    98.23
eigval :      109.16   114.14   121.63   130.40   138.09   144.43
eigval :      157.54   167.33   175.35   198.38   201.29   224.99
eigval :      226.31   230.81   240.49   243.48   260.87   266.97
eigval :      282.31   286.62   302.82   320.16   337.45   347.48
eigval :      357.42   365.84   372.10   374.28   379.90   383.15
eigval :      390.34   393.45   398.47   408.79   415.67   423.51
eigval :      425.79   428.77   440.03   443.47   465.71   469.75
eigval :      473.16   476.28   485.76   525.09   536.79   539.96
eigval :      552.47   563.43   565.96   568.76   574.14   581.04
eigval :      584.76   586.46   589.63   591.71   594.80   599.43
eigval :      606.97   614.38   618.68   623.82   635.16   647.01
eigval :      658.66   667.17   668.15   670.70   673.73   677.06
eigval :      689.25   698.36   708.31   708.68   718.20   729.41
eigval :      757.01   757.58   763.31   766.53   773.96   775.45
eigval :      806.19   813.62   822.64   823.59   834.21   847.15
eigval :      852.17   866.81   869.59   869.65   871.41   871.69
eigval :      875.98   882.88   893.54   899.01   900.08   901.82
eigval :      901.98   906.50   907.10   913.93   914.10   918.71
eigval :      920.66   921.55   922.54   924.00   925.61   925.96
eigval :      926.33   929.02   929.59   932.83   933.30   935.80
eigval :      958.46   985.41   997.87   999.57  1012.00  1028.82
eigval :     1040.19  1066.27  1069.40  1070.96  1079.71  1081.86
eigval :     1082.86  1105.44  1117.55  1118.48  1120.88  1123.11
eigval :     1125.58  1125.94  1145.20  1149.60  1155.09  1170.53
eigval :     1176.70  1177.75  1180.00  1180.31  1180.32  1183.10
eigval :     1192.59  1197.34  1197.67  1199.48  1213.26  1231.03
eigval :     1238.92  1247.25  1253.36  1256.65  1259.56  1271.06
eigval :     1274.08  1276.71  1278.93  1279.36  1288.75  1299.01
eigval :     1312.16  1315.57  1317.79  1323.94  1324.84  1329.53
eigval :     1343.61  1349.70  1353.15  1357.99  1360.14  1372.22
eigval :     1398.92  1416.74  1420.97  1423.02  1427.22  1427.38
eigval :     1429.30  1434.83  1439.49  1451.52  1461.38  1461.94
eigval :     1472.90  1475.38  1480.11  1482.33  1484.49  1494.38
eigval :     1505.67  1534.44  1553.84  1560.96  1562.88  1573.86
eigval :     1574.98  1575.54  1580.76  1582.04  1584.44  1588.31
eigval :     1592.77  1594.19  1596.16  1603.87  1611.24  2248.85
eigval :     3075.05  3075.37  3077.70  3079.48  3080.03  3080.42
eigval :     3081.49  3082.23  3082.35  3082.38  3083.46  3084.99
eigval :     3085.67  3086.10  3090.26  3090.86  3091.08  3091.34
eigval :     3092.26  3093.85  3094.03  3094.65  3094.92  3095.27
eigval :     3095.35  3095.87  3096.41  3098.07  3098.87  3099.83
eigval :     3101.19  3103.31  3104.01

   temp. (K)  partition function   enthalpy   heat capacity  entropy
                                   cal/mol     cal/K/mol   cal/K/mol   J/K/mol
 298.15  VIB  0.176E+23            27122.127    169.168    170.464
         ROT  0.253E+09              888.752      2.981     41.434
         INT  0.446E+31            28010.879    172.149    211.898
         TR   0.195E+29             1481.254      4.968     45.663
         TOT                       29492.1331   177.1171   257.5612  1077.6360

       T/K    H(0)-H(T)+PV         H(T)/Eh          T*S/Eh         G(T)/Eh
   ------------------------------------------------------------------------
    298.15    0.469987E-01    0.731973E+00    0.122376E+00    0.609597E+00
   ------------------------------------------------------------------------

         :::::::::::::::::::::::::::::::::::::::::::::::::::::
         ::                  THERMODYNAMIC                  ::
         :::::::::::::::::::::::::::::::::::::::::::::::::::::
         :: total free energy        -144.295039209438 Eh   ::
         ::.................................................::
         :: total energy             -144.904636299260 Eh   ::
         :: zero point energy           0.684974011428 Eh   ::
         :: G(RRHO) w/o ZPVE           -0.075376921606 Eh   ::
         :: G(RRHO) contrib.            0.609597089822 Eh   ::
         :::::::::::::::::::::::::::::::::::::::::::::::::::::

           -------------------------------------------------
          | TOTAL ENERGY             -144.904636299260 Eh   |
          | TOTAL ENTHALPY           -144.172663582186 Eh   |
          | TOTAL FREE ENERGY        -144.295039209438 Eh   |
          | GRADIENT NORM               0.000078933248 Eh/α |
           -------------------------------------------------

 * finished run on 2025/09/08 at 12:40:19.082
