   * xtb version 6.7.1 (edcfbbe) compiled by 'albert@albert-system' on 2024-07-22

   ID    Z sym.   atoms
    1    7 N      1, 11, 17, 39, 51
    2    6 C      2-10, 12-16, 18-38, 40-50, 52-58
    3    1 H      59-91

          program call               : xtb data2507/gas/2PyCNBCz/2PyCNBCz_gas_S0_finalOpt.xtbopt.xyz --gfn 2 --spinpol --tblite --uhf 2 --ohess vtight --parallel 40 --molden --ceasefiles --namespace data2507/gas/2PyCNBCz/2PyCNBCz_gas_T1_preOpt
 * total energy  :  -144.8981637 Eh     change       -0.1261753E-08 Eh
 * total energy  :  -144.9022220 Eh     change       -0.4058205E-02 Eh
 * total energy  :  -144.9043081 Eh     change       -0.2086107E-02 Eh
 * total energy  :  -144.9044652 Eh     change       -0.1571726E-03 Eh
 * total energy  :  -144.9045306 Eh     change       -0.6539066E-04 Eh
 * total energy  :  -144.9045499 Eh     change       -0.1927809E-04 Eh
 * total energy  :  -144.9045615 Eh     change       -0.1162109E-04 Eh
 * total energy  :  -144.9045711 Eh     change       -0.9547183E-05 Eh
 * total energy  :  -144.9045755 Eh     change       -0.4391823E-05 Eh
 * total energy  :  -144.9045803 Eh     change       -0.4832618E-05 Eh
 * total energy  :  -144.9046259 Eh     change       -0.2445500E-06 Eh
 * total energy  :  -144.9046262 Eh     change       -0.2612378E-06 Eh
 * total energy  :  -144.9046266 Eh     change       -0.3538167E-06 Eh
 * total energy  :  -144.9046270 Eh     change       -0.4867449E-06 Eh
 * total energy  :  -144.9046275 Eh     change       -0.4441821E-06 Eh
 * total energy  :  -144.9046278 Eh     change       -0.3276587E-06 Eh
 * total energy  :  -144.9046281 Eh     change       -0.2387729E-06 Eh
 * total energy  :  -144.9046283 Eh     change       -0.2344541E-06 Eh
 * total energy  :  -144.9046283 Eh     change       -0.2201119E-08 Eh
   *** GEOMETRY OPTIMIZATION CONVERGED AFTER 44 ITERATIONS ***

 final structure:
================
91
 xtb: 6.7.1 (edcfbbe)
N          -10.02281438685370        2.57681034709167        0.80153589084206
C           -9.07305293109985        1.98079656307279        0.51331941804897
C           -7.92079944826866        1.28437265996572        0.19805722072023
C           -6.88186752912417        1.82126763998548       -0.64108586427970
C           -7.07160160174303        3.05557449546473       -1.40843158072964
C           -5.96986648994650        3.88449878231592       -1.62720561492728
C           -6.10893088352128        5.05270716291574       -2.34872534843200
C           -7.34374287425088        5.40643884387358       -2.86967892585963
C           -8.43662876153946        4.57894924294415       -2.67194981814189
C           -8.30662290965808        3.40958034239819       -1.94633009573867
N           -5.73378316455877        1.22909442386587       -0.74496135076376
C           -5.43475169231591        0.07720093650641       -0.10735459359553
C           -4.15771241726569       -0.52356559049339       -0.23953690416444
C           -3.15896574686878        0.07113713197098       -1.03679983290331
C           -1.92247673278358       -0.50828521311289       -1.16006794510142
C           -1.63144823718290       -1.70117409508232       -0.48924009042621
N           -0.36620242326326       -2.29162872177262       -0.61740383741493
C           -0.12230055969551       -3.60917895428306       -0.94890553170947
C           -1.01976037495373       -4.62132520784223       -1.25968408169813
C           -0.50403257754468       -5.86337985504323       -1.57976682836752
C            0.86871064903145       -6.09719582663498       -1.60124180573252
C            1.76816487132445       -5.08591549478552       -1.31754612406601
C            1.27449054152438       -3.83133880625681       -0.99321030677113
C            1.89471976103777       -2.57330489639357       -0.67532358324884
C            3.21074935133750       -2.16471258411600       -0.56234571975959
C            3.48762106522122       -0.84585958822533       -0.20682649500172
C            4.87330264198768       -0.38346074028191       -0.08716905219588
C            5.84433953404707       -0.83287291472826       -0.99634294472773
C            7.15673908112788       -0.41678738143622       -0.93541391494160
C            7.51239779448600        0.47676123080324        0.06707644950671
C            6.55690747157834        0.91884081601953        1.01291601059757
C            5.24194414532010        0.49561972642084        0.92760730659343
C            7.25823783992693        1.77890999982318        1.92697717923361
C            6.86738551709135        2.51415372243990        3.03713597810116
C            7.81517022903051        3.27678370095185        3.69180438418346
C            9.13256040278954        3.32331017999675        3.24266943207839
C            9.54517716529473        2.60015229870066        2.13914754265952
C            8.60308792518470        1.81353710273489        1.49270991400524
N            8.74030171079712        1.02149605140962        0.36827696638692
C            9.92854805400237        0.81326339684551       -0.34745459331151
C           11.08721496910671        0.42643693375134        0.31948611892918
C           12.25702491453825        0.22784774663667       -0.39015674979979
C           12.27931467572990        0.40288451812854       -1.76394655364087
C           11.12540609845558        0.78294831071626       -2.42915138912650
C            9.95295001514902        0.99317444801610       -1.72738804370977
C            2.42607815051733        0.03877871810814        0.04455324240363
C            1.10794490507704       -0.34423294526857       -0.07134077013070
C            0.83873727590818       -1.65513927766584       -0.45007237819269
C           -2.61326376437963       -2.30171500387775        0.30617887892950
C           -3.85246210232864       -1.72724666771697        0.42733518853127
N           -6.40145389464654       -0.49500001156301        0.64258477016263
C           -7.58060556929865        0.02005787603635        0.79528744590576
C           -8.53999928098057       -0.72635057099518        1.61449652594504
C           -9.90477051142371       -0.72247750788335        1.33662158573022
C          -10.77415440552121       -1.45237327172842        2.12544721132664
C          -10.29728243381795       -2.19043865515722        3.19600306154188
C           -8.93855570884193       -2.20862774774210        3.46955498748906
C           -8.06339503253476       -1.48668448452490        2.68354691429846
H           -5.01345358907365        3.60265105090679       -1.21288061813267
H           -5.25213243520618        5.69190320232210       -2.50497772387418
H           -7.45268289678227        6.32260670106383       -3.43097591637325
H           -9.39828513876809        4.84452861581331       -3.08496302566921
H           -9.16234971000602        2.76590026529726       -1.81417867156021
H           -3.39629073048026        0.98447325519336       -1.56052308423645
H           -1.16999263315368       -0.06432220620186       -1.79566871403074
H           -2.08388195018782       -4.44232776584958       -1.26379608708139
H           -1.18072217629197       -6.66899826866593       -1.82265640349205
H            1.23252873636877       -7.08208867786500       -1.85305840607814
H            2.83229788763064       -5.26481589183699       -1.35007984794809
H            4.01345698109692       -2.86952416693633       -0.71741108472466
H            5.54596897520513       -1.50841884160136       -1.78397458754546
H            7.88522397204976       -0.78205624542371       -1.64341531555070
H            4.51934239211417        0.81993816484325        1.66074266436300
H            5.84287540193790        2.49042781606186        3.37619657871719
H            7.53289192831829        3.85401732266171        4.55941879128088
H            9.84747213003091        3.94100109304111        3.76558748952904
H           10.56418866298009        2.65712363388350        1.78747134821281
H           11.05959990952816        0.26931376500204        1.38741738345037
H           13.15340607526926       -0.07271163996824        0.13154906593939
H           13.19375134100703        0.24359234883262       -2.31483387698110
H           11.13967812939036        0.92475657650599       -3.49953624830063
H            9.05678233533771        1.31166082790184       -2.23870927300519
H            2.65326369709107        1.05915560006987        0.31459637853979
H            0.30859234841081        0.35153954604941        0.13231007609397
H           -2.37542231908348       -3.20955311482139        0.84136535613187
H           -4.61487381262865       -2.18176086745044        1.04125032885208
H          -10.28701531360632       -0.16494137425027        0.49566783120879
H          -11.83044625302701       -1.44359020788699        1.90170528543936
H          -10.98178830115860       -2.75280807657976        3.81363969229182
H           -8.56120448390847       -2.78728786621129        4.30009126555676
H           -7.00386251723584       -1.49040961228131        2.89128319793611

 projected vibrational frequencies (cm⁻¹)
eigval :       -0.00    -0.00    -0.00    -0.00     0.00     0.00
eigval :        7.02     8.94     9.29    22.32    23.11    24.14
eigval :       27.42    29.31    40.04    42.69    49.69    63.06
eigval :       63.68    69.45    77.64    82.70    91.47    98.54
eigval :      109.49   114.10   121.77   131.78   137.80   144.68
eigval :      157.81   167.19   176.50   198.77   201.37   225.34
eigval :      226.32   231.47   240.66   243.53   261.18   267.12
eigval :      282.43   286.76   303.04   320.05   337.51   347.43
eigval :      357.39   366.07   372.18   374.47   380.08   383.54
eigval :      390.52   393.67   398.50   408.97   415.82   423.33
eigval :      426.08   428.82   440.12   443.77   465.77   469.98
eigval :      473.33   476.36   486.16   525.08   536.84   540.10
eigval :      552.49   563.75   565.98   568.59   573.95   581.04
eigval :      584.62   586.37   589.66   591.47   594.71   599.22
eigval :      607.02   614.44   618.72   623.86   635.37   647.09
eigval :      658.81   667.16   668.29   670.78   673.92   677.09
eigval :      689.27   696.97   708.19   708.84   718.37   731.07
eigval :      757.46   757.77   763.73   766.66   774.42   775.61
eigval :      806.34   814.22   823.00   824.20   834.48   847.74
eigval :      851.58   867.49   869.80   869.85   871.87   872.22
eigval :      876.23   883.35   893.66   899.19   900.09   902.15
eigval :      902.29   906.83   907.53   914.21   914.58   918.91
eigval :      920.94   921.29   922.51   924.31   925.80   926.04
eigval :      926.52   929.23   929.89   933.37   933.82   936.13
eigval :      958.84   985.76   998.15  1001.21  1012.20  1029.27
eigval :     1041.89  1066.61  1070.25  1071.83  1080.42  1082.33
eigval :     1083.48  1101.72  1118.18  1118.83  1121.47  1123.66
eigval :     1126.38  1126.44  1145.35  1149.75  1155.57  1171.21
eigval :     1177.00  1178.02  1180.45  1180.55  1181.00  1183.40
eigval :     1192.79  1197.53  1197.69  1199.92  1213.10  1231.18
eigval :     1238.40  1246.72  1253.45  1256.84  1259.02  1271.15
eigval :     1274.44  1276.22  1279.09  1279.55  1288.48  1298.79
eigval :     1311.98  1315.64  1317.80  1323.98  1324.90  1329.56
eigval :     1343.68  1349.68  1353.30  1357.87  1360.09  1372.00
eigval :     1398.38  1416.44  1420.69  1423.27  1426.94  1427.12
eigval :     1428.91  1434.59  1439.35  1451.71  1460.52  1461.87
eigval :     1473.18  1475.46  1480.02  1482.17  1484.24  1494.55
eigval :     1505.45  1534.32  1553.67  1560.91  1562.62  1573.65
eigval :     1574.97  1575.54  1580.76  1582.03  1584.44  1588.26
eigval :     1592.83  1594.21  1595.98  1604.19  1611.64  2248.70
eigval :     3074.80  3075.12  3077.83  3079.29  3079.70  3080.53
eigval :     3081.51  3082.04  3082.27  3082.29  3083.55  3084.77
eigval :     3085.54  3085.94  3090.09  3090.47  3090.76  3090.96
eigval :     3092.06  3093.34  3093.92  3094.34  3094.60  3095.00
eigval :     3095.11  3095.57  3095.75  3097.71  3098.49  3099.77
eigval :     3101.26  3102.93  3104.02

   temp. (K)  partition function   enthalpy   heat capacity  entropy
                                   cal/mol     cal/K/mol   cal/K/mol   J/K/mol
 298.15  VIB  0.141E+23            27105.101    169.164    170.187
         ROT  0.253E+09              888.752      2.981     41.433
         INT  0.358E+31            27993.854    172.145    211.620
         TR   0.195E+29             1481.254      4.968     45.663
         TOT                       29475.1075   177.1131   257.2830  1076.4722

       T/K    H(0)-H(T)+PV         H(T)/Eh          T*S/Eh         G(T)/Eh
   ------------------------------------------------------------------------
    298.15    0.469716E-01    0.732010E+00    0.122243E+00    0.609766E+00
   ------------------------------------------------------------------------

         :::::::::::::::::::::::::::::::::::::::::::::::::::::
         ::                  THERMODYNAMIC                  ::
         :::::::::::::::::::::::::::::::::::::::::::::::::::::
         :: total free energy        -144.294862189319 Eh   ::
         ::.................................................::
         :: total energy             -144.904628292475 Eh   ::
         :: zero point energy           0.685037995338 Eh   ::
         :: G(RRHO) w/o ZPVE           -0.075271892182 Eh   ::
         :: G(RRHO) contrib.            0.609766103155 Eh   ::
         :::::::::::::::::::::::::::::::::::::::::::::::::::::

           -------------------------------------------------
          | TOTAL ENERGY             -144.904628292475 Eh   |
          | TOTAL ENTHALPY           -144.172618723490 Eh   |
          | TOTAL FREE ENERGY        -144.294862189319 Eh   |
          | GRADIENT NORM               0.000059646632 Eh/α |
           -------------------------------------------------

 * finished run on 2025/09/08 at 12:30:45.311
