   * xtb version 6.7.1 (edcfbbe) compiled by 'albert@albert-system' on 2024-07-22

   ID    Z sym.   atoms
    1    7 N      1, 11, 17, 39, 51
    2    6 C      2-10, 12-16, 18-38, 40-50, 52-58
    3    1 H      59-91

          program call               : xtb data2507/gas/2PyCNBCz/2PyCNBCz.xyz --gfn 2 --ohess vtight --parallel 40 --molden --ceasefiles --namespace data2507/gas/2PyCNBCz/2PyCNBCz_gas_S0_preOpt
          :  Hamiltonian                  GFN2-xTB          :
 * total energy  :  -144.9455217 Eh     change       -0.2471211E-08 Eh
 * total energy  :  -144.9631478 Eh     change       -0.1762608E-01 Eh
 * total energy  :  -144.9680176 Eh     change       -0.4869802E-02 Eh
 * total energy  :  -144.9696655 Eh     change       -0.1647873E-02 Eh
 * total energy  :  -144.9710222 Eh     change       -0.1356716E-02 Eh
 * total energy  :  -144.9716692 Eh     change       -0.6469841E-03 Eh
 * total energy  :  -144.9721062 Eh     change       -0.4369858E-03 Eh
 * total energy  :  -144.9725009 Eh     change       -0.3946628E-03 Eh
 * total energy  :  -144.9728477 Eh     change       -0.3468144E-03 Eh
 * total energy  :  -144.9730845 Eh     change       -0.2368260E-03 Eh
 * total energy  :  -144.9746587 Eh     change       -0.7606409E-06 Eh
 * total energy  :  -144.9746595 Eh     change       -0.8000350E-06 Eh
 * total energy  :  -144.9746603 Eh     change       -0.8559304E-06 Eh
 * total energy  :  -144.9746613 Eh     change       -0.9499652E-06 Eh
 * total energy  :  -144.9746624 Eh     change       -0.1108648E-05 Eh
 * total energy  :  -144.9746637 Eh     change       -0.1285693E-05 Eh
 * total energy  :  -144.9746651 Eh     change       -0.1452683E-05 Eh
 * total energy  :  -144.9746666 Eh     change       -0.1517540E-05 Eh
 * total energy  :  -144.9746666 Eh     change       -0.7550511E-09 Eh
   *** GEOMETRY OPTIMIZATION CONVERGED AFTER 94 ITERATIONS ***

 final structure:
================
91
 xtb: 6.7.1 (edcfbbe)
N          -10.17863428973756        2.62559231488688        1.02908563704580
C           -9.25357932540494        2.04674627830867        0.66906464335648
C           -8.08632197465290        1.36175183024719        0.29010418624670
C           -7.06021112413261        1.99374954071236       -0.44580409979195
C           -7.20998717550154        3.32942024361709       -1.03179657872220
C           -6.10195909870341        4.17454370425644       -1.06861663302859
C           -6.20814285982385        5.43845153804319       -1.61447337371582
C           -7.41547046781170        5.86702034238086       -2.14291637683796
C           -8.51388151349623        5.02348376795636       -2.13026699779934
C           -8.41628536952384        3.75987504417916       -1.57790654368834
N           -5.89218655652060        1.39958546594947       -0.62672282275092
C           -5.70721465667958        0.18410240991354       -0.11932567786810
C           -4.39815122225522       -0.43322421620153       -0.29656182615812
C           -3.38832743876107        0.24250776517315       -0.98276595542195
C           -2.15218487123080       -0.34001870584868       -1.15476402492057
C           -1.89810421325905       -1.61220973386293       -0.63998551242122
N           -0.64705942221388       -2.20384269236980       -0.81906606080460
C           -0.41521028454089       -3.48853883640614       -1.27757233290198
C           -1.31774111026506       -4.45712642200904       -1.69187923274922
C           -0.81073822508421       -5.66176526848773       -2.14163143279203
C            0.56018872503858       -5.90156625866750       -2.19158451007721
C            1.46400481649124       -4.93069920212845       -1.80828993418162
C            0.97814947914513       -3.71292758926690       -1.35249723920000
C            1.61293454867510       -2.50126050603334       -0.91171728489478
C            2.93859655452940       -2.12888079336340       -0.75442006767144
C            3.23417596450825       -0.86299370253098       -0.26521295804836
C            4.63122254894698       -0.43473176721098       -0.09742999126975
C            5.57560334074395       -0.73105676151471       -1.08986874154493
C            6.89424653466721       -0.33861730206110       -0.98883726073379
C            7.27754055401184        0.37229043060821        0.13953940882046
C            6.34821390898168        0.65315621667244        1.16703645441108
C            5.02604086859314        0.25623938608102        1.04052924048728
C            7.07564165283225        1.34160182072166        2.19665254988144
C            6.71426917164771        1.87859987595502        3.42500477656174
C            7.68037351952566        2.51360341838664        4.17934056386137
C            8.98883636371780        2.63034049552684        3.71552297931007
C            9.37255573562650        2.10420392544462        2.49685659469282
C            8.41184686463370        1.44285508036508        1.74535681453327
N            8.51952802092119        0.85367986097517        0.50094089130940
C            9.68625010137179        0.77307701550181       -0.27168723088068
C           10.86422421196560        0.28525928595762        0.28664526698299
C           12.01356724477328        0.21568369156279       -0.47857723108492
C           11.99693684800222        0.61904291232608       -1.80343616501705
C           10.82394448480458        1.09868993180029       -2.36228760880813
C            9.67231813217730        1.18222935326764       -1.60218118832799
C            2.18981860442589        0.00623864119895        0.07692025624024
C            0.86339318723598       -0.34148023103670       -0.07863963166692
C            0.57541866050451       -1.59628223538269       -0.59548310415908
C           -2.90526433265846       -2.28850583911506        0.04973891042593
C           -4.14216611386833       -1.70530304477567        0.21647555596692
N           -6.63939834948590       -0.51163185370106        0.52578525458265
C           -7.82080988285215        0.04704063709423        0.73165672005401
C           -8.81012615110401       -0.76340080605896        1.44889408548734
C          -10.16537200613988       -0.71537647048215        1.13317975588860
C          -11.06592102589983       -1.50096280149410        1.82828918803049
C          -10.62673684104919       -2.33756966476239        2.84092981013890
C           -9.27709030525648       -2.40110983890575        3.14910638633532
C           -8.37152138353349       -1.62510123851567        2.45302984680471
H           -5.16873083555982        3.82633823088576       -0.65303409882552
H           -5.34840571848316        6.09197383068399       -1.62968492887127
H           -7.49869047090685        6.85544980534878       -2.56989986783555
H           -9.45194190349231        5.34966853578316       -2.55371119287904
H           -9.27242501810582        3.10219606131462       -1.59303572206290
H           -3.59972959968817        1.21993221384909       -1.38703728513133
H           -1.37920526665560        0.17153653266316       -1.70834962101653
H           -2.38180306219625       -4.27620915592487       -1.67907929460460
H           -1.49412244483086       -6.43276470010154       -2.46561762550433
H            0.91647232390080       -6.85726293642001       -2.54610090982591
H            2.52741394686187       -5.10783554986259       -1.86446593482908
H            3.73043850144993       -2.82551261446114       -0.98480417815527
H            5.25313008934016       -1.26800002539024       -1.96984772346612
H            7.60484163309077       -0.58640548098490       -1.76308181972292
H            4.31900867201097        0.45966843228386        1.83070416739337
H            5.69642206931744        1.80141152201505        3.77668861390240
H            7.42127111074162        2.93554669587444        5.13903802549205
H            9.71944927050682        3.14680117282192        4.32060729077558
H           10.38487017158750        2.21601749109994        2.13857497458812
H           10.86765205920134       -0.04930092531083        1.31331414098591
H           12.92489763861570       -0.16336669358637       -0.04013721428264
H           12.89551645975524        0.55973979939628       -2.39876457258970
H           10.80732461308082        1.41820424261833       -3.39384392207216
H            8.76156771807505        1.57667653836581       -2.02760623239243
H            2.43415427447484        0.98660009922845        0.45854933666373
H            0.07834539949064        0.34337798294842        0.20438767307890
H           -2.69966609374184       -3.26254264038748        0.46759449804305
H           -4.92770592881882       -2.21837385831541        0.74859356057886
H          -10.51528450108030       -0.08304535766058        0.33099508292699
H          -12.11505537623035       -1.45986839812745        1.57671183199382
H          -11.33511390406379       -2.94412260652103        3.38547098543798
H           -8.93154273422811       -3.05802186541589        3.93366802840936
H           -7.31739515045056       -1.66298482156668        2.68172078625526

          :  Hamiltonian                  GFN2-xTB          :
         :: gradient norm              0.000151063374 Eh/a0 ::
         :: HOMO-LUMO gap              1.583657066710 eV    ::
         :: SCC energy              -147.735201825126 Eh    ::
         :: -> dispersion             -0.127138554555 Eh    ::
         :: repulsion energy           2.760535175089 Eh    ::

    * Orbital Energies and Occupations

         #    Occupation            Energy/Eh            Energy/eV
      -------------------------------------------------------------
         1        2.0000           -0.6881429             -18.7253
       ...           ...                  ...                  ...
       123        2.0000           -0.4133633             -11.2482
       124        2.0000           -0.4129870             -11.2379
       125        2.0000           -0.4110355             -11.1848
       126        2.0000           -0.4103323             -11.1657
       127        2.0000           -0.4066215             -11.0647
       128        2.0000           -0.4059466             -11.0464
       129        2.0000           -0.4017622             -10.9325
       130        2.0000           -0.3973231             -10.8117
       131        2.0000           -0.3797815             -10.3344
       132        2.0000           -0.3760402             -10.2326
       133        2.0000           -0.3714375             -10.1073
       134        2.0000           -0.3665950              -9.9756
       135        2.0000           -0.3545381              -9.6475 (HOMO)
       136                         -0.2963398              -8.0638 (LUMO)
       137                         -0.2847139              -7.7475
       138                         -0.2515417              -6.8448
       139                         -0.2441793              -6.6445
       140                         -0.2439788              -6.6390
       141                         -0.2366256              -6.4389
       142                         -0.2360964              -6.4245
       143                         -0.2329910              -6.3400
       144                         -0.2327159              -6.3325
       145                         -0.2322983              -6.3212
       146                         -0.2310481              -6.2871
       ...                                ...                  ...
       265                          1.1676457              31.7733
      -------------------------------------------------------------
                  HL-Gap            0.0581983 Eh            1.5837 eV

     #   Z          covCN         q      C6AA      α(0)
     1   7 N        0.911    -0.251    26.517     7.448
     2   6 C        1.905     0.111    28.369     8.602
     3   6 C        2.963    -0.026    28.637     8.778
     4   6 C        2.969     0.119    25.381     8.264
     5   6 C        2.982     0.005    27.911     8.666
     6   6 C        2.926    -0.023    28.568     8.765
     7   6 C        2.918    -0.026    28.660     8.779
     8   6 C        2.920    -0.024    28.594     8.769
     9   6 C        2.919    -0.025    28.629     8.774
    10   6 C        2.922    -0.025    28.631     8.775
    11   7 N        1.851    -0.267    27.799     7.814
    12   6 C        2.942     0.186    24.025     8.039
    13   6 C        2.985    -0.003    28.093     8.694
    14   6 C        2.923    -0.025    28.628     8.774
    15   6 C        2.920    -0.043    29.057     8.840
    16   6 C        2.913     0.070    26.431     8.430
    17   7 N        2.802    -0.040    22.007     6.967
    18   6 C        3.072     0.046    26.888     8.502
    19   6 C        2.910    -0.051    29.255     8.869
    20   6 C        2.924    -0.033    28.824     8.804
    21   6 C        2.920    -0.040    28.993     8.830
    22   6 C        2.913    -0.032    28.808     8.801
    23   6 C        3.068    -0.016    28.329     8.728
    24   6 C        3.064    -0.017    28.360     8.733
    25   6 C        2.918    -0.038    28.955     8.824
    26   6 C        2.977     0.002    27.987     8.678
    27   6 C        2.977    -0.001    28.038     8.686
    28   6 C        2.929    -0.039    28.961     8.826
    29   6 C        2.908    -0.052    29.286     8.874
    30   6 C        3.077     0.045    26.915     8.506
    31   6 C        3.065    -0.018    28.389     8.737
    32   6 C        2.918    -0.039    28.960     8.825
    33   6 C        3.069    -0.017    28.366     8.733
    34   6 C        2.913    -0.033    28.819     8.803
    35   6 C        2.920    -0.041    29.020     8.834
    36   6 C        2.924    -0.034    28.837     8.806
    37   6 C        2.910    -0.051    29.267     8.871
    38   6 C        3.076     0.047    26.873     8.499
    39   7 N        2.802    -0.044    22.090     6.981
    40   6 C        2.913     0.065    26.542     8.448
    41   6 C        2.922    -0.042    29.052     8.839
    42   6 C        2.920    -0.028    28.700     8.785
    43   6 C        2.919    -0.033    28.829     8.805
    44   6 C        2.920    -0.028    28.700     8.785
    45   6 C        2.922    -0.042    29.052     8.839
    46   6 C        2.929    -0.038    28.949     8.824
    47   6 C        2.908    -0.051    29.274     8.872
    48   6 C        3.073     0.044    26.943     8.511
    49   6 C        2.920    -0.043    29.060     8.840
    50   6 C        2.923    -0.025    28.627     8.774
    51   7 N        1.850    -0.268    27.801     7.815
    52   6 C        2.969     0.119    25.381     8.264
    53   6 C        2.982     0.005    27.910     8.666
    54   6 C        2.922    -0.025    28.631     8.775
    55   6 C        2.919    -0.025    28.629     8.774
    56   6 C        2.920    -0.024    28.595     8.769
    57   6 C        2.918    -0.026    28.660     8.779
    58   6 C        2.926    -0.023    28.568     8.765
    59   1 H        0.926     0.049     2.337     2.391
    60   1 H        0.926     0.038     2.472     2.459
    61   1 H        0.926     0.038     2.469     2.457
    62   1 H        0.926     0.040     2.444     2.445
    63   1 H        0.926     0.038     2.479     2.462
    64   1 H        0.926     0.061     2.184     2.311
    65   1 H        0.926     0.047     2.360     2.403
    66   1 H        0.926     0.029     2.601     2.522
    67   1 H        0.926     0.030     2.584     2.514
    68   1 H        0.926     0.029     2.599     2.521
    69   1 H        0.926     0.032     2.557     2.501
    70   1 H        0.926     0.034     2.534     2.490
    71   1 H        0.926     0.031     2.569     2.507
    72   1 H        0.926     0.027     2.625     2.533
    73   1 H        0.926     0.032     2.555     2.500
    74   1 H        0.926     0.030     2.582     2.513
    75   1 H        0.926     0.027     2.624     2.533
    76   1 H        0.926     0.028     2.609     2.526
    77   1 H        0.926     0.027     2.631     2.536
    78   1 H        0.926     0.041     2.441     2.443
    79   1 H        0.926     0.036     2.505     2.475
    80   1 H        0.926     0.035     2.519     2.482
    81   1 H        0.926     0.036     2.505     2.475
    82   1 H        0.926     0.040     2.443     2.444
    83   1 H        0.926     0.033     2.543     2.494
    84   1 H        0.926     0.029     2.605     2.524
    85   1 H        0.926     0.047     2.361     2.403
    86   1 H        0.926     0.061     2.187     2.313
    87   1 H        0.926     0.038     2.480     2.463
    88   1 H        0.926     0.040     2.444     2.445
    89   1 H        0.926     0.038     2.469     2.457
    90   1 H        0.926     0.038     2.472     2.459
    91   1 H        0.926     0.048     2.339     2.392

molecular dipole:
                 x           y           z       tot (Debye)
 q only:        1.197      -0.398      -0.504
   full:        1.180      -0.410      -0.612       3.535

 projected vibrational frequencies (cm⁻¹)
eigval :       -0.00    -0.00    -0.00     0.00     0.00     0.00
eigval :        5.94     8.65     9.42    21.16    24.22    25.38
eigval :       28.95    38.23    41.36    44.77    50.00    62.67
eigval :       62.98    69.47    77.99    83.41    90.82    92.59
eigval :      110.34   113.39   122.36   132.11   134.35   142.79
eigval :      160.67   169.55   178.92   202.51   204.98   223.77
eigval :      227.90   232.32   235.12   244.72   254.57   268.00
eigval :      278.73   284.87   304.22   322.98   343.80   350.97
eigval :      356.37   365.87   372.25   373.31   379.73   380.75
eigval :      395.24   396.56   400.24   411.60   417.44   427.57
eigval :      431.09   433.51   444.83   451.36   472.51   477.95
eigval :      484.42   488.33   524.09   525.83   535.25   536.45
eigval :      554.92   571.04   576.57   580.60   583.29   587.22
eigval :      589.67   593.16   596.24   602.31   613.69   615.25
eigval :      619.48   624.61   632.83   633.96   644.29   664.76
eigval :      667.78   673.55   675.78   676.12   687.81   696.79
eigval :      703.94   708.04   709.35   725.41   739.04   755.71
eigval :      763.48   767.07   767.93   770.51   775.60   775.88
eigval :      812.21   830.29   832.78   836.91   848.17   869.24
eigval :      869.72   874.41   874.63   875.97   876.58   878.49
eigval :      882.28   884.47   894.74   901.25   903.71   905.75
eigval :      905.80   906.00   912.60   914.14   920.09   921.56
eigval :      922.07   928.30   928.53   929.71   931.44   933.00
eigval :      933.07   933.44   934.38   937.55   941.06   972.52
eigval :      986.49   998.20  1013.26  1014.35  1030.77  1066.56
eigval :     1071.25  1072.58  1074.01  1080.66  1082.18  1084.15
eigval :     1118.21  1120.35  1120.79  1121.14  1124.56  1125.58
eigval :     1146.51  1155.26  1157.72  1175.65  1177.57  1178.89
eigval :     1179.07  1181.18  1181.28  1181.65  1184.01  1195.81
eigval :     1198.39  1199.38  1200.70  1211.47  1232.06  1241.79
eigval :     1247.29  1247.42  1254.36  1256.47  1258.42  1274.35
eigval :     1275.78  1278.22  1279.57  1291.89  1303.27  1318.00
eigval :     1319.25  1322.96  1323.36  1327.78  1345.91  1351.57
eigval :     1356.82  1360.70  1362.82  1370.99  1378.69  1387.13
eigval :     1389.15  1411.74  1418.70  1422.91  1427.58  1430.63
eigval :     1431.28  1434.93  1439.28  1459.71  1474.47  1476.64
eigval :     1481.22  1483.54  1484.76  1486.14  1495.12  1501.12
eigval :     1507.32  1559.26  1565.64  1570.77  1581.80  1581.98
eigval :     1582.67  1584.24  1585.85  1591.00  1595.66  1595.88
eigval :     1596.43  1597.07  1600.28  1612.18  1617.35  2343.83
eigval :     3075.83  3077.68  3078.05  3078.43  3078.49  3078.76
eigval :     3080.09  3080.72  3081.37  3083.20  3083.57  3083.75
eigval :     3086.64  3088.29  3089.14  3090.04  3090.16  3090.49
eigval :     3090.73  3091.29  3091.54  3092.58  3093.04  3094.10
eigval :     3095.63  3097.29  3097.45  3097.82  3099.13  3100.09
eigval :     3100.43  3108.73  3109.15

   temp. (K)  partition function   enthalpy   heat capacity  entropy
                                   cal/mol     cal/K/mol   cal/K/mol   J/K/mol
 298.15  VIB  0.985E+22            26857.899    167.554    169.200
         ROT  0.252E+09              888.752      2.981     41.428
         INT  0.249E+31            27746.652    170.535    210.628
         TR   0.195E+29             1481.254      4.968     45.663
         TOT                       29227.9057   175.5029   256.2905  1072.3196

       T/K    H(0)-H(T)+PV         H(T)/Eh          T*S/Eh         G(T)/Eh
   ------------------------------------------------------------------------
    298.15    0.465776E-01    0.735480E+00    0.121772E+00    0.613709E+00
   ------------------------------------------------------------------------

         :::::::::::::::::::::::::::::::::::::::::::::::::::::
         ::                  THERMODYNAMIC                  ::
         :::::::::::::::::::::::::::::::::::::::::::::::::::::
         :: total free energy        -144.360958105383 Eh   ::
         ::.................................................::
         :: total energy             -144.974666650037 Eh   ::
         :: zero point energy           0.688902812065 Eh   ::
         :: G(RRHO) w/o ZPVE           -0.075194267411 Eh   ::
         :: G(RRHO) contrib.            0.613708544653 Eh   ::
         :::::::::::::::::::::::::::::::::::::::::::::::::::::

           -------------------------------------------------
          | TOTAL ENERGY             -144.974666650037 Eh   |
          | TOTAL ENTHALPY           -144.239186205516 Eh   |
          | TOTAL FREE ENERGY        -144.360958105383 Eh   |
          | GRADIENT NORM               0.000151097948 Eh/α |
          | HOMO-LUMO GAP               1.583656819147 eV   |
           -------------------------------------------------

 * finished run on 2025/09/08 at 12:23:06.912
