   * xtb version 6.7.1 (edcfbbe) compiled by 'albert@albert-system' on 2024-07-22

   ID    Z sym.   atoms
    1    6 C      1-5, 7-20, 22-25, 27-35, 37-52, 54-71
    2    7 N      6, 21, 26, 36, 53
    3    1 H      72-114

          program call               : xtb data2507/gas/TPA-DPPI/TPA-DPPI_gas_T1_crest.xyz --gfn 2 --spinpol --tblite --uhf 2 --ohess vtight --parallel 40 --molden --ceasefiles --namespace data2507/gas/TPA-DPPI/TPA-DPPI_gas_T1_finalOpt
 * total energy  :  -177.9089542 Eh     change       -0.1716927E-07 Eh
 * total energy  :  -177.9089626 Eh     change       -0.8384065E-05 Eh
 * total energy  :  -177.9089661 Eh     change       -0.3478207E-05 Eh
 * total energy  :  -177.9089676 Eh     change       -0.1499776E-05 Eh
 * total energy  :  -177.9089705 Eh     change       -0.2968831E-05 Eh
 * total energy  :  -177.9089731 Eh     change       -0.2508346E-05 Eh
 * total energy  :  -177.9089754 Eh     change       -0.2322646E-05 Eh
 * total energy  :  -177.9089770 Eh     change       -0.1583681E-05 Eh
 * total energy  :  -177.9089782 Eh     change       -0.1188214E-05 Eh
 * total energy  :  -177.9089794 Eh     change       -0.1203130E-05 Eh
 * total energy  :  -177.9089832 Eh     change       -0.4859649E-06 Eh
 * total energy  :  -177.9089834 Eh     change       -0.2418728E-06 Eh
 * total energy  :  -177.9089839 Eh     change       -0.4317986E-06 Eh
 * total energy  :  -177.9089844 Eh     change       -0.4835219E-06 Eh
 * total energy  :  -177.9089846 Eh     change       -0.2032787E-06 Eh
 * total energy  :  -177.9089851 Eh     change       -0.5213261E-06 Eh
 * total energy  :  -177.9089855 Eh     change       -0.4518386E-06 Eh
 * total energy  :  -177.9089860 Eh     change       -0.4621845E-06 Eh
 * total energy  :  -177.9089860 Eh     change       -0.9859235E-08 Eh
   *** GEOMETRY OPTIMIZATION CONVERGED AFTER 22 ITERATIONS ***

 final structure:
================
114
 xtb: 6.7.1 (edcfbbe)
C            2.16290061905543       -2.52887060985166       -1.79050302620706
C            1.06543851580170       -1.81918049885035       -2.25039378690090
C           -0.20812656760717       -2.14650385467193       -1.82287857053910
C           -0.39940397959109       -3.20397427261619       -0.93621332170751
C           -1.72195680450488       -3.62745196781953       -0.50077193001239
N           -2.06183114403075       -4.88443330513443       -0.35867976494673
C           -3.36585118913477       -4.87931072810749        0.02193217728523
C           -4.21036240455545       -5.99688966756947        0.27101405438968
C           -3.74125140382006       -7.30630873842511        0.12344457832621
C           -4.57775765391210       -8.37148940055137        0.34467088884972
C           -5.90063153346047       -8.13701750959085        0.71452594494483
C           -6.37111130018813       -6.85375379135904        0.86682466376671
C           -5.54565308537618       -5.73835672705922        0.65720088507032
C           -6.00710548817778       -4.37215776998090        0.83491986118658
C           -7.30562881667124       -4.08522369158831        1.27920998100121
C           -7.73948171836917       -2.79679787542655        1.48353630218115
C           -6.87994225883516       -1.72647763402639        1.25854844830279
C           -5.60314728750057       -1.96311193246052        0.81357737095852
C           -5.14612723990873       -3.26857496709726        0.58375979408010
C           -3.83092469932307       -3.56992735185778        0.13292444267474
N           -2.76510818781795       -2.77422837996862       -0.21957729473062
C           -2.68536125379290       -1.36689220928645       -0.20510007163285
C           -3.29016195109494       -0.61529808505316       -1.21294635706201
C           -3.18460294282735        0.75855164121685       -1.20443011408037
C           -2.48232825687098        1.40162713698124       -0.18059390390907
N           -2.34374788722132        2.79028377435097       -0.18016085811482
C           -1.11427073991125        3.48421357429554       -0.12410405973081
C            0.17364940427086        2.93945467968233       -0.18694130149697
C            0.49975945478126        1.61508866407589       -0.60595545505221
C            1.77394728857379        1.15054985830231       -0.53586368922644
C            2.85694523305355        1.95503694897727       -0.08761912031217
C            4.17864567636590        1.42619499666036        0.00811517791486
C            4.41029959831683        0.03214707532475        0.11576294563073
C            5.67373148706351       -0.48582864493778        0.19347174822312
C            6.79950035492549        0.35349668459098        0.16750757853142
N            8.08367524179870       -0.17436416905892        0.23401695106601
C            8.36472825322487       -1.41019195528937       -0.35750639248577
C            9.24820037724279       -2.30165646742566        0.25327124957970
C            9.52016063514209       -3.52108268236487       -0.33461148382997
C            8.91615720229741       -3.87433312929580       -1.53099241135673
C            8.03730557640246       -2.99298932317364       -2.14080634639719
C            7.76267090191817       -1.76859906397591       -1.56493705116776
C            9.09959778007956        0.52749559560552        0.89096994056097
C            8.82345774035189        1.24231382146472        2.05764213127489
C            9.82898719587419        1.93765244042968        2.69927558484493
C           11.12031555867250        1.92903661348956        2.19594557884179
C           11.40005471520210        1.21775606542615        1.03974978999055
C           10.40122815019639        0.52297118307378        0.38704354592825
C            6.59146036645136        1.73908685657755        0.07149066957386
C            5.32640331597368        2.25526863607828       -0.00190052344468
C            2.54528808034333        3.31144702059913        0.22058651699102
C            1.27346018289195        3.78091745911949        0.17186025038084
N           -1.32893614020486        4.81013868406133       -0.05947666412547
C           -2.64193783751630        4.99024943298202       -0.12011337015714
C           -3.34492796275586        6.23055402845580       -0.16054428399683
C           -2.65172001456661        7.44288796615388       -0.17391087982000
C           -3.33508247996801        8.63410187766958       -0.25937835301460
C           -4.72311466759868        8.61612223284765       -0.34135347197765
C           -5.41654662645624        7.42441786045752       -0.32167041506592
C           -4.75629810675970        6.19267057257974       -0.21990109387177
C           -5.45795644152671        4.92113459495936       -0.14909953523850
C           -6.85254438728221        4.86139873180827       -0.09557534199095
C           -7.53521384421854        3.66968911445281        0.02120657925733
C           -6.82967540715559        2.47250354299921        0.12082024954020
C           -5.46087080540401        2.48202329018685        0.06753270704651
C           -4.73872976796722        3.68324793899558       -0.09750377480325
C           -3.33219680855569        3.74802277074185       -0.17122806844867
C           -1.88488099897610        0.64409841820064        0.83054797682210
C           -1.97807418962504       -0.73099024972978        0.81068939247577
C            0.70791534539401       -3.92823902144163       -0.49545696114722
C            1.97923707989699       -3.58515122567218       -0.91251235711509
H            3.15674204491836       -2.26387724152297       -2.12201574199332
H            1.19960000626624       -1.01010665597505       -2.95406104887448
H           -1.05477102162014       -1.59727432235317       -2.20601671340771
H           -2.71258434654747       -7.44251371898947       -0.17228026140954
H           -4.22031470273130       -9.38428341263465        0.23047224991719
H           -6.56516446745177       -8.97218005895110        0.88366009484418
H           -7.40300832830805       -6.72199775953671        1.15149957233521
H           -7.99393294628269       -4.89027243977844        1.47982852904729
H           -8.74665599405740       -2.61600495532516        1.82941708513862
H           -7.21168508750873       -0.71491129930188        1.44057720458478
H           -4.93482995975977       -1.13237488831807        0.65297664182346
H           -3.83516769758903       -1.11877600861719       -1.99811849829877
H           -3.63510694804693        1.34687540273472       -1.99001053347260
H           -0.25955571980306        0.98345167024115       -1.03730217280772
H            1.97403429439952        0.14998622156284       -0.88543241414281
H            3.57073261324845       -0.64191276083829        0.18429842992895
H            5.81567855057522       -1.55156376015090        0.30277903810487
H            9.70904745666294       -2.03314758682491        1.19254199354428
H           10.20216323508906       -4.20439813567267        0.14912193743573
H            9.12938508291828       -4.82964946500697       -1.98536529667386
H            7.56860891603174       -3.25795054362838       -3.07689068786321
H            7.08997901503231       -1.07516647087388       -2.04780272816946
H            7.82020394661286        1.23719559762164        2.45746989161605
H            9.60474047683520        2.48361415262288        3.60351212813147
H           11.90360252179685        2.47258777043837        2.70152598494223
H           12.40254325644501        1.21074278901216        0.63844875786137
H           10.61740016304692       -0.02045807124045       -0.52108953607448
H            7.44780787094494        2.39673059560892        0.02812388319716
H            5.20956017101779        3.32101480904260       -0.11878170971520
H            3.33389560482465        3.97211915183603        0.54672528626828
H            1.04361223061613        4.80033986319157        0.43760646145150
H           -1.57465353587877        7.40808764238524       -0.12337302870933
H           -2.80277600340942        9.57343677382922       -0.27035528275136
H           -5.26784895137581        9.54592906745851       -0.42102581798752
H           -6.49195744244444        7.46352604169191       -0.39193144611278
H           -7.42949332299533        5.77129828407985       -0.13498797577257
H           -8.61436439349290        3.66667085062792        0.05437617630929
H           -7.36006295411916        1.53960642060224        0.24187428752581
H           -4.92390837068014        1.55463923529178        0.17787438173163
H           -1.34536239037076        1.14531630234775        1.61920225623581
H           -1.51416513657268       -1.32296222045331        1.58510274022137
H            0.54838966033390       -4.75980926446023        0.17306594069451
H            2.83154610740845       -4.14649805293801       -0.55817213722786

 projected vibrational frequencies (cm⁻¹)
eigval :       -0.00    -0.00    -0.00     0.00     0.00     0.00
eigval :        5.53     8.53     9.84    14.59    16.43    18.03
eigval :       27.25    31.74    34.12    38.39    45.29    46.72
eigval :       51.28    55.47    59.58    64.99    70.52    73.93
eigval :       77.54    83.29    87.24    90.13   103.25   106.24
eigval :      110.45   119.82   124.75   136.71   141.72   152.38
eigval :      170.62   179.62   182.23   195.67   207.27   211.78
eigval :      223.95   230.52   237.56   244.11   244.48   260.74
eigval :      268.13   282.53   285.70   298.57   308.62   317.42
eigval :      318.79   328.80   337.80   350.85   357.16   374.09
eigval :      377.12   377.74   383.28   386.81   389.57   393.37
eigval :      397.33   399.54   401.17   402.14   411.37   415.98
eigval :      421.42   431.01   436.94   441.21   449.29   456.92
eigval :      466.65   472.92   485.17   489.23   494.88   500.80
eigval :      507.65   518.54   523.38   528.21   532.54   535.00
eigval :      550.30   579.81   582.74   584.99   585.66   587.13
eigval :      590.11   592.64   596.99   609.23   610.25   613.63
eigval :      633.03   639.78   645.94   651.70   653.26   658.29
eigval :      658.66   661.27   663.22   667.23   670.51   671.66
eigval :      677.82   677.95   679.39   685.18   691.36   707.35
eigval :      725.45   728.73   735.36   741.48   751.72   756.52
eigval :      756.62   760.95   765.01   766.55   776.01   782.10
eigval :      785.56   791.14   799.46   812.86   813.86   823.18
eigval :      839.90   850.81   860.18   866.43   869.35   872.43
eigval :      874.29   874.46   877.32   893.01   893.80   898.54
eigval :      902.62   904.24   905.86   907.76   908.36   910.04
eigval :      911.61   913.27   913.86   914.57   916.14   918.89
eigval :      922.72   923.51   924.60   926.92   927.27   927.41
eigval :      928.78   928.91   929.36   930.67   932.99   939.12
eigval :      940.50   949.90   960.27   977.71   990.39  1000.10
eigval :     1002.85  1005.10  1012.78  1026.37  1035.38  1052.89
eigval :     1068.93  1081.02  1082.34  1082.45  1082.51  1085.94
eigval :     1092.65  1104.95  1108.25  1120.01  1121.61  1123.72
eigval :     1127.11  1132.95  1135.29  1137.91  1151.93  1155.04
eigval :     1158.54  1167.40  1173.77  1178.63  1179.56  1179.91
eigval :     1180.48  1182.24  1182.42  1183.48  1188.24  1192.48
eigval :     1192.77  1197.83  1201.29  1203.05  1212.40  1219.22
eigval :     1242.43  1244.78  1252.52  1254.11  1257.55  1259.54
eigval :     1260.76  1272.66  1276.69  1279.67  1279.98  1282.17
eigval :     1284.22  1286.41  1300.28  1302.02  1309.25  1313.33
eigval :     1318.59  1319.81  1321.20  1327.23  1330.53  1332.06
eigval :     1334.68  1336.46  1339.50  1342.38  1348.13  1355.39
eigval :     1381.75  1391.25  1396.62  1406.91  1408.72  1411.71
eigval :     1414.33  1418.79  1426.94  1428.61  1432.11  1434.30
eigval :     1437.52  1438.48  1441.00  1446.86  1456.55  1458.78
eigval :     1460.20  1464.80  1465.20  1476.17  1480.76  1489.47
eigval :     1498.04  1514.10  1514.89  1516.72  1522.05  1544.84
eigval :     1545.42  1545.74  1561.67  1561.77  1568.17  1568.67
eigval :     1571.23  1573.39  1579.91  1581.18  1584.08  1585.09
eigval :     1588.05  1594.60  1595.19  1597.56  1604.97  3070.83
eigval :     3071.64  3073.65  3074.97  3075.48  3077.18  3077.70
eigval :     3078.04  3079.78  3080.65  3080.99  3081.70  3083.21
eigval :     3084.30  3085.80  3085.83  3086.20  3086.49  3088.52
eigval :     3088.90  3089.91  3091.88  3092.50  3093.27  3095.41
eigval :     3095.72  3096.41  3097.16  3097.82  3101.08  3101.38
eigval :     3103.13  3103.42  3104.36  3104.55  3105.46  3106.77
eigval :     3110.42  3110.67  3111.06  3114.92  3116.10  3125.44

   temp. (K)  partition function   enthalpy   heat capacity  entropy
                                   cal/mol     cal/K/mol   cal/K/mol   J/K/mol
 298.15  VIB  0.116E+28            33239.366    209.082    209.140
         ROT  0.334E+09              888.752      2.981     41.986
         INT  0.387E+36            34128.118    212.063    251.126
         TR   0.264E+29             1481.254      4.968     46.267
         TOT                       35609.3721   217.0307   297.3921  1244.2884

       T/K    H(0)-H(T)+PV         H(T)/Eh          T*S/Eh         G(T)/Eh
   ------------------------------------------------------------------------
    298.15    0.567471E-01    0.929268E+00    0.141301E+00    0.787967E+00
   ------------------------------------------------------------------------

         :::::::::::::::::::::::::::::::::::::::::::::::::::::
         ::                  THERMODYNAMIC                  ::
         :::::::::::::::::::::::::::::::::::::::::::::::::::::
         :: total free energy        -177.121018681983 Eh   ::
         ::.................................................::
         :: total energy             -177.908986001268 Eh   ::
         :: zero point energy           0.872520736313 Eh   ::
         :: G(RRHO) w/o ZPVE           -0.084553417028 Eh   ::
         :: G(RRHO) contrib.            0.787967319285 Eh   ::
         :::::::::::::::::::::::::::::::::::::::::::::::::::::

           -------------------------------------------------
          | TOTAL ENERGY             -177.908986001268 Eh   |
          | TOTAL ENTHALPY           -176.979718118327 Eh   |
          | TOTAL FREE ENERGY        -177.121018681983 Eh   |
          | GRADIENT NORM               0.000064282047 Eh/α |
           -------------------------------------------------

 * finished run on 2025/08/22 at 10:36:39.338
