   * xtb version 6.7.1 (edcfbbe) compiled by 'albert@albert-system' on 2024-07-22

   ID    Z sym.   atoms
    1    6 C      1-5, 7-20, 22-25, 27-35, 37-52, 54-71
    2    7 N      6, 21, 26, 36, 53
    3    1 H      72-114

          program call               : xtb data2507/gas/TPA-DPPI/TPA-DPPI.xyz --gfn 2 --ohess vtight --parallel 40 --molden --ceasefiles --namespace data2507/gas/TPA-DPPI/TPA-DPPI_gas_S0_preOpt
          :  Hamiltonian                  GFN2-xTB          :
 * total energy  :  -177.9495546 Eh     change       -0.4652804E-08 Eh
 * total energy  :  -177.9688623 Eh     change       -0.1930773E-01 Eh
 * total energy  :  -177.9756066 Eh     change       -0.6744296E-02 Eh
 * total energy  :  -177.9779067 Eh     change       -0.2300113E-02 Eh
 * total energy  :  -177.9792150 Eh     change       -0.1308295E-02 Eh
 * total energy  :  -177.9799024 Eh     change       -0.6873776E-03 Eh
 * total energy  :  -177.9804008 Eh     change       -0.4983755E-03 Eh
 * total energy  :  -177.9808395 Eh     change       -0.4387349E-03 Eh
 * total energy  :  -177.9812543 Eh     change       -0.4148549E-03 Eh
 * total energy  :  -177.9816346 Eh     change       -0.3802607E-03 Eh
 * total energy  :  -177.9873470 Eh     change       -0.7071582E-06 Eh
 * total energy  :  -177.9873477 Eh     change       -0.7403948E-06 Eh
 * total energy  :  -177.9873485 Eh     change       -0.8324567E-06 Eh
 * total energy  :  -177.9873496 Eh     change       -0.1053556E-05 Eh
 * total energy  :  -177.9873506 Eh     change       -0.1006780E-05 Eh
 * total energy  :  -177.9873515 Eh     change       -0.9469483E-06 Eh
 * total energy  :  -177.9873524 Eh     change       -0.8400333E-06 Eh
 * total energy  :  -177.9873532 Eh     change       -0.8200869E-06 Eh
 * total energy  :  -177.9873532 Eh     change       -0.4019967E-08 Eh
   *** GEOMETRY OPTIMIZATION CONVERGED AFTER 340 ITERATIONS ***

 final structure:
================
114
 xtb: 6.7.1 (edcfbbe)
C            2.16819566057745       -1.56546143982640        2.53846368205823
C            1.41699466945496       -0.91830613100820        1.57247705612675
C            0.34065420714740       -1.55163530226804        0.97837945069816
C           -0.02957157452436       -2.83265736097352        1.38502901924069
C           -1.18500529779726       -3.54980655554831        0.86719165353180
N           -1.21819446494841       -4.85404270441951        0.76444442514243
C           -2.44694290831408       -5.16822792339607        0.27811656238301
C           -2.95413730644220       -6.45600386776618       -0.05124192006365
C           -2.16971283333902       -7.60409888419150        0.09933602393592
C           -2.66343508228045       -8.83241255056307       -0.26243293325151
C           -3.95164039861525       -8.92486737197877       -0.78575287100875
C           -4.73398594911032       -7.80320242470713       -0.93147855379667
C           -4.26983958296708       -6.53118473169294       -0.56286860653510
C           -5.08598226472687       -5.33351137055803       -0.66457996793841
C           -6.42405357248150       -5.38897213904532       -1.07999791585457
C           -7.22050968354641       -4.26958591791705       -1.12894599005919
C           -6.71382339198757       -3.03501615459641       -0.73624448340700
C           -5.40633974527003       -2.93572756789460       -0.33011237122444
C           -4.56529784713078       -4.05800326257733       -0.31128674442446
C           -3.20089927491610       -4.01215331313456        0.09190305086346
N           -2.37507924194483       -2.97331576195349        0.46423401783166
C           -2.61837110444370       -1.59539513361753        0.35497348828753
C           -2.91316138849784       -1.04575181652334       -0.89174677107165
C           -3.08647606229296        0.31669007070212       -1.01972414593802
C           -2.94019825172518        1.14011583630696        0.09359312378145
N           -3.03626708768919        2.54029911450469       -0.03554787216527
C           -1.96156300111028        3.40347539117584       -0.06622906187085
C           -0.57262972619305        2.97788388025352       -0.13791234124655
C            0.38857376234318        3.69003236129196        0.57896359088158
C            1.71893461935214        3.33449093452013        0.51609662715051
C            2.14298834583332        2.26725373062201       -0.27835108273420
C            3.55918009718488        1.88826212657408       -0.34458694121934
C            4.56411148749028        2.85311489914307       -0.26584170247616
C            5.89650908700523        2.50330501523059       -0.30403709912012
C            6.27520050352262        1.16503283814076       -0.42308198152825
N            7.62256956862127        0.80241744553286       -0.44503850851411
C            8.03638904677019       -0.39596388762631        0.14983556654907
C            7.44661632307272       -0.83972057739267        1.33329476547662
C            7.85555689033369       -2.02472654361502        1.91302542707305
C            8.86163802409135       -2.77973364237454        1.33279455521006
C            9.45518813254468       -2.34025597157091        0.16087891222901
C            9.04646790907866       -1.16144883359351       -0.43189307704944
C            8.56526076127589        1.63366156674805       -1.06298630487111
C            8.24783250815271        2.31060597279169       -2.24018770382705
C            9.18111073956448        3.13024880857609       -2.84433847184413
C           10.44326650965268        3.28198940217297       -2.29394447008446
C           10.76503450311956        2.60789035079385       -1.12729387051892
C            9.83584663617389        1.79271333957676       -0.51085985328065
C            5.27543808946804        0.19608926308727       -0.51832187464966
C            3.94543526239835        0.55403890254965       -0.48175308794001
C            1.17872367532494        1.57194396410145       -1.00854937730107
C           -0.15519112173805        1.91656756688722       -0.93916085150660
N           -2.33864653992674        4.65633727111182       -0.04223093757717
C           -3.69698189802275        4.64034663226929        0.00064736794937
C           -4.58921434463945        5.74853031260126        0.01773479715425
C           -4.11201065051608        7.06286897794787       -0.01754581776647
C           -4.98828425653722        8.11893854484641       -0.01091930227577
C           -6.35884981006834        7.87031904553111        0.02941946559754
C           -6.83896927228369        6.58219249082718        0.06607508860380
C           -5.97598258637422        5.47540869018115        0.06429797036403
C           -6.45489409667708        4.10456253423294        0.11379308775393
C           -7.82187584098123        3.80118027948269        0.18753063361638
C           -8.28000973378921        2.50640451128329        0.24923168740927
C           -7.38076467674011        1.44481048941052        0.24430491292380
C           -6.03380740118183        1.69769703586402        0.16866427402193
C           -5.54686591796157        3.01060568932229        0.09746435660590
C           -4.16339956166587        3.32760363406646        0.01894028214894
C           -2.65943938813768        0.59041332201539        1.33900441144789
C           -2.51378075280099       -0.77630059250075        1.47408011356281
C            0.74675577453387       -3.48551388653499        2.34511121374603
C            1.84067980568207       -2.86007543486990        2.90893798759656
H            3.01020759017765       -1.06397742768546        2.99184375572779
H            1.66669807809860        0.08956377575338        1.27770864335739
H           -0.19338332805595       -1.04372025269016        0.18991925318777
H           -1.17375077591435       -7.48579137035932        0.49694336494109
H           -2.06105013380309       -9.72168957593846       -0.15017906703444
H           -4.34139012091970       -9.88852784347889       -1.08052747220756
H           -5.72300411341474       -7.92401150358455       -1.34415985777090
H           -6.85845870387917       -6.33406559966304       -1.36274415226760
H           -8.24638295880467       -4.35193504488859       -1.45624877049205
H           -7.34591711517499       -2.15948236788116       -0.74705699744647
H           -5.02697057136902       -1.98141700789636       -0.00053810725134
H           -3.00143830590779       -1.69346658284530       -1.75129606129421
H           -3.32701679079297        0.75183323648173       -1.97877553394718
H            0.06911933856643        4.52220592894268        1.18691175486402
H            2.44095176257222        3.88040340457983        1.10498397996881
H            4.29818119773000        3.89671118218870       -0.18771215399300
H            6.65753809585579        3.26679653827420       -0.23570558025169
H            6.66947942261144       -0.24734038331194        1.79382689924165
H            7.39070943016914       -2.35661436562477        2.82981303259257
H            9.18077883681095       -3.70366072823210        1.79053422696075
H           10.23724317813547       -2.92446355148682       -0.30139768390008
H            9.50402891347227       -0.82638844666272       -1.35127724605950
H            7.26783476717063        2.18520738299378       -2.67706464860112
H            8.92328646042929        3.64718837674102       -3.75702456603404
H           11.17103728331234        3.92057372737079       -2.77103874286956
H           11.74509519229205        2.72388773529926       -0.68834651621977
H           10.08581564699454        1.27490452912649        0.40367158872869
H            5.54998540416713       -0.84334884669629       -0.62237573467938
H            3.19810801770805       -0.22260162773432       -0.54451652884206
H            1.48180609349462        0.76534052944598       -1.65991593461630
H           -0.86935664996180        1.37704106452459       -1.54226574408561
H           -3.04375036528988        7.21011993119248       -0.05267322973539
H           -4.62441959620752        9.13540548934459       -0.03872551740464
H           -7.05309007085840        8.69830247173964        0.03166347640272
H           -7.90755087316180        6.43948528753412        0.09519948778367
H           -8.54821822634528        4.59756172557485        0.20085829776581
H           -9.34105709453985        2.31295937798306        0.30638688880847
H           -7.73956881392441        0.42786733891871        0.30394550169540
H           -5.33733885045911        0.87397077901849        0.17127258052323
H           -2.55879563901565        1.23925047806684        2.19566414279700
H           -2.29680843318485       -1.21230215184977        2.43705617065341
H            0.46821448054259       -4.48675973845397        2.63403531963884
H            2.43352963316977       -3.37828005974879        3.64808669837303

          :  Hamiltonian                  GFN2-xTB          :
         :: gradient norm              0.000050076293 Eh/a0 ::
         :: HOMO-LUMO gap              2.204793187404 eV    ::
         :: SCC energy              -181.337902863279 Eh    ::
         :: -> dispersion             -0.175570802838 Eh    ::
         :: repulsion energy           3.350549664827 Eh    ::

    * Orbital Energies and Occupations

         #    Occupation            Energy/Eh            Energy/eV
      -------------------------------------------------------------
         1        2.0000           -0.6918098             -18.8251
       ...           ...                  ...                  ...
       154        2.0000           -0.4062218             -11.0539
       155        2.0000           -0.4057381             -11.0407
       156        2.0000           -0.4056951             -11.0395
       157        2.0000           -0.4007850             -10.9059
       158        2.0000           -0.3991338             -10.8610
       159        2.0000           -0.3931383             -10.6978
       160        2.0000           -0.3836064             -10.4385
       161        2.0000           -0.3814619             -10.3801
       162        2.0000           -0.3801009             -10.3431
       163        2.0000           -0.3766588             -10.2494
       164        2.0000           -0.3663819              -9.9698
       165        2.0000           -0.3645172              -9.9190
       166        2.0000           -0.3498970              -9.5212 (HOMO)
       167                         -0.2688724              -7.3164 (LUMO)
       168                         -0.2639936              -7.1836
       169                         -0.2571177              -6.9965
       170                         -0.2550663              -6.9407
       171                         -0.2490004              -6.7756
       172                         -0.2476455              -6.7388
       173                         -0.2463308              -6.7030
       174                         -0.2425554              -6.6003
       175                         -0.2316522              -6.3036
       176                         -0.2292832              -6.2391
       177                         -0.2285897              -6.2202
       ...                                ...                  ...
       327                          0.7292672              19.8444
      -------------------------------------------------------------
                  HL-Gap            0.0810247 Eh            2.2048 eV

     #   Z          covCN         q      C6AA      α(0)
     1   6 C        2.920    -0.027    28.684     8.783
     2   6 C        2.919    -0.030    28.761     8.794
     3   6 C        2.921    -0.035    28.868     8.811
     4   6 C        2.974     0.002    27.973     8.676
     5   6 C        3.182     0.127    24.829     8.133
     6   7 N        1.897    -0.287    28.289     7.885
     7   6 C        3.201     0.058    26.161     8.334
     8   6 C        2.986     0.003    27.952     8.672
     9   6 C        2.922    -0.031    28.768     8.796
    10   6 C        2.917    -0.030    28.742     8.791
    11   6 C        2.918    -0.032    28.804     8.801
    12   6 C        2.922    -0.035    28.860     8.810
    13   6 C        2.979    -0.001    28.050     8.688
    14   6 C        2.980     0.002    27.966     8.675
    15   6 C        2.922    -0.033    28.828     8.805
    16   6 C        2.917    -0.033    28.818     8.803
    17   6 C        2.917    -0.031    28.766     8.795
    18   6 C        2.919    -0.039    28.978     8.828
    19   6 C        2.978    -0.002    28.078     8.692
    20   6 C        3.071     0.019    27.505     8.599
    21   7 N        2.841    -0.045    22.109     6.984
    22   6 C        2.913     0.070    26.435     8.431
    23   6 C        2.922    -0.036    28.904     8.816
    24   6 C        2.920    -0.034    28.858     8.809
    25   6 C        2.913     0.069    26.446     8.433
    26   7 N        2.843    -0.050    22.198     6.998
    27   6 C        3.190     0.128    24.762     8.117
    28   6 C        2.973    -0.002    28.066     8.690
    29   6 C        2.925    -0.028    28.701     8.786
    30   6 C        2.924    -0.034    28.847     8.808
    31   6 C        2.974     0.011    27.756     8.642
    32   6 C        2.974    -0.000    28.033     8.685
    33   6 C        2.924    -0.034    28.852     8.809
    34   6 C        2.920    -0.049    29.221     8.865
    35   6 C        2.924     0.065    26.551     8.450
    36   7 N        2.752    -0.074    22.681     7.073
    37   6 C        2.924     0.065    26.545     8.449
    38   6 C        2.922    -0.047    29.172     8.857
    39   6 C        2.920    -0.029    28.726     8.789
    40   6 C        2.919    -0.038    28.943     8.822
    41   6 C        2.920    -0.029    28.724     8.789
    42   6 C        2.922    -0.047    29.173     8.857
    43   6 C        2.924     0.065    26.545     8.449
    44   6 C        2.922    -0.047    29.171     8.857
    45   6 C        2.920    -0.029    28.727     8.789
    46   6 C        2.919    -0.038    28.942     8.822
    47   6 C        2.920    -0.029    28.727     8.789
    48   6 C        2.922    -0.047    29.171     8.857
    49   6 C        2.921    -0.049    29.219     8.864
    50   6 C        2.924    -0.035    28.865     8.811
    51   6 C        2.924    -0.035    28.860     8.810
    52   6 C        2.921    -0.036    28.905     8.817
    53   7 N        1.895    -0.289    28.334     7.892
    54   6 C        3.207     0.057    26.140     8.326
    55   6 C        2.986     0.003    27.950     8.672
    56   6 C        2.922    -0.031    28.775     8.797
    57   6 C        2.917    -0.030    28.748     8.792
    58   6 C        2.917    -0.033    28.815     8.803
    59   6 C        2.922    -0.035    28.863     8.810
    60   6 C        2.979    -0.002    28.060     8.689
    61   6 C        2.980     0.002    27.965     8.674
    62   6 C        2.922    -0.033    28.830     8.805
    63   6 C        2.917    -0.033    28.827     8.804
    64   6 C        2.917    -0.031    28.772     8.796
    65   6 C        2.920    -0.039    28.976     8.827
    66   6 C        2.978    -0.003    28.085     8.693
    67   6 C        3.075     0.020    27.484     8.595
    68   6 C        2.922    -0.035    28.879     8.813
    69   6 C        2.921    -0.036    28.889     8.814
    70   6 C        2.930    -0.028    28.689     8.784
    71   6 C        2.918    -0.027    28.671     8.781
    72   1 H        0.926     0.034     2.535     2.490
    73   1 H        0.926     0.036     2.506     2.476
    74   1 H        0.926     0.023     2.687     2.563
    75   1 H        0.926     0.051     2.310     2.376
    76   1 H        0.926     0.031     2.571     2.508
    77   1 H        0.926     0.029     2.601     2.522
    78   1 H        0.926     0.031     2.568     2.506
    79   1 H        0.926     0.035     2.512     2.479
    80   1 H        0.926     0.030     2.588     2.516
    81   1 H        0.926     0.027     2.625     2.533
    82   1 H        0.926     0.022     2.706     2.573
    83   1 H        0.926     0.052     2.300     2.371
    84   1 H        0.926     0.050     2.314     2.379
    85   1 H        0.926     0.049     2.336     2.390
    86   1 H        0.926     0.037     2.486     2.466
    87   1 H        0.926     0.035     2.511     2.478
    88   1 H        0.926     0.033     2.546     2.495
    89   1 H        0.926     0.031     2.573     2.508
    90   1 H        0.926     0.032     2.563     2.504
    91   1 H        0.926     0.031     2.572     2.508
    92   1 H        0.926     0.032     2.557     2.500
    93   1 H        0.926     0.032     2.560     2.502
    94   1 H        0.926     0.032     2.558     2.501
    95   1 H        0.926     0.032     2.556     2.500
    96   1 H        0.926     0.031     2.574     2.509
    97   1 H        0.926     0.032     2.558     2.501
    98   1 H        0.926     0.032     2.560     2.502
    99   1 H        0.926     0.033     2.550     2.497
   100   1 H        0.926     0.035     2.513     2.479
   101   1 H        0.926     0.033     2.538     2.491
   102   1 H        0.926     0.024     2.668     2.554
   103   1 H        0.926     0.051     2.311     2.377
   104   1 H        0.926     0.030     2.581     2.512
   105   1 H        0.926     0.028     2.612     2.527
   106   1 H        0.926     0.031     2.577     2.510
   107   1 H        0.926     0.035     2.519     2.482
   108   1 H        0.926     0.029     2.598     2.521
   109   1 H        0.926     0.026     2.645     2.543
   110   1 H        0.926     0.020     2.737     2.587
   111   1 H        0.926     0.049     2.332     2.388
   112   1 H        0.926     0.049     2.331     2.387
   113   1 H        0.926     0.054     2.265     2.353
   114   1 H        0.926     0.037     2.486     2.466

molecular dipole:
                 x           y           z       tot (Debye)
 q only:        0.674      -0.169       0.175
   full:        0.139      -0.216       0.063       0.673

 projected vibrational frequencies (cm⁻¹)
eigval :       -0.00    -0.00    -0.00     0.00     0.00     0.00
eigval :        3.43     7.61     9.80    13.51    17.40    20.71
eigval :       25.54    28.89    31.03    36.30    43.29    48.46
eigval :       53.70    58.53    61.44    65.13    72.56    75.53
eigval :       76.65    81.60    84.32    90.31    91.79   105.96
eigval :      117.14   123.42   125.87   133.36   135.60   148.83
eigval :      176.46   177.02   181.30   198.09   211.62   215.71
eigval :      220.66   228.70   238.93   247.09   254.08   265.85
eigval :      270.11   282.61   285.19   292.36   314.66   316.93
eigval :      329.68   336.61   345.81   356.10   370.42   373.85
eigval :      378.43   378.52   381.77   386.93   390.61   393.03
eigval :      396.50   398.50   404.14   406.17   417.45   427.32
eigval :      430.54   435.60   442.58   449.04   462.45   467.32
eigval :      474.68   484.32   490.17   493.28   498.36   517.70
eigval :      519.67   524.62   532.79   534.98   536.01   538.27
eigval :      556.55   584.11   584.56   585.64   586.59   588.46
eigval :      592.86   600.24   607.40   613.50   618.67   632.58
eigval :      639.97   646.41   649.84   655.48   656.92   659.87
eigval :      664.29   668.63   672.16   675.53   679.00   679.20
eigval :      682.46   684.00   685.64   699.68   707.28   711.42
eigval :      729.27   734.98   735.53   752.10   756.76   757.24
eigval :      764.38   764.99   766.03   767.55   781.99   782.69
eigval :      788.49   797.97   805.56   830.45   832.00   859.53
eigval :      862.99   866.82   871.65   872.59   874.55   874.61
eigval :      875.45   876.58   884.22   892.42   893.38   905.46
eigval :      906.43   907.54   909.97   913.63   914.19   914.50
eigval :      914.80   915.79   920.71   922.43   923.65   924.75
eigval :      927.63   927.65   927.69   928.23   929.15   929.56
eigval :      929.72   931.01   931.09   938.11   939.88   944.74
eigval :      949.56   963.23   980.28   989.42  1005.16  1007.12
eigval :     1012.30  1019.09  1024.49  1033.52  1068.67  1069.79
eigval :     1079.84  1083.22  1084.20  1084.29  1085.62  1085.96
eigval :     1107.38  1108.64  1119.97  1121.90  1124.14  1125.09
eigval :     1131.07  1135.90  1139.52  1150.51  1152.77  1153.76
eigval :     1171.82  1174.11  1179.14  1180.38  1180.73  1180.84
eigval :     1181.39  1183.40  1183.68  1187.70  1189.08  1195.44
eigval :     1195.94  1199.56  1205.94  1207.32  1213.71  1221.95
eigval :     1251.42  1255.14  1255.79  1258.84  1260.24  1270.26
eigval :     1276.97  1278.35  1279.63  1281.45  1283.54  1284.02
eigval :     1288.03  1298.13  1305.36  1309.23  1312.75  1318.54
eigval :     1320.68  1322.56  1326.64  1327.03  1327.66  1329.26
eigval :     1337.64  1338.46  1340.65  1345.74  1348.54  1363.81
eigval :     1390.10  1397.20  1407.15  1408.20  1409.25  1415.94
eigval :     1417.02  1425.64  1426.30  1431.09  1435.26  1436.27
eigval :     1436.70  1442.47  1443.22  1457.88  1464.04  1472.27
eigval :     1476.48  1489.46  1498.86  1512.63  1514.77  1515.64
eigval :     1519.27  1542.36  1544.05  1552.75  1559.98  1560.43
eigval :     1562.45  1565.62  1568.01  1570.69  1577.55  1581.40
eigval :     1581.84  1587.51  1593.79  1594.44  1595.07  1595.33
eigval :     1596.28  1599.09  1604.84  1605.06  1606.03  3072.62
eigval :     3073.38  3075.39  3075.98  3076.28  3076.95  3076.98
eigval :     3077.56  3078.99  3079.23  3080.84  3083.20  3084.01
eigval :     3084.69  3085.16  3085.78  3086.09  3086.15  3086.82
eigval :     3087.19  3088.20  3089.01  3089.88  3092.91  3093.35
eigval :     3094.84  3095.20  3097.32  3097.51  3097.69  3097.87
eigval :     3098.25  3099.47  3103.37  3104.16  3105.11  3105.34
eigval :     3105.54  3108.14  3109.18  3110.95  3111.49  3112.00

   temp. (K)  partition function   enthalpy   heat capacity  entropy
                                   cal/mol     cal/K/mol   cal/K/mol   J/K/mol
 298.15  VIB  0.184E+28            32982.629    207.193    208.394
         ROT  0.324E+09              888.752      2.981     41.925
         INT  0.596E+36            33871.382    210.174    250.319
         TR   0.264E+29             1481.254      4.968     46.267
         TOT                       35352.6355   215.1425   296.5853  1240.9130

       T/K    H(0)-H(T)+PV         H(T)/Eh          T*S/Eh         G(T)/Eh
   ------------------------------------------------------------------------
    298.15    0.563380E-01    0.932754E+00    0.140917E+00    0.791836E+00
   ------------------------------------------------------------------------

         :::::::::::::::::::::::::::::::::::::::::::::::::::::
         ::                  THERMODYNAMIC                  ::
         :::::::::::::::::::::::::::::::::::::::::::::::::::::
         :: total free energy        -177.195516867627 Eh   ::
         ::.................................................::
         :: total energy             -177.987353198448 Eh   ::
         :: zero point energy           0.876415578527 Eh   ::
         :: G(RRHO) w/o ZPVE           -0.084579247707 Eh   ::
         :: G(RRHO) contrib.            0.791836330820 Eh   ::
         :::::::::::::::::::::::::::::::::::::::::::::::::::::

           -------------------------------------------------
          | TOTAL ENERGY             -177.987353198448 Eh   |
          | TOTAL ENTHALPY           -177.054599609182 Eh   |
          | TOTAL FREE ENERGY        -177.195516867627 Eh   |
          | GRADIENT NORM               0.000050072368 Eh/α |
          | HOMO-LUMO GAP               2.204792983052 eV   |
           -------------------------------------------------

 * finished run on 2025/08/22 at 10:10:25.910
