   * xtb version 6.7.1 (edcfbbe) compiled by 'albert@albert-system' on 2024-07-22

   ID    Z sym.   atoms
    1    6 C      1-5, 7-20, 22-25, 27-35, 37-52, 54-71
    2    7 N      6, 21, 26, 36, 53
    3    1 H      72-114

          program call               : xtb data2507/gas/TPA-DPPI/TPA-DPPI_gas_S0_crest.xyz --gfn 2 --ohess vtight --parallel 40 --molden --ceasefiles --namespace data2507/gas/TPA-DPPI/TPA-DPPI_gas_S0_finalOpt
          :  Hamiltonian                  GFN2-xTB          :
 * total energy  :  -177.9889577 Eh     change       -0.3601343E-08 Eh
 * total energy  :  -177.9889601 Eh     change       -0.2472893E-05 Eh
 * total energy  :  -177.9889628 Eh     change       -0.2717178E-05 Eh
 * total energy  :  -177.9889678 Eh     change       -0.4918165E-05 Eh
 * total energy  :  -177.9889715 Eh     change       -0.3708902E-05 Eh
 * total energy  :  -177.9889746 Eh     change       -0.3108521E-05 Eh
 * total energy  :  -177.9889787 Eh     change       -0.4128423E-05 Eh
 * total energy  :  -177.9889849 Eh     change       -0.6156066E-05 Eh
 * total energy  :  -177.9889923 Eh     change       -0.7422164E-05 Eh
 * total energy  :  -177.9890001 Eh     change       -0.7842311E-05 Eh
 * total energy  :  -177.9892334 Eh     change       -0.1241301E-05 Eh
 * total energy  :  -177.9892347 Eh     change       -0.1255185E-05 Eh
 * total energy  :  -177.9892359 Eh     change       -0.1287868E-05 Eh
 * total energy  :  -177.9892373 Eh     change       -0.1363993E-05 Eh
 * total energy  :  -177.9892388 Eh     change       -0.1479947E-05 Eh
 * total energy  :  -177.9892404 Eh     change       -0.1615153E-05 Eh
 * total energy  :  -177.9892422 Eh     change       -0.1750558E-05 Eh
 * total energy  :  -177.9892440 Eh     change       -0.1855277E-05 Eh
 * total energy  :  -177.9892440 Eh     change       -0.4479944E-08 Eh
   *** GEOMETRY OPTIMIZATION CONVERGED AFTER 68 ITERATIONS ***

 final structure:
================
114
 xtb: 6.7.1 (edcfbbe)
C            2.50009727898173       -2.19261838491800       -1.90850558076142
C            1.33994406034444       -1.59991831445971       -2.37979362108089
C            0.10573889080155       -1.99502747632958       -1.89661038861090
C            0.01897806560272       -3.01119347416519       -0.94806849969356
C           -1.25783576781781       -3.52227020219613       -0.47127216175653
N           -1.49429512067404       -4.79669366782982       -0.29167144908320
C           -2.78919167539342       -4.88674060440216        0.10954368061375
C           -3.53647298904680       -6.06264714096739        0.39801637959824
C           -2.96329923101274       -7.33272606774513        0.27694597966445
C           -3.70785889808400       -8.45622802859797        0.53515358949233
C           -5.04158730512102       -8.32056498420240        0.91545274394350
C           -5.61377180736137       -7.07644664890847        1.04183158748494
C           -4.88402684758934       -5.90343853237164        0.79451195837622
C           -5.45296623807123       -4.57503040649430        0.94412434990803
C           -6.76595241494517       -4.38387891839393        1.39751128429297
C           -7.30191830755668       -3.13065166459948        1.57619539570124
C           -6.53547669884433       -1.99988763988374        1.31406371975355
C           -5.24861408469382       -2.14284289167647        0.85824370249249
C           -4.68765531200347       -3.41167901897819        0.65495391352172
C           -3.35729691261794       -3.61735814953219        0.19441451520334
N           -2.36318600357733       -2.74737053916515       -0.19659045631241
C           -2.40331321243823       -1.33856223603332       -0.20178931782356
C           -3.05575252661576       -0.65569759277484       -1.22554188949359
C           -3.09436273170501        0.72384985161068       -1.21690021489258
C           -2.49793334693406        1.43030420304120       -0.17355205153223
N           -2.50763259655375        2.83402280545741       -0.17095493871217
C           -1.37440496739050        3.62587228051557       -0.15799550942927
C           -0.01797835984379        3.10539936272220       -0.13188322453286
C            0.35723389443320        1.95843252150585       -0.82993180920588
C            1.64423457528762        1.47652011486072       -0.73293759523816
C            2.60317185039060        2.12994542088150        0.03917101810948
C            3.95812180533184        1.57801809594409        0.13001596709483
C            4.15167914847053        0.19978993755810        0.22693098693064
C            5.41903506681974       -0.33760614895942        0.27459888179366
C            6.54236284260725        0.48869384860862        0.20787065896354
N            7.82635742015645       -0.05856749063229        0.21718539816951
C            8.06933296258781       -1.28193456427774       -0.41907096957348
C            8.96780415160792       -2.19710114976989        0.12857213880707
C            9.20635931326026       -3.40184174203054       -0.50379921369335
C            8.55014812890074       -3.71902764108452       -1.68178323536627
C            7.65461024597998       -2.81467454449900       -2.22887294812740
C            7.41725459134144       -1.60315905337236       -1.60966655646541
C            8.87623538425910        0.61973643879817        0.84861098542307
C            8.65745325343221        1.30421759201746        2.04377307846931
C            9.69496552893762        1.97561596551944        2.66066381460813
C           10.96393290130360        1.96945880760345        2.10508176151093
C           11.18750316366363        1.28666122293397        0.92069012636168
C           10.15461722066865        0.61929689401994        0.29165744067201
C            6.35374278718454        1.86918753552487        0.12351107913301
C            5.08222032103124        2.40121830935548        0.09456900468484
C            2.23896146727428        3.30752829885831        0.69110263373105
C            0.94805101602206        3.78620608428301        0.60985560109758
N           -1.66605252642463        4.89954536716020       -0.17769455266958
C           -3.02298276083860        4.97581129393619       -0.21135142902873
C           -3.82548344379960        6.14765475234655       -0.28675755263622
C           -3.24593897371882        7.41970840795442       -0.33799988919065
C           -4.03594491737648        8.53637608711828       -0.44724470389820
C           -5.42053940479261        8.39132240333944       -0.51113507496431
C           -6.00079906403015        7.14578503721321       -0.45565617575664
C           -5.22814239954139        5.98049074450399       -0.33403213949506
C           -5.81014789490164        4.65346693491481       -0.23429911624091
C           -7.19894962816083        4.46256229819710       -0.20267043520168
C           -7.76235401357822        3.21672823869608       -0.06237582058651
C           -6.94980814548163        2.09685426376765        0.08031628681940
C           -5.58489347441700        2.23945543401223        0.05039063173599
C           -4.98925119173021        3.49577734295408       -0.13444008585812
C           -3.58136954156778        3.69927786009541       -0.19508385490854
C           -1.84279524815261        0.74618194093767        0.84557719800122
C           -1.78567193884233       -0.63335408999223        0.82436390327099
C            1.18942719494825       -3.61862248308531       -0.49404620945296
C            2.42032516085732       -3.20208043161412       -0.96245906324493
H            3.46248562999419       -1.87374926917496       -2.28133455117618
H            1.39347608474205       -0.83437609084067       -3.14095313527805
H           -0.79073635463528       -1.53578094113572       -2.28534501795416
H           -1.93016688571370       -7.39240568330476       -0.02823753315433
H           -3.27023149933338       -9.43913765215837        0.44187215583525
H           -5.63393114008562       -9.20230741455014        1.11334943165258
H           -6.64997558056702       -7.02190297098573        1.33569811582145
H           -7.38356170787165       -5.23718418670582        1.62621692727346
H           -8.31653467785407       -3.02398833287920        1.93065899448258
H           -6.94643322301379       -1.01442380184123        1.47601202693878
H           -4.65387454158226       -1.26376540463477        0.66853271399633
H           -3.53397369365713       -1.21217349106890       -2.01828943404092
H           -3.58994006646867        1.26286342938643       -2.01078141501053
H           -0.34837850420335        1.44988093217124       -1.46963604012432
H            1.91958140586422        0.58741236199597       -1.27810496960631
H            3.29584822688860       -0.45654452769698        0.29020507487588
H            5.55020174776071       -1.40600100572754        0.36434690090788
H            9.47328231968664       -1.95689221020443        1.05250574070244
H            9.90383305562313       -4.10198669549546       -0.06800040959442
H            8.73592225826473       -4.66326940377213       -2.17054070395521
H            7.14353966501319       -3.05052827080441       -3.15092040803059
H            6.72903449285305       -0.89352135212820       -2.04548214613235
H            7.67093608576678        1.30145022758627        2.48393297127298
H            9.51270698411895        2.50040444750381        3.58699012546304
H           11.77283626581955        2.49283513627366        2.59168341716105
H           12.17249265604545        1.28062590852375        0.47755005094001
H           10.32911154501686        0.09570107209447       -0.63697273744565
H            7.21403122145056        2.51985878514553        0.06672692448546
H            4.95704233587676        3.47001937352633        0.00263596301836
H            2.96837144832090        3.83423067106264        1.28871491492592
H            0.65973253161639        4.68907977888241        1.12555728767367
H           -2.16986078712617        7.48532433701976       -0.29626093360789
H           -3.59368712826611        9.52074452829246       -0.48891883434615
H           -6.04634894168429        9.26713171172832       -0.60499764750064
H           -7.07604078742479        7.08393452108639       -0.51111133414597
H           -7.85805112934091        5.31170112124707       -0.28231104761432
H           -8.83685424099760        3.10918394768432       -0.04691678391200
H           -7.38995582790432        1.11986624639159        0.21433144481570
H           -4.96132798286915        1.37081767643151        0.18905983986649
H           -1.37934153295624        1.29993949197068        1.64755442962115
H           -1.27801481956374       -1.17247352937530        1.60964582309170
H            1.11109397203246       -4.41983281680421        0.22414816811654
H            3.32248037336114       -3.67101575976957       -0.59790807727534

          :  Hamiltonian                  GFN2-xTB          :
         :: gradient norm              0.000056449780 Eh/a0 ::
         :: HOMO-LUMO gap              2.211198511511 eV    ::
         :: SCC energy              -181.340734228735 Eh    ::
         :: -> dispersion             -0.176557489488 Eh    ::
         :: repulsion energy           3.351490218055 Eh    ::

    * Orbital Energies and Occupations

         #    Occupation            Energy/Eh            Energy/eV
      -------------------------------------------------------------
         1        2.0000           -0.6910379             -18.8041
       ...           ...                  ...                  ...
       154        2.0000           -0.4076340             -11.0923
       155        2.0000           -0.4067088             -11.0671
       156        2.0000           -0.4064700             -11.0606
       157        2.0000           -0.4007192             -10.9041
       158        2.0000           -0.3985367             -10.8447
       159        2.0000           -0.3943129             -10.7298
       160        2.0000           -0.3830077             -10.4222
       161        2.0000           -0.3819805             -10.3942
       162        2.0000           -0.3794507             -10.3254
       163        2.0000           -0.3774575             -10.2711
       164        2.0000           -0.3657538              -9.9527
       165        2.0000           -0.3653947              -9.9429
       166        2.0000           -0.3504950              -9.5375 (HOMO)
       167                         -0.2692350              -7.3263 (LUMO)
       168                         -0.2605566              -7.0901
       169                         -0.2570671              -6.9952
       170                         -0.2563125              -6.9746
       171                         -0.2493302              -6.7846
       172                         -0.2475485              -6.7361
       173                         -0.2457293              -6.6866
       174                         -0.2415174              -6.5720
       175                         -0.2323738              -6.3232
       176                         -0.2318095              -6.3079
       177                         -0.2294221              -6.2429
       ...                                ...                  ...
       327                          0.7291498              19.8412
      -------------------------------------------------------------
                  HL-Gap            0.0812600 Eh            2.2112 eV

     #   Z          covCN         q      C6AA      α(0)
     1   6 C        2.919    -0.027    28.681     8.782
     2   6 C        2.919    -0.028    28.689     8.783
     3   6 C        2.922    -0.034    28.839     8.807
     4   6 C        2.974     0.003    27.957     8.673
     5   6 C        3.191     0.127    24.768     8.117
     6   7 N        1.896    -0.289    28.337     7.892
     7   6 C        3.208     0.057    26.131     8.324
     8   6 C        2.986     0.003    27.950     8.672
     9   6 C        2.922    -0.031    28.773     8.796
    10   6 C        2.917    -0.030    28.746     8.792
    11   6 C        2.917    -0.033    28.811     8.802
    12   6 C        2.922    -0.035    28.862     8.810
    13   6 C        2.979    -0.001    28.056     8.688
    14   6 C        2.980     0.003    27.964     8.674
    15   6 C        2.922    -0.033    28.830     8.805
    16   6 C        2.917    -0.033    28.823     8.804
    17   6 C        2.917    -0.031    28.773     8.796
    18   6 C        2.920    -0.039    28.979     8.828
    19   6 C        2.978    -0.002    28.081     8.692
    20   6 C        3.075     0.020    27.492     8.597
    21   7 N        2.842    -0.048    22.165     6.992
    22   6 C        2.912     0.069    26.461     8.435
    23   6 C        2.920    -0.035    28.877     8.812
    24   6 C        2.921    -0.036    28.903     8.816
    25   6 C        2.912     0.070    26.426     8.430
    26   7 N        2.841    -0.046    22.125     6.986
    27   6 C        3.188     0.128    24.763     8.118
    28   6 C        2.974    -0.002    28.064     8.690
    29   6 C        2.921    -0.035    28.872     8.811
    30   6 C        2.926    -0.038    28.954     8.824
    31   6 C        2.977     0.012    27.740     8.639
    32   6 C        2.977     0.000    28.020     8.683
    33   6 C        2.924    -0.034    28.849     8.808
    34   6 C        2.921    -0.049    29.208     8.863
    35   6 C        2.924     0.064    26.562     8.452
    36   7 N        2.752    -0.074    22.678     7.073
    37   6 C        2.924     0.065    26.545     8.449
    38   6 C        2.922    -0.047    29.175     8.858
    39   6 C        2.920    -0.029    28.724     8.789
    40   6 C        2.919    -0.038    28.947     8.823
    41   6 C        2.919    -0.029    28.731     8.790
    42   6 C        2.922    -0.047    29.176     8.858
    43   6 C        2.924     0.065    26.547     8.449
    44   6 C        2.922    -0.047    29.173     8.857
    45   6 C        2.920    -0.029    28.727     8.789
    46   6 C        2.919    -0.038    28.942     8.822
    47   6 C        2.920    -0.029    28.725     8.789
    48   6 C        2.922    -0.047    29.171     8.857
    49   6 C        2.920    -0.049    29.218     8.864
    50   6 C        2.923    -0.034    28.838     8.806
    51   6 C        2.922    -0.033    28.833     8.806
    52   6 C        2.926    -0.029    28.716     8.788
    53   7 N        1.894    -0.287    28.295     7.886
    54   6 C        3.208     0.058    26.113     8.320
    55   6 C        2.986     0.003    27.949     8.672
    56   6 C        2.922    -0.031    28.769     8.796
    57   6 C        2.917    -0.030    28.744     8.792
    58   6 C        2.918    -0.032    28.807     8.801
    59   6 C        2.922    -0.035    28.862     8.810
    60   6 C        2.979    -0.001    28.052     8.688
    61   6 C        2.980     0.002    27.968     8.675
    62   6 C        2.923    -0.033    28.831     8.805
    63   6 C        2.916    -0.033    28.825     8.804
    64   6 C        2.917    -0.031    28.775     8.797
    65   6 C        2.919    -0.040    28.990     8.829
    66   6 C        2.978    -0.002    28.077     8.692
    67   6 C        3.068     0.019    27.518     8.602
    68   6 C        2.922    -0.036    28.892     8.815
    69   6 C        2.922    -0.036    28.885     8.814
    70   6 C        2.928    -0.027    28.667     8.781
    71   6 C        2.918    -0.026    28.654     8.778
    72   1 H        0.926     0.034     2.525     2.485
    73   1 H        0.926     0.033     2.547     2.495
    74   1 H        0.926     0.025     2.658     2.550
    75   1 H        0.926     0.051     2.310     2.377
    76   1 H        0.926     0.031     2.577     2.510
    77   1 H        0.926     0.029     2.607     2.525
    78   1 H        0.926     0.031     2.573     2.508
    79   1 H        0.926     0.035     2.515     2.480
    80   1 H        0.926     0.029     2.594     2.519
    81   1 H        0.926     0.027     2.628     2.535
    82   1 H        0.926     0.020     2.735     2.586
    83   1 H        0.926     0.050     2.318     2.381
    84   1 H        0.926     0.052     2.294     2.368
    85   1 H        0.926     0.022     2.702     2.571
    86   1 H        0.926     0.037     2.490     2.468
    87   1 H        0.926     0.032     2.559     2.501
    88   1 H        0.926     0.032     2.554     2.499
    89   1 H        0.926     0.032     2.559     2.502
    90   1 H        0.926     0.032     2.556     2.500
    91   1 H        0.926     0.031     2.572     2.508
    92   1 H        0.926     0.031     2.565     2.505
    93   1 H        0.926     0.030     2.582     2.513
    94   1 H        0.926     0.032     2.560     2.502
    95   1 H        0.926     0.032     2.557     2.501
    96   1 H        0.926     0.031     2.573     2.508
    97   1 H        0.926     0.032     2.556     2.500
    98   1 H        0.926     0.032     2.559     2.502
    99   1 H        0.926     0.033     2.539     2.492
   100   1 H        0.926     0.035     2.511     2.478
   101   1 H        0.926     0.038     2.480     2.463
   102   1 H        0.926     0.050     2.315     2.380
   103   1 H        0.926     0.051     2.305     2.374
   104   1 H        0.926     0.031     2.575     2.509
   105   1 H        0.926     0.029     2.605     2.524
   106   1 H        0.926     0.031     2.572     2.508
   107   1 H        0.926     0.035     2.516     2.480
   108   1 H        0.926     0.029     2.595     2.519
   109   1 H        0.926     0.027     2.626     2.534
   110   1 H        0.926     0.022     2.701     2.570
   111   1 H        0.926     0.049     2.335     2.390
   112   1 H        0.926     0.048     2.343     2.394
   113   1 H        0.926     0.050     2.316     2.380
   114   1 H        0.926     0.036     2.497     2.471

molecular dipole:
                 x           y           z       tot (Debye)
 q only:        0.739      -0.011       0.048
   full:        0.224      -0.026       0.070       0.601

 projected vibrational frequencies (cm⁻¹)
eigval :       -0.00    -0.00    -0.00     0.00     0.00     0.00
eigval :        5.08     8.65    10.64    14.31    15.56    19.34
eigval :       29.01    30.70    33.91    39.31    45.15    48.42
eigval :       50.68    57.85    59.55    66.47    71.01    73.95
eigval :       78.25    83.13    85.53    89.30   101.62   102.52
eigval :      108.03   117.39   124.47   136.28   139.31   147.00
eigval :      174.29   177.25   184.52   197.14   204.54   211.13
eigval :      222.57   230.55   237.94   243.39   257.81   266.31
eigval :      269.09   282.37   285.62   292.25   316.60   317.03
eigval :      327.25   330.86   349.68   354.03   373.62   374.74
eigval :      378.10   380.26   382.33   386.94   388.93   395.42
eigval :      399.07   400.37   402.13   408.80   416.36   418.99
eigval :      432.33   434.91   439.43   449.09   460.28   465.37
eigval :      477.64   486.69   488.22   491.98   501.71   516.97
eigval :      521.59   522.95   534.84   534.94   536.29   539.67
eigval :      555.57   584.28   584.66   585.78   586.46   587.46
eigval :      593.95   600.21   605.43   612.69   619.01   633.60
eigval :      639.60   645.46   652.41   654.47   656.20   659.88
eigval :      664.39   666.80   671.71   675.92   678.43   680.82
eigval :      683.12   684.11   685.94   699.98   707.04   711.76
eigval :      728.84   735.15   735.19   752.10   757.04   757.31
eigval :      764.13   765.12   766.52   766.81   782.16   782.50
eigval :      787.49   800.43   807.90   829.54   832.48   858.68
eigval :      861.95   868.82   872.00   874.37   874.52   874.97
eigval :      875.47   876.95   877.15   892.67   893.36   902.18
eigval :      905.74   906.97   910.17   912.72   914.36   914.58
eigval :      915.71   916.27   922.83   923.05   923.36   926.17
eigval :      927.71   927.73   927.86   929.05   929.47   929.87
eigval :      930.14   931.43   933.84   937.79   939.75   940.22
eigval :      945.08   964.03   980.49   989.77  1005.22  1007.37
eigval :     1012.66  1018.74  1025.23  1032.88  1068.69  1069.44
eigval :     1081.81  1082.60  1083.55  1084.30  1085.61  1086.05
eigval :     1107.78  1109.37  1119.35  1121.87  1124.13  1125.97
eigval :     1130.87  1135.71  1138.63  1147.45  1149.96  1152.93
eigval :     1171.46  1173.66  1180.43  1180.73  1180.88  1181.27
eigval :     1181.50  1183.36  1183.81  1187.60  1189.66  1194.69
eigval :     1195.80  1198.11  1205.08  1205.67  1213.19  1218.14
eigval :     1251.06  1254.85  1255.82  1259.42  1260.72  1269.18
eigval :     1274.31  1278.94  1279.44  1280.37  1283.85  1284.31
eigval :     1288.06  1300.22  1304.06  1311.15  1313.20  1319.20
eigval :     1320.69  1321.80  1326.27  1326.87  1327.19  1330.73
eigval :     1337.65  1339.47  1340.38  1346.39  1348.87  1362.63
eigval :     1389.96  1397.97  1407.10  1408.14  1408.80  1415.50
eigval :     1416.85  1425.32  1427.50  1430.67  1435.15  1436.21
eigval :     1436.70  1442.01  1443.16  1458.89  1464.46  1472.45
eigval :     1476.65  1488.95  1500.02  1513.77  1514.98  1515.87
eigval :     1518.13  1545.83  1546.51  1553.60  1559.77  1561.32
eigval :     1562.48  1566.47  1568.57  1572.25  1577.46  1581.33
eigval :     1581.44  1588.23  1593.05  1594.65  1595.04  1595.27
eigval :     1597.82  1599.22  1604.73  1605.41  1605.76  3070.66
eigval :     3072.89  3073.02  3074.97  3076.27  3076.46  3076.74
eigval :     3076.93  3077.06  3077.67  3078.80  3079.57  3082.98
eigval :     3084.35  3084.51  3085.69  3086.50  3086.57  3086.74
eigval :     3086.91  3087.37  3088.44  3088.77  3089.79  3090.30
eigval :     3091.95  3093.94  3094.31  3097.72  3097.77  3097.80
eigval :     3097.93  3098.32  3103.15  3104.91  3105.24  3105.49
eigval :     3105.69  3109.37  3111.61  3111.99  3113.72  3117.74

   temp. (K)  partition function   enthalpy   heat capacity  entropy
                                   cal/mol     cal/K/mol   cal/K/mol   J/K/mol
 298.15  VIB  0.892E+27            32985.323    207.337    207.962
         ROT  0.319E+09              888.752      2.981     41.891
         INT  0.284E+36            33874.075    210.318    249.852
         TR   0.264E+29             1481.254      4.968     46.267
         TOT                       35355.3288   215.2864   296.1188  1238.9611

       T/K    H(0)-H(T)+PV         H(T)/Eh          T*S/Eh         G(T)/Eh
   ------------------------------------------------------------------------
    298.15    0.563423E-01    0.932692E+00    0.140696E+00    0.791996E+00
   ------------------------------------------------------------------------

         :::::::::::::::::::::::::::::::::::::::::::::::::::::
         ::                  THERMODYNAMIC                  ::
         :::::::::::::::::::::::::::::::::::::::::::::::::::::
         :: total free energy        -177.197247542752 Eh   ::
         ::.................................................::
         :: total energy             -177.989244010679 Eh   ::
         :: zero point energy           0.876349767675 Eh   ::
         :: G(RRHO) w/o ZPVE           -0.084353299748 Eh   ::
         :: G(RRHO) contrib.            0.791996467927 Eh   ::
         :::::::::::::::::::::::::::::::::::::::::::::::::::::

           -------------------------------------------------
          | TOTAL ENERGY             -177.989244010679 Eh   |
          | TOTAL ENTHALPY           -177.056551940190 Eh   |
          | TOTAL FREE ENERGY        -177.197247542752 Eh   |
          | GRADIENT NORM               0.000056450145 Eh/α |
          | HOMO-LUMO GAP               2.211198042215 eV   |
           -------------------------------------------------

 * finished run on 2025/08/22 at 10:22:43.495
