   * xtb version 6.7.1 (edcfbbe) compiled by 'albert@albert-system' on 2024-07-22

   ID    Z sym.   atoms
    1    6 C      1-5, 7-20, 22-25, 27-35, 37-52, 54-71
    2    7 N      6, 21, 26, 36, 53
    3    1 H      72-114

          program call               : xtb data2507/gas/TPA-DPPI/TPA-DPPI_gas_S0_finalOpt.xtbopt.xyz --gfn 2 --spinpol --tblite --uhf 2 --ohess vtight --parallel 40 --molden --ceasefiles --namespace data2507/gas/TPA-DPPI/TPA-DPPI_gas_T1_preOpt
 * total energy  :  -177.8970765 Eh     change       -0.1437360E-07 Eh
 * total energy  :  -177.9024598 Eh     change       -0.5383340E-02 Eh
 * total energy  :  -177.9056663 Eh     change       -0.3206476E-02 Eh
 * total energy  :  -177.9064242 Eh     change       -0.7578882E-03 Eh
 * total energy  :  -177.9074380 Eh     change       -0.1013791E-02 Eh
 * total energy  :  -177.9078190 Eh     change       -0.3810443E-03 Eh
 * total energy  :  -177.9080859 Eh     change       -0.2668751E-03 Eh
 * total energy  :  -177.9082855 Eh     change       -0.1995920E-03 Eh
 * total energy  :  -177.9084197 Eh     change       -0.1342498E-03 Eh
 * total energy  :  -177.9085057 Eh     change       -0.8600898E-04 Eh
 * total energy  :  -177.9089843 Eh     change       -0.8046524E-07 Eh
 * total energy  :  -177.9089850 Eh     change       -0.6525347E-06 Eh
 * total energy  :  -177.9089853 Eh     change       -0.3768366E-06 Eh
 * total energy  :  -177.9089860 Eh     change       -0.6651299E-06 Eh
 * total energy  :  -177.9089866 Eh     change       -0.6155987E-06 Eh
 * total energy  :  -177.9089871 Eh     change       -0.5207405E-06 Eh
 * total energy  :  -177.9089876 Eh     change       -0.4406721E-06 Eh
 * total energy  :  -177.9089880 Eh     change       -0.4473645E-06 Eh
 * total energy  :  -177.9089881 Eh     change       -0.8666552E-07 Eh
   *** GEOMETRY OPTIMIZATION CONVERGED AFTER 85 ITERATIONS ***

 final structure:
================
114
 xtb: 6.7.1 (edcfbbe)
C            2.30042752468285       -2.32463938055544       -1.93423473452522
C            1.15103841740590       -1.68956236674133       -2.37630500557514
C           -0.08986471684400       -2.08704968600061       -1.91341346767271
C           -0.19519745052401       -3.14115222287629       -1.00862264004891
C           -1.47845993257864       -3.64183719421040       -0.53921258478661
N           -1.73062864544776       -4.91624335957619       -0.37146988244951
C           -3.02446464170545       -4.99188886560496        0.03503916897741
C           -3.78497123207660       -6.15924902690657        0.32299448319546
C           -3.22822307973205       -7.43594991023472        0.19457833728000
C           -3.98308067409498       -8.55113968633208        0.45868469722823
C           -5.31123169965204       -8.40041868801910        0.85249352876561
C           -5.86766052277224       -7.14977730659339        0.98518749911789
C           -5.12712030115556       -5.98492721544576        0.73171338439525
C           -5.67941743569918       -4.65013550020597        0.88789296290890
C           -6.98904264311603       -4.44381218411356        1.34422548136036
C           -7.50858967939385       -3.18428501539887        1.52779128756365
C           -6.72828374682163       -2.06227145607990        1.26840911879724
C           -5.44389543046523       -2.21996835332370        0.81047412665505
C           -4.90031688880009       -3.49542006632657        0.60134575960091
C           -3.57446698469654       -3.71491846563567        0.13463129755903
N           -2.57115193458888       -2.85557575664453       -0.25098584199216
C           -2.58057953681984       -1.44564860731347       -0.24126549979206
C           -3.23714039321673       -0.73462016255916       -1.24608661531904
C           -3.21893319011153        0.64340421458989       -1.23876019765812
C           -2.55333319048677        1.33035747724017       -0.21907486100180
N           -2.49333033764507        2.72466968549704       -0.22132451625993
C           -1.30040744281051        3.47908592407853       -0.15723635782018
C            0.00979283244154        2.99142643798851       -0.22816644495181
C            0.38624159715287        1.69247599388365       -0.68319986500122
C            1.67366513873407        1.26848798037309       -0.60647481495098
C            2.72104047642994        2.09360124530911       -0.11316973802729
C            4.05467610478065        1.59945612962436       -0.00211053838613
C            4.32071748473492        0.20919530455484        0.07247459148314
C            5.59558981572770       -0.27816694040851        0.15724110360178
C            6.69925258884608        0.59020981782285        0.17393987912076
N            7.99537608911942        0.09270985469598        0.24368188463725
C            8.31546732983511       -1.11579266643371       -0.38326909663355
C            9.21289521582830       -2.00479687152258        0.21053453041707
C            9.52273120001308       -3.19745277935735       -0.41251398188132
C            8.94322889048363       -3.52641345054008       -1.62777453403001
C            8.05059262008240       -2.64751352457296       -2.22089429086267
C            7.73819864309084       -1.44956437103695       -1.60980241532317
C            8.98254292822231        0.79702463934922        0.94030220314104
C            8.66895923604969        1.46705445769279        2.12400579932580
C            9.64588131779247        2.16540697494050        2.80527839302775
C           10.94547827988568        2.20398215207150        2.32516906172603
C           11.26239402670322        1.53724348492663        1.15214347854015
C           10.29230098651613        0.84012667946420        0.45979550389433
C            6.45663594130191        1.97237118857765        0.11704633161668
C            5.17992216510054        2.45794992715167        0.03566866219369
C            2.36108459005789        3.43190308648585        0.22123281597076
C            1.07523667695262        3.86124811202207        0.16351996092033
N           -1.58006918068641        4.79114933453634       -0.07379953872432
C           -2.90118060988731        4.90556887528721       -0.13018287557916
C           -3.66627746216316        6.10898864864568       -0.15215456194316
C           -3.03541689557972        7.35504340207599       -0.15018347993983
C           -3.77846357122598        8.51118388403705       -0.21673037377055
C           -5.16413485239621        8.42412756064798       -0.29470710115878
C           -5.79629117249960        7.19868637555767       -0.29003227101485
C           -5.07425086739853        6.00057881166238       -0.20817556009104
C           -5.71071103585954        4.69441124903682       -0.15349390840348
C           -7.10033010695558        4.56287062045995       -0.09750464458471
C           -7.72085962695904        3.33644415181106        0.00605912237508
C           -6.95504950460087        2.17545931502784        0.08824685594997
C           -5.58873505130814        2.25546778863522        0.03017436323334
C           -4.92960994869929        3.49411558441933       -0.12066402944183
C           -3.52840889468528        3.63099046642158       -0.19661359984275
C           -1.90426257566305        0.61272357573175        0.78954592746068
C           -1.91049915152082       -0.76531304488318        0.77087838915668
C            0.96460529008880       -3.78923105486409       -0.58422865682733
C            2.20246025509725       -3.37591149220563       -1.03667935605867
H            3.26808948362556       -2.00476885577669       -2.29343395399573
H            1.21935005224312       -0.88403442882261       -3.09341928447750
H           -0.97728292616915       -1.59569248745801       -2.28254402722367
H           -2.19854605399980       -7.50711750639550       -0.11984573655989
H           -3.55756944626328       -9.53900601509339        0.36060393993233
H           -5.91158345437319       -9.27548616737655        1.05630232041538
H           -6.89999812142866       -7.08353885491220        1.29028729488574
H           -7.61782631746348       -5.28990130936423        1.56979014750144
H           -8.52166226821211       -3.06608617873821        1.88336324805163
H           -7.12725146441037       -1.07218982856670        1.43296605083299
H           -4.83731862994091       -1.34871107539132        0.62212868947677
H           -3.75360327317712       -1.27198445268599       -2.02813682783037
H           -3.70884001843680        1.20114491717087       -2.02312083826035
H           -0.34490650553120        1.05198028056002       -1.14905835890421
H            1.91355409310989        0.28763657176121       -0.98522795600421
H            3.49823363763024       -0.48799764506410        0.10817300012051
H            5.76340533173899       -1.34260453522325        0.23887417016832
H            9.65476337627139       -1.75589700985927        1.16421427163829
H           10.21558498578521       -3.87900341136772        0.05813277820726
H            9.18605509820904       -4.46095861641148       -2.10967111397354
H            7.60039146675851       -2.89360644797835       -3.17111374667301
H            7.05458709050408       -0.75760865548871       -2.07927146067654
H            7.65947198708390        1.42474026766106        2.50552669078208
H            9.39278467378437        2.67630189524391        3.72230214950824
H           11.70642242451918        2.74944251460156        2.86185238619155
H           12.27150738619398        1.56719036682176        0.76890760479209
H           10.53729031363363        0.33179867011424       -0.46125375446363
H            7.29605850354116        2.65283504929985        0.10962632619983
H            5.03702360819609        3.52348234732458       -0.05032580596198
H            3.12300090132149        4.10965595978141        0.57465055530902
H            0.80768884326314        4.86588695308142        0.44978357288943
H           -1.95780276194552        7.37411466314078       -0.10305294159277
H           -3.29439997153442        9.47632957346216       -0.21581985470856
H           -5.75550519426651        9.32620941813228       -0.35913980530988
H           -6.87257791643001        7.18424585494951       -0.35615686240549
H           -7.72315123816728        5.44248791027612       -0.12428305516001
H           -8.79833934882815        3.27799154440661        0.04203622862273
H           -7.43673456679962        1.21527433978134        0.19956952196211
H           -5.00449532423829        1.35541801125784        0.12604044264157
H           -1.39423145762044        1.14759269806304        1.57567629208382
H           -1.40659910530726       -1.32608459051203        1.54352717215420
H            0.87192093909235       -4.61851988645431        0.09953922815193
H            3.09574633160272       -3.87836284074668       -0.69501886708543

 projected vibrational frequencies (cm⁻¹)
eigval :       -0.00    -0.00    -0.00     0.00     0.00     0.00
eigval :        5.22     8.78     9.87    14.70    15.98    18.59
eigval :       27.03    31.80    33.86    38.72    45.55    47.93
eigval :       51.56    55.86    59.61    65.06    70.96    73.98
eigval :       77.39    83.75    87.07    89.77   103.51   106.58
eigval :      110.87   119.41   124.56   136.26   142.32   153.78
eigval :      171.12   179.84   182.52   196.05   207.50   211.49
eigval :      223.93   230.42   237.65   243.62   244.71   260.68
eigval :      268.26   282.32   286.14   298.38   308.81   317.43
eigval :      318.78   328.75   337.78   351.30   357.18   373.96
eigval :      377.32   377.81   383.76   386.96   389.78   393.43
eigval :      397.66   399.59   401.31   402.09   411.46   416.08
eigval :      421.35   430.86   436.87   441.05   449.59   457.17
eigval :      466.37   472.79   485.19   489.24   495.22   500.83
eigval :      507.79   518.39   523.46   528.32   532.53   535.00
eigval :      550.18   579.77   582.75   584.93   585.67   587.10
eigval :      589.91   592.59   597.20   609.16   610.46   613.89
eigval :      632.94   639.70   645.82   651.60   653.40   658.28
eigval :      658.68   661.30   663.24   667.21   670.31   671.72
eigval :      677.60   678.13   679.47   685.17   691.50   707.36
eigval :      725.34   728.75   735.36   741.52   751.77   756.68
eigval :      756.85   761.02   765.05   766.44   776.13   782.13
eigval :      785.54   791.30   799.61   813.19   814.18   823.42
eigval :      839.81   850.95   860.13   866.66   869.64   872.54
eigval :      874.02   874.49   877.04   893.14   893.87   898.65
eigval :      902.34   903.92   905.92   907.64   908.31   909.61
eigval :      911.47   913.38   913.92   914.76   916.70   919.64
eigval :      922.92   923.56   924.64   927.31   927.54   927.80
eigval :      929.00   929.13   929.23   930.63   933.01   938.67
eigval :      940.53   949.93   960.19   977.91   990.39  1000.24
eigval :     1002.82  1005.03  1012.73  1026.45  1035.20  1053.13
eigval :     1068.79  1081.07  1082.33  1082.39  1082.54  1086.04
eigval :     1092.95  1105.05  1108.06  1119.81  1121.64  1123.78
eigval :     1127.16  1132.84  1134.73  1138.01  1151.75  1154.76
eigval :     1158.54  1167.13  1173.93  1178.96  1179.80  1179.93
eigval :     1180.05  1182.18  1182.37  1183.48  1188.28  1192.59
eigval :     1192.89  1197.55  1200.98  1203.03  1212.36  1219.73
eigval :     1242.68  1245.02  1252.45  1254.21  1257.62  1259.52
eigval :     1260.67  1272.59  1276.74  1279.63  1279.95  1281.56
eigval :     1284.18  1286.23  1300.50  1302.27  1309.22  1313.33
eigval :     1318.85  1319.87  1321.21  1327.24  1330.77  1332.01
eigval :     1334.81  1336.44  1339.40  1342.27  1348.03  1355.24
eigval :     1381.79  1391.37  1396.57  1407.22  1408.64  1411.57
eigval :     1414.23  1418.81  1427.34  1428.65  1432.34  1434.34
eigval :     1437.28  1438.47  1441.23  1447.03  1456.38  1458.73
eigval :     1460.33  1464.97  1465.28  1476.19  1480.58  1489.80
eigval :     1498.16  1514.09  1514.80  1516.67  1521.98  1544.64
eigval :     1545.20  1545.64  1561.70  1561.79  1568.23  1568.62
eigval :     1571.15  1573.33  1579.87  1581.19  1584.09  1585.13
eigval :     1588.04  1594.67  1595.17  1597.50  1605.09  3071.03
eigval :     3071.47  3073.38  3074.80  3075.41  3076.98  3077.44
eigval :     3077.52  3079.68  3080.49  3080.90  3081.57  3082.98
eigval :     3083.83  3085.51  3085.79  3086.25  3086.35  3088.19
eigval :     3088.86  3089.78  3091.70  3092.35  3093.12  3095.09
eigval :     3096.30  3096.36  3097.16  3097.60  3100.93  3101.33
eigval :     3102.93  3103.23  3104.43  3104.45  3105.46  3106.64
eigval :     3110.18  3110.26  3110.49  3114.25  3116.83  3124.87

   temp. (K)  partition function   enthalpy   heat capacity  entropy
                                   cal/mol     cal/K/mol   cal/K/mol   J/K/mol
 298.15  VIB  0.111E+28            33230.474    209.117    209.098
         ROT  0.330E+09              888.752      2.981     41.961
         INT  0.368E+36            34119.226    212.098    251.059
         TR   0.264E+29             1481.254      4.968     46.267
         TOT                       35600.4799   217.0664   297.3256  1244.0101

       T/K    H(0)-H(T)+PV         H(T)/Eh          T*S/Eh         G(T)/Eh
   ------------------------------------------------------------------------
    298.15    0.567330E-01    0.929267E+00    0.141269E+00    0.787998E+00
   ------------------------------------------------------------------------

         :::::::::::::::::::::::::::::::::::::::::::::::::::::
         ::                  THERMODYNAMIC                  ::
         :::::::::::::::::::::::::::::::::::::::::::::::::::::
         :: total free energy        -177.120990255473 Eh   ::
         ::.................................................::
         :: total energy             -177.908988122823 Eh   ::
         :: zero point energy           0.872533859813 Eh   ::
         :: G(RRHO) w/o ZPVE           -0.084535992464 Eh   ::
         :: G(RRHO) contrib.            0.787997867350 Eh   ::
         :::::::::::::::::::::::::::::::::::::::::::::::::::::

           -------------------------------------------------
          | TOTAL ENERGY             -177.908988122823 Eh   |
          | TOTAL ENTHALPY           -176.979721287035 Eh   |
          | TOTAL FREE ENERGY        -177.120990255473 Eh   |
          | GRADIENT NORM               0.000133127602 Eh/α |
           -------------------------------------------------

 * finished run on 2025/08/22 at 10:23:11.405
