   * xtb version 6.7.1 (edcfbbe) compiled by 'albert@albert-system' on 2024-07-22

   ID    Z sym.   atoms
    1    6 C      1-5, 7-13, 15-18, 20-33, 35-41, 43-49, 51, 52, 54-65, 67, 68
    2    7 N      6, 14, 19, 34, 42, 50, 53, 66
    3    1 H      69-106

          program call               : xtb data2507/gas/p2Cz2Trz/p2Cz2Trz_gas_S0_crest.xyz --gfn 2 --ohess vtight --parallel 40 --molden --ceasefiles --namespace data2507/gas/p2Cz2Trz/p2Cz2Trz_gas_S0_finalOpt
          :  Hamiltonian                  GFN2-xTB          :
 * total energy  :  -171.3622482 Eh     change       -0.3572438E-08 Eh
 * total energy  :  -171.3622488 Eh     change       -0.6379064E-06 Eh
 * total energy  :  -171.3622494 Eh     change       -0.5762468E-06 Eh
 * total energy  :  -171.3622506 Eh     change       -0.1160739E-05 Eh
 * total energy  :  -171.3622511 Eh     change       -0.5834770E-06 Eh
 * total energy  :  -171.3622518 Eh     change       -0.6488073E-06 Eh
 * total energy  :  -171.3622526 Eh     change       -0.8592941E-06 Eh
 * total energy  :  -171.3622534 Eh     change       -0.7412992E-06 Eh
 * total energy  :  -171.3622539 Eh     change       -0.5113749E-06 Eh
 * total energy  :  -171.3622543 Eh     change       -0.4466226E-06 Eh
 * total energy  :  -171.3622547 Eh     change       -0.3917831E-06 Eh
 * total energy  :  -171.3622551 Eh     change       -0.3153896E-06 Eh
 * total energy  :  -171.3622553 Eh     change       -0.2071368E-06 Eh
 * total energy  :  -171.3622554 Eh     change       -0.1375102E-06 Eh
 * total energy  :  -171.3622554 Eh     change       -0.2098895E-07 Eh
   *** GEOMETRY OPTIMIZATION CONVERGED AFTER 15 ITERATIONS ***

 final structure:
================
106
 xtb: 6.7.1 (edcfbbe)
C            5.37686906568748       -6.13204279111295        2.15420770575945
C            6.34646170067818       -5.32184016932652        1.58331276136044
C            5.99742091139278       -4.10056514814620        1.04089306330376
C            4.66861175368644       -3.68076087622689        1.06745358385876
C            4.29602749130085       -2.39046737144282        0.49160059846203
N            5.26336654473429       -1.61123271552585        0.01660775871048
C            4.86892492941584       -0.50073706347788       -0.59538039658822
C            5.87667219239734        0.41529957799568       -1.12152346252305
C            5.50202981036167        1.43546660228523       -1.99296298178634
C            6.44404119461880        2.34120590412684       -2.43871446451184
C            7.76022661748098        2.23892192748863       -2.01629009862006
C            8.13760429316196        1.22139581828969       -1.15342122271504
C            7.20200431162098        0.30848207848121       -0.70755106061218
N            3.59566819452951       -0.13421490387848       -0.71647804647880
C            2.71629652240527       -0.89384333025311       -0.07894212709150
C            1.32893009680937       -0.41819111891501       -0.00173836258830
C            0.29995590746324       -1.34950111047666        0.03564146197319
C           -1.03165233961800       -0.95623564308504        0.03554391584035
N           -2.03656837254224       -1.92701728641428        0.08590685892204
C           -3.12899003404543       -1.91412338813234        0.93113751187822
C           -3.38003713454494       -1.11104383182558        2.03463822911453
C           -4.57582293740865       -1.28926012116693        2.70231658183636
C           -5.49482646516183       -2.25689923658269        2.30124086662314
C           -5.22847233633602       -3.09041968212305        1.23406501858109
C           -4.03463592583104       -2.92631965805086        0.54484264864973
C           -3.45050556899520       -3.58235547890146       -0.59136013969109
C           -3.86735878297643       -4.62397769428873       -1.40874678674490
C           -3.06514963817668       -4.99313396770022       -2.47039102850793
C           -1.86771050989169       -4.32963490717164       -2.72722256086147
C           -1.43142954793283       -3.29066261125840       -1.92641216344476
C           -2.22374286272515       -2.92893726159232       -0.84745169983714
C           -1.33481023814263        0.41559228139476        0.00031821729861
C           -2.72129146787500        0.89375134880334       -0.07483412686286
N           -3.60530258617993        0.13331850522638       -0.70499969208860
C           -4.87691865101252        0.50518755411167       -0.58292897527972
C           -5.88927567118251       -0.41109009637169       -1.09977403448039
C           -5.52124109322832       -1.43595296297524       -1.96847583358711
C           -6.46725741776291       -2.34213327698903       -2.40472039049761
C           -7.78087576798928       -2.23559488772829       -1.97544788002904
C           -8.15176499687949       -1.21320622172430       -1.11553158427131
C           -7.21216787956012       -0.29975588398435       -0.67929004247540
N           -5.26577344836680        1.62176945090030        0.02144965354030
C           -4.29424282016159        2.40068690046757        0.48853185855562
C           -4.66039921221340        3.69744680230494        1.05399626634394
C           -5.98770244593607        4.12198869640467        1.02719877183143
C           -6.33060517277628        5.34982584202357        1.55861582256539
C           -5.35633322769029        6.16195878403518        2.11868202538759
C           -4.03479533484543        5.74395468155888        2.14737482148010
C           -3.68441593517060        4.51711908949733        1.61831421952723
N           -3.00749830255050        2.05551709479884        0.49783108195529
C           -0.30544876348406        1.34663196724145        0.04634918673407
C            1.02588462404029        0.95334727809885        0.04459881591949
N            2.03271532599093        1.92175251004746        0.10503753427764
C            2.22755672505720        2.92836815203850       -0.82178358528889
C            1.43708480591655        3.30450416829510       -1.89710391331524
C            1.88144822215819        4.34520475659944       -2.69124413390063
C            3.08498781133767        4.99637401438797       -2.43145807351451
C            3.88507885442974        4.61313498587311       -1.37322141858611
C            3.45998424023000        3.56973874686944       -0.56241276552101
C            4.03971620016676        2.90120925261773        0.56872047167839
C            5.23597137118318        3.04982073429570        1.25728376294555
C            5.49656573754433        2.20622722627180        2.31798025844319
C            4.56960518151140        1.24395632294424        2.71363769744133
C            3.37116608815919        1.08128628432114        2.04671560017291
C            3.12581872686693        1.89434569542460        0.94923475316437
N            3.00771406308247       -2.05081985670329        0.50028625681798
C            3.69731491428947       -4.49849627036586        1.64258462511968
C            4.05384675996984       -5.71873351325025        2.18267686676379
H            5.65276236255189       -7.08699677673122        2.57719756007121
H            7.37632696720352       -5.64687483297089        1.56212586682995
H            6.73614153297388       -3.45681971687592        0.58975806993206
H            4.47297289268362        1.50424736044752       -2.30840899891026
H            6.14977152300775        3.13261503561484       -3.11208512374420
H            8.49456908610257        2.95301285247827       -2.36013544405327
H            9.16435672471669        1.14468785930010       -0.82658506611519
H            7.47336860582937       -0.48423986434691       -0.02798022645311
H            0.55339242955045       -2.39838174291523        0.05956064114990
H           -2.67314255742900       -0.35816904281315        2.35351458983608
H           -4.80415385842138       -0.66223223647917        3.55184188889171
H           -6.42439227629184       -2.35609035803398        2.84163368360477
H           -5.93452946515027       -3.84908324193349        0.93198734649425
H           -4.80329980577779       -5.12653293703556       -1.21645266856898
H           -3.36930235945696       -5.80188320480735       -3.11841973138020
H           -1.26752751133729       -4.63154396691451       -3.57302536858592
H           -0.50939577462143       -2.77309251908403       -2.14450255255658
H           -4.49417811091671       -1.50772369713568       -2.28967485618970
H           -6.17808977477266       -3.13722172046062       -3.07596671807407
H           -8.51830694503616       -2.95016975508554       -2.31159374409230
H           -9.17660833846493       -1.13307803543663       -0.78356471294143
H           -7.47846652402468        0.49677197921684       -0.00214980736615
H           -6.73011030567415        3.47679603991859        0.58424871376250
H           -7.35931041449023        5.67849639744620        1.53712110619112
H           -5.62740665231497        7.12199701081619        2.53319379694061
H           -3.27774866954834        6.37850161745029        2.58437877975910
H           -2.66180329962282        4.17396736957907        1.63447524984923
H           -0.55914357092140        2.39520435069580        0.07858018511020
H            0.51021440410666        2.79665754389143       -2.11749611008556
H            1.28280205908276        4.65829835346176       -3.53407013875511
H            3.39558013011179        5.80671187010830       -3.07443926406727
H            4.82570706225015        5.10599534947678       -1.17873093215359
H            5.94829596373689        3.80431874659590        0.95950542043126
H            6.42783387959373        2.29318432111805        2.85754815325756
H            4.79370128079689        0.60864283166136        3.55812098650112
H            2.65805209938031        0.33257399319436        2.36144498958024
H            2.67351785176837       -4.15885452617547        1.65839006716279
H            3.30046828033637       -6.35183952128821        2.62803023278781

          :  Hamiltonian                  GFN2-xTB          :
         :: gradient norm              0.000092104640 Eh/a0 ::
         :: HOMO-LUMO gap              1.647340757182 eV    ::
         :: SCC energy              -174.493752049768 Eh    ::
         :: -> dispersion             -0.175886151380 Eh    ::
         :: repulsion energy           3.131496629862 Eh    ::

    * Orbital Energies and Occupations

         #    Occupation            Energy/Eh            Energy/eV
      -------------------------------------------------------------
         1        2.0000           -0.6869877             -18.6939
       ...           ...                  ...                  ...
       147        2.0000           -0.4082323             -11.1086
       148        2.0000           -0.4068718             -11.0715
       149        2.0000           -0.4067336             -11.0678
       150        2.0000           -0.4006451             -10.9021
       151        2.0000           -0.4005383             -10.8992
       152        2.0000           -0.3773972             -10.2695
       153        2.0000           -0.3772982             -10.2668
       154        2.0000           -0.3744540             -10.1894
       155        2.0000           -0.3741881             -10.1822
       156        2.0000           -0.3732611             -10.1570
       157        2.0000           -0.3723984             -10.1335
       158        2.0000           -0.3635423              -9.8925
       159        2.0000           -0.3584383              -9.7536 (HOMO)
       160                         -0.2978996              -8.1063 (LUMO)
       161                         -0.2869695              -7.8088
       162                         -0.2867141              -7.8019
       163                         -0.2747338              -7.4759
       164                         -0.2502694              -6.8102
       165                         -0.2473625              -6.7311
       166                         -0.2424581              -6.5976
       167                         -0.2394874              -6.5168
       168                         -0.2293365              -6.2406
       169                         -0.2292381              -6.2379
       170                         -0.2273112              -6.1855
       ...                                ...                  ...
       310                          0.7496896              20.4001
      -------------------------------------------------------------
                  HL-Gap            0.0605387 Eh            1.6473 eV

     #   Z          covCN         q      C6AA      α(0)
     1   6 C        2.920    -0.023    28.573     8.766
     2   6 C        2.918    -0.027    28.675     8.781
     3   6 C        2.924    -0.023    28.582     8.767
     4   6 C        2.984     0.000    28.012     8.682
     5   6 C        2.989     0.203    23.684     7.983
     6   7 N        1.844    -0.291    28.392     7.897
     7   6 C        2.991     0.205    23.646     7.977
     8   6 C        2.986     0.001    28.000     8.680
     9   6 C        2.924    -0.020    28.499     8.755
    10   6 C        2.919    -0.025    28.639     8.776
    11   6 C        2.921    -0.023    28.576     8.766
    12   6 C        2.919    -0.027    28.681     8.782
    13   6 C        2.924    -0.022    28.564     8.765
    14   7 N        1.847    -0.296    28.531     7.916
    15   6 C        2.993     0.211    23.539     7.959
    16   6 C        2.983    -0.007    28.193     8.710
    17   6 C        2.928    -0.039    28.970     8.827
    18   6 C        2.911     0.069    26.448     8.433
    19   7 N        2.802    -0.032    21.851     6.943
    20   6 C        3.079     0.053    26.725     8.475
    21   6 C        2.910    -0.048    29.189     8.859
    22   6 C        2.924    -0.033    28.819     8.804
    23   6 C        2.920    -0.041    29.012     8.833
    24   6 C        2.913    -0.033    28.813     8.802
    25   6 C        3.068    -0.014    28.287     8.721
    26   6 C        3.070    -0.013    28.262     8.717
    27   6 C        2.913    -0.032    28.797     8.800
    28   6 C        2.920    -0.041    29.014     8.833
    29   6 C        2.924    -0.033    28.820     8.804
    30   6 C        2.910    -0.049    29.214     8.863
    31   6 C        3.077     0.052    26.763     8.482
    32   6 C        2.983    -0.007    28.197     8.710
    33   6 C        2.992     0.211    23.544     7.959
    34   7 N        1.846    -0.296    28.527     7.916
    35   6 C        2.991     0.205    23.647     7.977
    36   6 C        2.986     0.001    28.000     8.680
    37   6 C        2.924    -0.020    28.500     8.755
    38   6 C        2.919    -0.025    28.639     8.776
    39   6 C        2.921    -0.023    28.576     8.766
    40   6 C        2.919    -0.027    28.681     8.782
    41   6 C        2.924    -0.022    28.565     8.765
    42   7 N        1.844    -0.291    28.393     7.897
    43   6 C        2.989     0.203    23.685     7.983
    44   6 C        2.984     0.000    28.012     8.682
    45   6 C        2.924    -0.023    28.583     8.767
    46   6 C        2.918    -0.027    28.675     8.781
    47   6 C        2.920    -0.023    28.573     8.766
    48   6 C        2.918    -0.027    28.675     8.781
    49   6 C        2.924    -0.023    28.580     8.767
    50   7 N        1.845    -0.295    28.505     7.913
    51   6 C        2.928    -0.039    28.971     8.827
    52   6 C        2.912     0.069    26.447     8.433
    53   7 N        2.802    -0.032    21.861     6.944
    54   6 C        3.077     0.052    26.760     8.481
    55   6 C        2.910    -0.049    29.214     8.863
    56   6 C        2.924    -0.033    28.820     8.804
    57   6 C        2.920    -0.041    29.014     8.833
    58   6 C        2.913    -0.032    28.796     8.799
    59   6 C        3.070    -0.013    28.263     8.717
    60   6 C        3.068    -0.014    28.290     8.721
    61   6 C        2.913    -0.033    28.814     8.802
    62   6 C        2.920    -0.041    29.012     8.833
    63   6 C        2.924    -0.033    28.818     8.804
    64   6 C        2.910    -0.048    29.194     8.860
    65   6 C        3.079     0.053    26.728     8.476
    66   7 N        1.844    -0.295    28.503     7.912
    67   6 C        2.924    -0.023    28.580     8.767
    68   6 C        2.918    -0.027    28.675     8.781
    69   1 H        0.926     0.038     2.478     2.462
    70   1 H        0.926     0.038     2.476     2.461
    71   1 H        0.926     0.057     2.239     2.340
    72   1 H        0.926     0.053     2.278     2.360
    73   1 H        0.926     0.039     2.464     2.455
    74   1 H        0.926     0.038     2.478     2.462
    75   1 H        0.926     0.038     2.475     2.460
    76   1 H        0.926     0.054     2.275     2.359
    77   1 H        0.926     0.070     2.089     2.260
    78   1 H        0.926     0.020     2.732     2.585
    79   1 H        0.926     0.029     2.600     2.522
    80   1 H        0.926     0.029     2.603     2.523
    81   1 H        0.926     0.030     2.584     2.514
    82   1 H        0.926     0.030     2.581     2.512
    83   1 H        0.926     0.028     2.613     2.528
    84   1 H        0.926     0.030     2.586     2.515
    85   1 H        0.926     0.027     2.624     2.533
    86   1 H        0.926     0.053     2.278     2.360
    87   1 H        0.926     0.039     2.464     2.455
    88   1 H        0.926     0.038     2.479     2.462
    89   1 H        0.926     0.038     2.475     2.460
    90   1 H        0.926     0.054     2.276     2.359
    91   1 H        0.926     0.057     2.239     2.340
    92   1 H        0.926     0.038     2.477     2.461
    93   1 H        0.926     0.038     2.479     2.462
    94   1 H        0.926     0.038     2.474     2.460
    95   1 H        0.926     0.056     2.248     2.345
    96   1 H        0.926     0.070     2.086     2.258
    97   1 H        0.926     0.027     2.623     2.533
    98   1 H        0.926     0.030     2.586     2.515
    99   1 H        0.926     0.028     2.614     2.528
   100   1 H        0.926     0.030     2.581     2.512
   101   1 H        0.926     0.030     2.584     2.514
   102   1 H        0.926     0.029     2.603     2.523
   103   1 H        0.926     0.029     2.601     2.522
   104   1 H        0.926     0.020     2.730     2.584
   105   1 H        0.926     0.056     2.247     2.344
   106   1 H        0.926     0.038     2.474     2.460

molecular dipole:
                 x           y           z       tot (Debye)
 q only:        0.003       0.000       0.024
   full:        0.003       0.000       0.034       0.086

 projected vibrational frequencies (cm⁻¹)
eigval :       -0.00    -0.00    -0.00     0.00     0.00     0.00
eigval :        6.29     9.04    11.59    18.17    18.38    23.95
eigval :       24.94    27.04    27.55    29.45    29.95    47.81
eigval :       50.97    51.51    56.81    64.34    66.61    69.35
eigval :       74.71    84.98    95.22   103.11   104.17   105.33
eigval :      120.89   126.27   130.23   144.21   148.32   152.37
eigval :      162.36   168.28   190.32   192.71   198.32   200.30
eigval :      203.97   205.33   230.05   237.71   257.49   260.51
eigval :      261.45   265.60   276.47   277.42   307.52   310.12
eigval :      351.57   365.17   365.20   367.90   368.48   369.95
eigval :      370.41   378.94   395.43   397.76   404.06   410.84
eigval :      411.85   420.08   423.22   424.54   433.52   435.53
eigval :      438.50   449.12   458.07   481.45   498.12   511.91
eigval :      518.55   520.35   535.05   537.12   541.61   541.69
eigval :      552.28   581.06   586.03   586.74   587.07   587.22
eigval :      588.10   596.16   610.02   613.09   613.18   615.92
eigval :      622.87   626.72   626.94   638.65   641.18   645.96
eigval :      659.89   666.22   671.30   674.09   675.90   675.96
eigval :      680.21   693.54   699.57   708.64   708.84   715.23
eigval :      744.57   753.83   755.15   756.77   760.12   769.48
eigval :      769.69   775.15   775.33   780.38   780.60   794.37
eigval :      794.69   829.35   847.40   847.57   867.66   869.01
eigval :      872.90   873.02   875.71   878.10   878.13   878.69
eigval :      878.78   884.90   894.00   897.88   901.46   901.82
eigval :      902.08   904.99   905.90   912.33   912.38   912.49
eigval :      912.53   921.96   922.08   922.37   922.66   930.88
eigval :      930.90   931.46   931.48   934.32   934.33   935.51
eigval :      935.61   942.87   970.32   978.92   990.62   990.67
eigval :     1012.10  1012.72  1032.70  1045.42  1058.62  1070.18
eigval :     1070.31  1073.58  1073.95  1074.14  1075.49  1075.58
eigval :     1077.41  1083.19  1108.93  1109.04  1109.84  1110.79
eigval :     1113.27  1113.39  1151.51  1152.36  1154.73  1158.98
eigval :     1167.83  1169.12  1172.17  1179.58  1180.23  1180.26
eigval :     1180.95  1181.00  1181.51  1181.56  1184.26  1188.51
eigval :     1190.54  1203.02  1203.10  1209.55  1209.61  1212.20
eigval :     1215.59  1235.93  1237.03  1237.34  1252.70  1269.14
eigval :     1269.66  1270.20  1271.38  1295.26  1298.01  1301.52
eigval :     1303.78  1307.99  1324.04  1328.14  1328.83  1330.04
eigval :     1330.17  1344.45  1358.87  1359.81  1361.53  1362.88
eigval :     1368.81  1373.39  1373.85  1378.69  1379.02  1398.60
eigval :     1414.90  1428.61  1428.84  1432.12  1432.35  1434.20
eigval :     1434.25  1440.85  1441.72  1468.87  1468.99  1469.99
eigval :     1475.30  1475.98  1478.01  1483.12  1488.85  1488.91
eigval :     1508.68  1510.97  1518.06  1524.73  1536.39  1575.07
eigval :     1575.26  1581.34  1583.81  1584.23  1586.03  1586.22
eigval :     1590.45  1591.00  1594.76  1594.81  1596.40  1596.45
eigval :     1599.07  1599.30  1614.94  1615.97  3070.72  3071.02
eigval :     3073.70  3073.72  3075.16  3075.21  3075.30  3075.30
eigval :     3078.90  3078.98  3080.91  3080.96  3081.68  3081.69
eigval :     3081.98  3082.02  3085.78  3085.86  3088.82  3088.88
eigval :     3089.93  3089.97  3090.69  3090.79  3094.36  3094.39
eigval :     3096.07  3096.25  3102.77  3103.11  3104.66  3104.81
eigval :     3106.47  3106.52  3107.45  3107.49  3109.60  3109.66

   temp. (K)  partition function   enthalpy   heat capacity  entropy
                                   cal/mol     cal/K/mol   cal/K/mol   J/K/mol
 298.15  VIB  0.487E+27            31807.114    194.846    201.523
         ROT  0.179E+09              888.752      2.981     40.739
         INT  0.870E+35            32695.867    197.827    242.262
         TR   0.249E+29             1481.254      4.968     46.149
         TOT                       34177.1206   202.7947   288.4106  1206.7101

       T/K    H(0)-H(T)+PV         H(T)/Eh          T*S/Eh         G(T)/Eh
   ------------------------------------------------------------------------
    298.15    0.544647E-01    0.854059E+00    0.137033E+00    0.717026E+00
   ------------------------------------------------------------------------

         :::::::::::::::::::::::::::::::::::::::::::::::::::::
         ::                  THERMODYNAMIC                  ::
         :::::::::::::::::::::::::::::::::::::::::::::::::::::
         :: total free energy        -170.645229407780 Eh   ::
         ::.................................................::
         :: total energy             -171.362255419904 Eh   ::
         :: zero point energy           0.799594505604 Eh   ::
         :: G(RRHO) w/o ZPVE           -0.082568493480 Eh   ::
         :: G(RRHO) contrib.            0.717026012124 Eh   ::
         :::::::::::::::::::::::::::::::::::::::::::::::::::::

           -------------------------------------------------
          | TOTAL ENERGY             -171.362255419904 Eh   |
          | TOTAL ENTHALPY           -170.508196205742 Eh   |
          | TOTAL FREE ENERGY        -170.645229407780 Eh   |
          | GRADIENT NORM               0.000092101470 Eh/α |
          | HOMO-LUMO GAP               1.647340919783 eV   |
           -------------------------------------------------

 * finished run on 2025/08/25 at 01:07:33.465
