   * xtb version 6.7.1 (edcfbbe) compiled by 'albert@albert-system' on 2024-07-22

   ID    Z sym.   atoms
    1    6 C      1-5, 7-13, 15-18, 20-33, 35-41, 43-49, 51, 52, 54-65, 67, 68
    2    7 N      6, 14, 19, 34, 42, 50, 53, 66
    3    1 H      69-106

          program call               : xtb data2507/gas/p2Cz2Trz/p2Cz2Trz_gas_S0_finalOpt.xtbopt.xyz --gfn 2 --spinpol --tblite --uhf 2 --ohess vtight --parallel 40 --molden --ceasefiles --namespace data2507/gas/p2Cz2Trz/p2Cz2Trz_gas_T1_preOpt
 * total energy  :  -171.2938408 Eh     change       -0.2419932E-07 Eh
 * total energy  :  -171.2975609 Eh     change       -0.3720041E-02 Eh
 * total energy  :  -171.2994397 Eh     change       -0.1878878E-02 Eh
 * total energy  :  -171.2996859 Eh     change       -0.2461818E-03 Eh
 * total energy  :  -171.3000200 Eh     change       -0.3340647E-03 Eh
 * total energy  :  -171.3000858 Eh     change       -0.6583837E-04 Eh
 * total energy  :  -171.3001600 Eh     change       -0.7415607E-04 Eh
 * total energy  :  -171.3002135 Eh     change       -0.5353114E-04 Eh
 * total energy  :  -171.3002601 Eh     change       -0.4656198E-04 Eh
 * total energy  :  -171.3003106 Eh     change       -0.5054798E-04 Eh
 * total energy  :  -171.3024662 Eh     change       -0.5196991E-06 Eh
 * total energy  :  -171.3024667 Eh     change       -0.5949674E-06 Eh
 * total energy  :  -171.3024670 Eh     change       -0.2976453E-06 Eh
 * total energy  :  -171.3024677 Eh     change       -0.6621043E-06 Eh
 * total energy  :  -171.3024684 Eh     change       -0.6599555E-06 Eh
 * total energy  :  -171.3024687 Eh     change       -0.3544050E-06 Eh
 * total energy  :  -171.3024694 Eh     change       -0.7170247E-06 Eh
 * total energy  :  -171.3024694 Eh     change        0.3479954E-09 Eh
 * total energy  :  -171.3024695 Eh     change       -0.1729708E-07 Eh
   *** GEOMETRY OPTIMIZATION CONVERGED AFTER 381 ITERATIONS ***

 final structure:
================
106
 xtb: 6.7.1 (edcfbbe)
C            5.15025015094047       -6.65923046805443        0.77254655991754
C            6.15742748674829       -5.75579897730465        0.47116679866431
C            5.85282238404623       -4.42860175257372        0.23954302962034
C            4.53034643835521       -3.99375563595813        0.30900647677557
C            4.20650302744294       -2.58780731889881        0.06511580038133
N            5.22776729048583       -1.74906135897938       -0.16903038659171
C            4.89238843349694       -0.49570869791611       -0.46929675985724
C            5.94591879808832        0.47324551366573       -0.76368397487371
C            5.64694610314906        1.62636857113855       -1.48442360248159
C            6.62949551889817        2.56765773709621       -1.71917860330259
C            7.91237351764505        2.36788802136101       -1.23440630784789
C            8.21554465945959        1.21690387212725       -0.52375575060438
C            7.23874118899790        0.26812043173636       -0.29110834558908
N            3.64818519806811       -0.07003784363060       -0.49051185074649
C            2.67706391469145       -0.92760093437558       -0.12623266790460
C            1.34228324397058       -0.45075826198807        0.01791493977442
C            0.27047856817013       -1.36070963359223        0.07908993530378
C           -1.03574302689986       -0.94196755854989        0.08620846316148
N           -2.06383274533039       -1.88998454750176        0.18125360956369
C           -3.06500417153733       -1.90141402189169        1.13316395353101
C           -3.25835836757994       -1.06022922025434        2.21936897338545
C           -4.37270984605039       -1.27562673082589        3.00842716675148
C           -5.26334887892669       -2.31172142065987        2.74041357515191
C           -5.05053676973890       -3.17939708175871        1.68538462007705
C           -3.94029995033695       -2.98108618083549        0.87893836841844
C           -3.41864325529708       -3.66302661111318       -0.27486930711362
C           -3.83062366010389       -4.77156618295803       -0.99808366834846
C           -3.09176713346226       -5.15185925831296       -2.10391011735100
C           -1.96180953733390       -4.43578280810950       -2.49523200701435
C           -1.53064103698181       -3.32830106863934       -1.79073489770634
C           -2.25923417033217       -2.95102891307153       -0.66944108001630
C           -1.34132202866079        0.44967255151978        0.02059938127358
C           -2.67616001375808        0.92715446191408       -0.12067574082567
N           -3.64768322058848        0.07120944676104       -0.48770956914463
C           -4.89180119478560        0.49691604385648       -0.46363525367555
C           -5.94568618569049       -0.47064703527531       -0.76133775091322
C           -5.64727510631865       -1.62101009121386       -1.48672131851962
C           -6.63016162876698       -2.56110672483081       -1.72480071671986
C           -7.91281386805123       -2.36288413226151       -1.23879614090809
C           -8.21543010534133       -1.21461202574009       -0.52353053532520
C           -7.23827354511143       -0.26702872425621       -0.28749899318225
N           -5.22685319417264        1.74900634490240       -0.15774698714360
C           -4.20529963447282        2.58669775710707        0.07876731974664
C           -4.52869437238667        3.99171956211382        0.32858510251332
C           -5.85133870786590        4.42672304837459        0.26381852165837
C           -6.15548622899370        5.75304904131333        0.50099557585021
C           -5.14764777352604        6.65545237887639        0.80324302046311
C           -3.83027442532268        6.22785533704662        0.86731609731494
C           -3.51871331809221        4.90331893780920        0.63200090183274
N           -2.93933294592634        2.22636759575932        0.11881079341982
C           -0.26947081274120        1.35937632382525        0.08460255122769
C            1.03676868732677        0.94062741337744        0.08919360624733
N            2.06483862166569        1.88836910075881        0.18714659693581
C            2.25945997641446        2.95264377770480       -0.65966085627770
C            1.53003024067855        3.33401266356068       -1.77904364244934
C            1.96051407815111        4.44420773992672       -2.47966587973777
C            3.09059483964844        5.15903081877817       -2.08642581736629
C            3.83029022111324        4.77470558309070       -0.98254454675647
C            3.41903001258885        3.66337385071633       -0.26324934363433
C            3.94165056164296        2.97713397338727        0.88758738597189
C            5.05247244166605        3.17256745869371        1.69390395127783
C            5.26626009186519        2.30091025138919        2.74546286227437
C            4.37600636564483        1.26365793742732        3.01020489794467
C            3.26107564385890        1.05106643187998        2.22119021479222
C            3.06672314129445        1.89635077977041        1.13835625151536
N            2.94052523778322       -2.22774111336290        0.10783757401542
C            3.52103179930758       -4.90639286171010        0.61147539440312
C            3.83305955443014       -6.23178882653095        0.84128317060567
H            5.39149221550484       -7.69655448395606        0.95370285359672
H            7.18322767896397       -6.09028143916841        0.41679759218980
H            6.62355870488567       -3.71241973249022        0.00076758342326
H            4.64540779531806        1.76553411776030       -1.86097417355860
H            6.39290943866191        3.46033242350551       -2.27948611485560
H            8.67883410747993        3.10800775858929       -1.41350881240611
H            9.21731289254431        1.06216272259439       -0.15024232578596
H            7.45415248552723       -0.63159507811758        0.26438838645913
H            0.50707152426850       -2.41287638891601        0.11858634602320
H           -2.57159284917312       -0.25444191989582        2.43214690155090
H           -4.55690434547688       -0.62442637106107        3.85010415629102
H           -6.12855050583580       -2.44035728260244        3.37335947033819
H           -5.73518265472289       -3.98990278133482        1.48695793433674
H           -4.71198388256588       -5.32050595889754       -0.70294360669827
H           -3.39507008919996       -6.01318256603309       -2.68043117258039
H           -1.41303157081271       -4.75285384536531       -3.36951351781027
H           -0.66132588669052       -2.77056730771233       -2.10364305670807
H           -4.64592773018111       -1.75893799015218       -1.86419713476547
H           -6.39402422855344       -3.45164003216390       -2.28869156540152
H           -8.67955306857082       -3.10209147851512       -1.42053797238469
H           -9.21702560427423       -1.06105743053322       -0.14908555271636
H           -7.45322838730716        0.63056646755465        0.27158473256866
H           -6.62259252026675        3.71135613985502        0.02426985271280
H           -7.18142937511171        6.08765244160576        0.45029022349929
H           -5.38851959626718        7.69210873366412        0.98870407909797
H           -3.04550504179909        6.93210864657244        1.10248810440507
H           -2.49920246393752        4.55411073661549        0.67998139550695
H           -0.50605344000600        2.41136937042730        0.12837564500352
H            0.66061026434841        2.77728651589502       -2.09344989799127
H            1.41108486619619        4.76444883042411       -3.35238400087899
H            3.39333628878826        6.02258106268002       -2.65990373955016
H            4.71174752519339        5.32270475411841       -0.68594701190063
H            5.73683505143378        3.98393703631933        1.49802736074006
H            6.13193762297202        2.42727882009340        3.37821156250199
H            4.56096738047475        0.60928456499597        3.84925492695790
H            2.57462428656038        0.24434099007843        2.43142290881128
H            2.50165757044039       -4.55728532910553        0.66313551410575
H            3.04880732932208       -6.93683718140727        1.07579092522246

 projected vibrational frequencies (cm⁻¹)
eigval :       -0.00    -0.00     0.00     0.00     0.00     0.00
eigval :        8.01    11.41    12.22    17.97    19.30    23.43
eigval :       24.88    25.03    26.32    27.10    28.33    46.20
eigval :       49.68    52.84    55.15    63.16    69.31    73.00
eigval :       75.04    90.14    96.40   104.63   109.18   110.29
eigval :      120.82   121.94   127.67   141.26   144.88   148.77
eigval :      164.94   167.00   187.09   193.93   195.57   199.88
eigval :      217.52   218.69   229.21   234.55   245.50   255.18
eigval :      257.42   261.88   272.99   273.41   301.04   307.35
eigval :      348.54   358.20   364.58   365.38   365.72   370.37
eigval :      372.46   373.01   390.58   394.07   395.76   398.25
eigval :      411.16   417.57   419.85   420.76   425.30   431.14
eigval :      431.45   436.47   449.72   479.62   482.97   512.72
eigval :      516.37   518.85   536.74   536.98   538.54   539.08
eigval :      550.57   560.91   572.70   583.94   584.43   585.90
eigval :      587.81   588.33   588.73   589.00   592.19   602.65
eigval :      616.36   617.77   620.38   620.95   629.98   634.44
eigval :      654.59   661.65   666.51   671.04   672.59   673.40
eigval :      674.55   675.46   681.95   689.66   708.08   709.31
eigval :      727.35   728.02   729.67   754.85   755.75   767.15
eigval :      767.97   769.87   770.44   773.80   774.10   777.77
eigval :      777.83   797.84   824.50   825.05   855.57   862.75
eigval :      866.03   868.65   868.92   875.27   876.05   877.16
eigval :      878.69   879.38   881.57   894.95   899.84   900.70
eigval :      901.06   904.23   904.35   908.40   908.40   909.33
eigval :      909.35   919.63   919.94   921.14   921.19   927.40
eigval :      929.74   929.75   929.94   930.19   932.24   932.25
eigval :      934.88   935.13   961.62   967.00   986.93   987.08
eigval :      998.93  1008.28  1011.71  1011.99  1035.72  1063.18
eigval :     1066.60  1066.67  1070.85  1071.24  1075.70  1075.79
eigval :     1076.70  1077.04  1101.21  1102.76  1109.33  1109.85
eigval :     1112.59  1112.94  1143.88  1144.56  1149.79  1151.39
eigval :     1160.81  1163.96  1168.62  1176.22  1178.99  1179.16
eigval :     1179.82  1180.18  1180.35  1180.52  1180.58  1185.89
eigval :     1187.23  1192.42  1192.91  1201.41  1206.09  1228.41
eigval :     1231.26  1231.62  1240.11  1245.53  1249.07  1267.80
eigval :     1269.15  1269.59  1271.28  1271.63  1283.20  1288.88
eigval :     1291.20  1294.27  1298.43  1299.77  1318.48  1328.04
eigval :     1328.84  1329.53  1329.54  1345.03  1345.99  1347.18
eigval :     1349.58  1359.03  1359.77  1363.41  1366.28  1373.42
eigval :     1385.24  1392.13  1411.27  1413.00  1417.54  1423.87
eigval :     1429.95  1433.60  1433.79  1434.67  1436.68  1441.45
eigval :     1464.78  1465.18  1467.47  1469.59  1470.42  1474.85
eigval :     1478.40  1484.71  1484.75  1507.10  1516.53  1557.44
eigval :     1568.87  1569.66  1581.73  1581.81  1582.54  1583.50
eigval :     1584.77  1584.94  1585.79  1585.96  1591.72  1593.18
eigval :     1595.16  1596.13  1604.56  1605.91  3073.02  3073.07
eigval :     3073.19  3073.22  3078.41  3078.49  3078.94  3078.96
eigval :     3079.18  3079.21  3079.96  3080.01  3083.37  3083.40
eigval :     3085.85  3085.88  3088.17  3088.25  3088.78  3088.96
eigval :     3090.20  3090.26  3093.17  3093.26  3097.54  3097.63
eigval :     3098.87  3098.99  3100.90  3101.02  3101.83  3102.21
eigval :     3102.30  3102.66  3104.82  3104.84  3106.06  3106.14

   temp. (K)  partition function   enthalpy   heat capacity  entropy
                                   cal/mol     cal/K/mol   cal/K/mol   J/K/mol
 298.15  VIB  0.432E+27            32070.318    196.728    202.304
         ROT  0.901E+08              888.752      2.981     39.380
         INT  0.389E+35            32959.070    199.709    241.684
         TR   0.249E+29             1481.254      4.968     46.149
         TOT                       34440.3243   204.6769   287.8325  1204.2911

       T/K    H(0)-H(T)+PV         H(T)/Eh          T*S/Eh         G(T)/Eh
   ------------------------------------------------------------------------
    298.15    0.548842E-01    0.850227E+00    0.136758E+00    0.713469E+00
   ------------------------------------------------------------------------

         :::::::::::::::::::::::::::::::::::::::::::::::::::::
         ::                  THERMODYNAMIC                  ::
         :::::::::::::::::::::::::::::::::::::::::::::::::::::
         :: total free energy        -170.589000907155 Eh   ::
         ::.................................................::
         :: total energy             -171.302469455736 Eh   ::
         :: zero point energy           0.795342893753 Eh   ::
         :: G(RRHO) w/o ZPVE           -0.081874345172 Eh   ::
         :: G(RRHO) contrib.            0.713468548581 Eh   ::
         :::::::::::::::::::::::::::::::::::::::::::::::::::::

           -------------------------------------------------
          | TOTAL ENERGY             -171.302469455736 Eh   |
          | TOTAL ENTHALPY           -170.452242411705 Eh   |
          | TOTAL FREE ENERGY        -170.589000907155 Eh   |
          | GRADIENT NORM               0.000099658733 Eh/α |
           -------------------------------------------------

 * finished run on 2025/08/25 at 01:09:00.976
