   * xtb version 6.7.1 (edcfbbe) compiled by 'albert@albert-system' on 2024-07-22

   ID    Z sym.   atoms
    1    6 C      1-5, 7-13, 15-18, 20-33, 35-41, 43-49, 51, 52, 54-65, 67, 68
    2    7 N      6, 14, 19, 34, 42, 50, 53, 66
    3    1 H      69-106

          program call               : xtb data2507/gas/p2Cz2Trz/p2Cz2Trz_gas_T1_crest.xyz --gfn 2 --spinpol --tblite --uhf 2 --ohess vtight --parallel 40 --molden --ceasefiles --namespace data2507/gas/p2Cz2Trz/p2Cz2Trz_gas_T1_finalOpt
 * total energy  :  -171.3043673 Eh     change       -0.2013277E-07 Eh
 * total energy  :  -171.3043781 Eh     change       -0.1081990E-04 Eh
 * total energy  :  -171.3043841 Eh     change       -0.6064118E-05 Eh
 * total energy  :  -171.3043863 Eh     change       -0.2161432E-05 Eh
 * total energy  :  -171.3043893 Eh     change       -0.3000491E-05 Eh
 * total energy  :  -171.3043913 Eh     change       -0.2038466E-05 Eh
 * total energy  :  -171.3043934 Eh     change       -0.2065493E-05 Eh
 * total energy  :  -171.3043955 Eh     change       -0.2113934E-05 Eh
 * total energy  :  -171.3043975 Eh     change       -0.2003354E-05 Eh
 * total energy  :  -171.3043997 Eh     change       -0.2180980E-05 Eh
 * total energy  :  -171.3044303 Eh     change       -0.2029865E-06 Eh
 * total energy  :  -171.3044305 Eh     change       -0.1947877E-06 Eh
 * total energy  :  -171.3044306 Eh     change       -0.1123115E-06 Eh
 * total energy  :  -171.3044308 Eh     change       -0.2544338E-06 Eh
 * total energy  :  -171.3044311 Eh     change       -0.2633346E-06 Eh
 * total energy  :  -171.3044314 Eh     change       -0.2432170E-06 Eh
 * total energy  :  -171.3044318 Eh     change       -0.4046311E-06 Eh
 * total energy  :  -171.3044322 Eh     change       -0.4406504E-06 Eh
 * total energy  :  -171.3044323 Eh     change       -0.7375354E-07 Eh
   *** GEOMETRY OPTIMIZATION CONVERGED AFTER 44 ITERATIONS ***

 final structure:
================
106
 xtb: 6.7.1 (edcfbbe)
C            5.15863418274627       -6.66374310511926        0.20801832615024
C            6.16148978261181       -5.73044020404410        0.41930017270046
C            5.85786175584155       -4.38369001581436        0.46520479891976
C            4.54060389568538       -3.95956149630116        0.29963653362153
C            4.21609314931023       -2.53375369528516        0.34957617873587
N            5.23424482548491       -1.66767280688263        0.46264243229009
C            4.89782543490980       -0.38437741204210        0.57864019393335
C            5.95026196676364        0.62059169637039        0.70935710033609
C            5.65031255951269        1.87756221479255        1.22796544458946
C            6.63069908064571        2.84725550553379        1.29838310377983
C            7.91281507070773        2.57220388595472        0.84965724629057
C            8.21727306159032        1.31911694546958        0.34098242137929
C            7.24248993661000        0.34260087905223        0.27344510628709
N            3.65134761845868        0.03803483554636        0.55197059362587
C            2.68575126887626       -0.86740223900767        0.31976343656353
C            1.34470472486778       -0.42761473074499        0.10865374941180
C            0.28122789374718       -1.33195958414428        0.25792713894379
C           -1.03133913124713       -0.93398115744192        0.18131333238617
N           -2.04756069978492       -1.86024853010505        0.42781876118810
C           -3.06348156534748       -1.72445120583414        1.35586484379704
C           -3.28336789533850       -0.71511347119972        2.28178289174907
C           -4.40438314609664       -0.81231720147678        3.08462281932224
C           -5.27453616582618       -1.89490340187476        2.98902406945874
C           -5.03237223907767       -2.92725116191534        2.10215420253784
C           -3.91527411896800       -2.84909785286750        1.28476973583390
C           -3.36184215874078       -3.71494623311193        0.27769551039153
C           -3.74120386310413       -4.94304209448449       -0.24097395450263
C           -2.97170292301074       -5.50321746172986       -1.24500574424693
C           -1.84447007310055       -4.84876130497244       -1.73760279432482
C           -1.44752223985946       -3.62264392045170       -1.23869113204276
C           -2.20680229815049       -3.06340860236283       -0.21883438379764
C           -1.34542607727486        0.42902316171310       -0.10632454965558
C           -2.68617124970414        0.86800078647244       -0.31997759989190
N           -3.65206639668502       -0.03848708562958       -0.54721675055795
C           -4.89850250445166        0.38380697373112       -0.57584644903687
C           -5.95100481149618       -0.62217252535670       -0.69826384933422
C           -5.65209494711859       -1.88204660474926       -1.21032726678940
C           -6.63216642678959       -2.85269397071703       -1.27153570702255
C           -7.91287225215413       -2.57568083393673       -0.82002810412100
C           -8.21638677393090       -1.31963652986194       -0.31813475168174
C           -7.24196067104769       -0.34216515152066       -0.25989973303618
N           -5.23470994152458        1.66787839448694       -0.46856534321579
C           -4.21628287328710        2.53449201616126       -0.36125911888464
C           -4.54038190468247        3.96075222192845       -0.32266777529414
C           -3.53516024209407        4.90461324316972       -0.11785567724634
C           -3.84584695210032        6.24964711914443       -0.08416761256470
C           -5.15749343035542        6.66583423367137       -0.25407580845102
C           -6.16054977965045        5.73115097501100       -0.45817852620414
C           -5.85738546271618        4.38395173709824       -0.49261424287279
N           -2.94856334438392        2.18770427469016       -0.26759397014673
C           -0.28188749956310        1.33351172812990       -0.25498032855400
C            1.03064839976869        0.93571140902393       -0.17733835607563
N            2.04713490525995        1.86244559808261       -0.42113224911622
C            3.06458063523490        1.72800917011498       -1.34761033560671
C            3.28451830239657        0.72126611311435       -2.27635329329045
C            4.40724877964702        0.81915474232013       -3.07671073628838
C            5.27904668978170        1.89994101813261       -2.97590079269350
C            5.03695054834587        2.92984184265926       -2.08613690231424
C            3.91813721562461        2.85098811642745       -1.27119737634156
C            3.36424767889405        3.71440034246717       -0.26226817567643
C            3.74487882815307        4.93992977615493        0.26149650861995
C            2.97444432648589        5.49798159522132        1.26600551001818
C            1.84496502402930        4.84395550988236        1.75398606599250
C            1.44676754581993        3.62031357509263        1.25000931252232
C            2.20712826894175        3.06317995726384        0.22982364838111
N            2.94811362069942       -2.18671853372702        0.25944588308690
C            3.53556984954965       -4.90204092743775        0.08763568579652
C            3.84671860909332       -6.24663138402782        0.04249900923571
H            5.39916531907866       -7.71635393479606        0.17260361306380
H            7.18309772369233       -6.05690288745787        0.54915335128896
H            6.62508378370104       -3.64364744183459        0.63178761612091
H            4.64922461821617        2.07523065024600        1.57863425795238
H            6.39333871287272        3.82085126468770        1.70168364509793
H            8.67759058108562        3.33379182817750        0.89938730168558
H            9.21842460631257        1.10643133455412       -0.00471436718301
H            7.45862678278139       -0.63676619036911       -0.12482951396932
H            0.52378391742695       -2.35133516876527        0.51643225754160
H           -2.61140698001904        0.12633732750706        2.36244882445821
H           -4.60947243312034       -0.03067595411689        3.80109650315879
H           -6.14575592690746       -1.92912321544824        3.62577373863962
H           -5.69911004623754       -3.77379087190055        2.04093221698411
H           -4.62023350133699       -5.44651162577142        0.13185194809108
H           -3.24901870519029       -6.46038033055974       -1.66112022108732
H           -1.27082410779838       -5.30870863836360       -2.52846537149547
H           -0.58092130539865       -3.11355524025608       -1.63163780160120
H           -4.65211661849569       -2.08129882573040       -1.56326242946544
H           -6.39559227907216       -3.82857897636000       -1.66973076962120
H           -8.67729619465764       -3.33807062780703       -0.86226616328160
H           -9.21646464704737       -1.10541737891348        0.02971565816551
H           -7.45732936767833        0.63950983332855        0.13308727810947
H           -2.52006294831231        4.56393772418387        0.01406272541645
H           -3.06482857900947        6.97902175220517        0.07471153762280
H           -5.39764960747242        7.71879647474900       -0.22769917848946
H           -7.18195318529798        6.05688106711491       -0.59144004672131
H           -6.62476661172637        3.64282739505949       -0.65356854898614
H           -0.52440393664084        2.35292576990138       -0.51335577841674
H            2.61130136006068       -0.11880094662450       -2.36094418913625
H            4.61241524042062        0.03947006188940       -3.79529006675835
H            6.15156079768152        1.93472898292818       -3.61084394836452
H            5.70505749608426        3.77500116065937       -2.02087340792760
H            4.62563958414630        5.44301834978366       -0.10773467953023
H            3.25275386815805        6.45311778750221        1.68609715471739
H            1.27052603139903        5.30224902256075        2.54523406818862
H            0.57837978315360        3.11149938195501        1.63935967388261
H            2.52028223315484       -4.56059670361009       -0.04080553762425
H            3.06587074485254       -6.97494251822136       -0.12199531240768

 projected vibrational frequencies (cm⁻¹)
eigval :       -0.00    -0.00    -0.00     0.00     0.00     0.00
eigval :        9.10    11.94    13.96    17.48    20.89    23.49
eigval :       24.79    28.28    29.68    29.82    30.49    46.01
eigval :       49.64    53.91    55.67    61.78    69.18    73.55
eigval :       75.80    92.96    93.98   104.40   109.20   110.63
eigval :      115.24   121.89   136.95   139.61   147.57   152.75
eigval :      158.60   171.35   187.73   195.12   195.91   201.47
eigval :      218.77   220.52   221.96   242.86   245.93   256.85
eigval :      257.49   266.78   274.48   274.69   298.24   308.90
eigval :      354.26   359.03   365.89   366.01   368.24   368.32
eigval :      372.41   372.64   390.02   394.84   398.64   407.60
eigval :      408.61   420.33   420.37   423.00   426.34   432.05
eigval :      434.08   434.20   450.13   484.84   485.73   513.39
eigval :      516.21   518.99   537.81   538.22   540.77   545.12
eigval :      550.44   565.48   571.18   584.64   585.66   586.63
eigval :      587.42   587.84   588.81   592.41   593.55   605.56
eigval :      615.21   617.03   620.67   621.13   631.58   638.72
eigval :      653.51   660.50   667.13   669.70   673.32   673.59
eigval :      674.12   676.12   684.39   689.46   708.41   709.50
eigval :      728.53   729.96   732.16   754.94   756.07   767.83
eigval :      768.02   770.54   770.87   774.55   774.76   778.14
eigval :      778.28   801.13   826.97   829.11   858.74   862.21
eigval :      865.90   869.09   869.22   876.13   877.40   877.75
eigval :      879.15   879.61   882.65   897.70   898.54   900.96
eigval :      901.19   904.72   904.78   909.13   909.17   909.66
eigval :      909.68   919.86   919.98   921.48   921.51   928.72
eigval :      930.20   930.49   930.55   930.70   932.76   932.77
eigval :      934.91   935.02   962.25   969.79   987.23   987.71
eigval :     1002.31  1010.09  1012.31  1012.51  1037.17  1064.00
eigval :     1067.03  1067.25  1071.39  1071.75  1075.89  1076.01
eigval :     1076.85  1076.91  1102.46  1103.01  1109.75  1110.00
eigval :     1112.51  1112.73  1144.53  1144.73  1150.68  1154.34
eigval :     1161.97  1165.38  1169.70  1176.43  1179.32  1179.41
eigval :     1180.04  1180.31  1180.64  1180.72  1180.86  1186.03
eigval :     1187.04  1193.79  1194.86  1201.58  1211.25  1229.65
eigval :     1231.15  1231.31  1240.52  1245.18  1248.78  1267.75
eigval :     1269.34  1270.62  1271.44  1272.27  1283.53  1288.56
eigval :     1291.85  1293.77  1301.27  1303.22  1320.84  1328.34
eigval :     1328.96  1329.57  1329.57  1344.72  1346.79  1349.76
eigval :     1350.01  1358.56  1360.95  1362.33  1367.68  1377.28
eigval :     1384.09  1391.96  1406.83  1413.63  1416.96  1423.49
eigval :     1425.73  1433.18  1433.72  1434.55  1436.57  1438.99
eigval :     1464.55  1465.16  1467.56  1470.12  1470.27  1474.93
eigval :     1478.18  1484.35  1484.37  1506.25  1513.57  1549.72
eigval :     1570.35  1570.80  1581.84  1581.90  1583.06  1584.12
eigval :     1584.63  1585.01  1586.64  1586.73  1591.81  1593.11
eigval :     1595.18  1596.03  1604.27  1605.97  3072.34  3072.35
eigval :     3072.53  3072.54  3078.32  3078.32  3078.62  3078.65
eigval :     3079.09  3079.09  3079.45  3079.48  3083.73  3083.77
eigval :     3085.93  3086.02  3087.58  3087.67  3088.20  3088.45
eigval :     3090.39  3090.52  3093.36  3093.55  3097.45  3097.49
eigval :     3098.15  3099.14  3100.15  3100.56  3100.72  3100.74
eigval :     3102.00  3102.09  3104.06  3104.08  3104.82  3104.87

   temp. (K)  partition function   enthalpy   heat capacity  entropy
                                   cal/mol     cal/K/mol   cal/K/mol   J/K/mol
 298.15  VIB  0.184E+27            31984.393    196.622    201.330
         ROT  0.180E+09              888.752      2.981     40.752
         INT  0.330E+35            32873.146    199.603    242.082
         TR   0.249E+29             1481.254      4.968     46.149
         TOT                       34354.3997   204.5713   288.2308  1205.9575

       T/K    H(0)-H(T)+PV         H(T)/Eh          T*S/Eh         G(T)/Eh
   ------------------------------------------------------------------------
    298.15    0.547472E-01    0.850463E+00    0.136948E+00    0.713515E+00
   ------------------------------------------------------------------------

         :::::::::::::::::::::::::::::::::::::::::::::::::::::
         ::                  THERMODYNAMIC                  ::
         :::::::::::::::::::::::::::::::::::::::::::::::::::::
         :: total free energy        -170.590917057901 Eh   ::
         ::.................................................::
         :: total energy             -171.304432302512 Eh   ::
         :: zero point energy           0.795715757838 Eh   ::
         :: G(RRHO) w/o ZPVE           -0.082200513227 Eh   ::
         :: G(RRHO) contrib.            0.713515244611 Eh   ::
         :::::::::::::::::::::::::::::::::::::::::::::::::::::

           -------------------------------------------------
          | TOTAL ENERGY             -171.304432302512 Eh   |
          | TOTAL ENTHALPY           -170.453969323890 Eh   |
          | TOTAL FREE ENERGY        -170.590917057901 Eh   |
          | GRADIENT NORM               0.000100541975 Eh/α |
           -------------------------------------------------

 * finished run on 2025/08/25 at 01:21:05.233
