   * xtb version 6.7.1 (edcfbbe) compiled by 'albert@albert-system' on 2024-07-22

   ID    Z sym.   atoms
    1    6 C      1-5, 7-13, 15-18, 20-33, 35-41, 43-49, 51, 52, 54-65, 67, 68
    2    7 N      6, 14, 19, 34, 42, 50, 53, 66
    3    1 H      69-106

          program call               : xtb data2507/gas/p2Cz2Trz/p2Cz2Trz.xyz --gfn 2 --ohess vtight --parallel 40 --molden --ceasefiles --namespace data2507/gas/p2Cz2Trz/p2Cz2Trz_gas_S0_preOpt
          :  Hamiltonian                  GFN2-xTB          :
 * total energy  :  -171.3282007 Eh     change       -0.4384077E-08 Eh
 * total energy  :  -171.3463217 Eh     change       -0.1812095E-01 Eh
 * total energy  :  -171.3521694 Eh     change       -0.5847691E-02 Eh
 * total energy  :  -171.3544345 Eh     change       -0.2265118E-02 Eh
 * total energy  :  -171.3557394 Eh     change       -0.1304889E-02 Eh
 * total energy  :  -171.3561857 Eh     change       -0.4462778E-03 Eh
 * total energy  :  -171.3564384 Eh     change       -0.2527630E-03 Eh
 * total energy  :  -171.3567196 Eh     change       -0.2811537E-03 Eh
 * total energy  :  -171.3570339 Eh     change       -0.3142829E-03 Eh
 * total energy  :  -171.3573512 Eh     change       -0.3173601E-03 Eh
 * total energy  :  -171.3622260 Eh     change       -0.1282523E-06 Eh
 * total energy  :  -171.3622261 Eh     change       -0.1322776E-06 Eh
 * total energy  :  -171.3622262 Eh     change       -0.1471201E-06 Eh
 * total energy  :  -171.3622264 Eh     change       -0.1565177E-06 Eh
 * total energy  :  -171.3622266 Eh     change       -0.1675243E-06 Eh
 * total energy  :  -171.3622267 Eh     change       -0.1715368E-06 Eh
 * total energy  :  -171.3622269 Eh     change       -0.1718672E-06 Eh
 * total energy  :  -171.3622271 Eh     change       -0.1654072E-06 Eh
 * total energy  :  -171.3622271 Eh     change       -0.1027445E-08 Eh
   *** GEOMETRY OPTIMIZATION CONVERGED AFTER 122 ITERATIONS ***

 final structure:
================
106
 xtb: 6.7.1 (edcfbbe)
C            5.72672501354493       -5.75656945835316        2.31586279537137
C            6.64463836656934       -4.91535203629148        1.70573934506558
C            6.22312330694612       -3.73669293701387        1.12208974507720
C            4.87303896874575       -3.39122790471488        1.14635294186169
C            4.42403083658033       -2.14529595170376        0.52889523550938
N            5.34243710125571       -1.33031488805644        0.01847827229659
C            4.88216498616012       -0.26315559776147       -0.62406517085624
C            5.83358247066101        0.68699273999791       -1.19280474989433
C            5.39338466384390        1.66296719655415       -2.08407880385432
C            6.28157208508849        2.60023991088311       -2.57302689321861
C            7.60890026271617        2.57344484675029       -2.17455396948883
C            8.05142757727268        1.60041313159566       -1.29152537338559
C            7.16994096095135        0.65647121620670       -0.80214646550756
N            3.58974029978001        0.03039351384356       -0.74049694032604
C            2.75947479570878       -0.75711854274706       -0.07178202516991
C            1.34928539038261       -0.35302223656345        0.00610848594127
C            0.36712174695084       -1.33322055575853        0.04795102505205
C           -0.98130831082680       -1.00265097785668        0.04627548051759
N           -1.94319007199742       -2.01668490068474        0.09514559007414
C           -3.04080607096806       -2.04345610302185        0.93356040168072
C           -3.32186902554329       -1.25631417111708        2.04129800550610
C           -4.51740254302798       -1.47277395693082        2.69819315348410
C           -5.40615712564103       -2.46219796402702        2.28236597153403
C           -5.10885754101682       -3.27962807485396        1.21081176840591
C           -3.91485114942500       -3.07719807892478        0.53214454605146
C           -3.30534210106268       -3.70529611576682       -0.60648237870683
C           -3.68741458050604       -4.75029952571504       -1.43640707141534
C           -2.86905128004505       -5.08533505760535       -2.49701638894354
C           -1.68980647115125       -4.38518364702792       -2.74034617633411
C           -1.28815904364407       -3.34209761956025       -1.92684198579850
C           -2.09677211437386       -3.01412656056326       -0.84933856239731
C           -1.34939235759302        0.35288714955281        0.00976252699893
C           -2.75970605685293        0.75727660786646       -0.06419039544980
N           -3.59136979691238       -0.02826188653251       -0.73348666363529
C           -4.88353303367735        0.26507861844424       -0.61367571164665
C           -5.83614838338939       -0.68339451804570       -1.18320744807109
C           -5.39780284095823       -1.65680960241674       -2.07818549810364
C           -6.28700884450330       -2.59266705835734       -2.56799148711454
C           -7.61351086443186       -2.56700850787951       -2.16670299679637
C           -8.05420388205617       -1.59650919760795       -1.27997819530976
C           -7.17169910318836       -0.65397781434561       -0.78971525609493
N           -5.34243662533890        1.33047263420266        0.03276601937399
C           -4.42294136767745        2.14391722085432        0.54367757878247
C           -4.87058259480384        3.38814766626594        1.16554495061385
C           -6.22066805490187        3.73384321746491        1.14493827002998
C           -6.64087270895689        4.91089874076607        1.73275574210231
C           -5.72164446468379        5.75027562745835        2.34343412021614
C           -4.37768898872123        5.41071816849688        2.36602751368468
C           -3.95005330457340        4.23505532689922        1.78057080147518
N           -3.11743906801083        1.87674516387361        0.54982416725071
C           -0.36714270180607        1.33295581182799        0.05273981014021
C            0.98127432432722        1.00239632816013        0.04748184688230
N            1.94326353644516        2.01626880202558        0.09761617773313
C            2.09510903229323        3.01652626450239       -0.84416801043221
C            1.28443166102112        3.34780173504209       -1.91910535065600
C            1.68460208779161        4.39328128394075       -2.73026131475018
C            2.86438941525230        5.09258686291402       -2.48712989583750
C            3.68477816557177        4.75430170014335       -1.42912027149364
C            3.30421588393781        3.70685221978063       -0.60158881798662
C            3.91588125436359        3.07527642017286        0.53395424482072
C            5.11124079953525        3.27553054908255        1.21088256226859
C            5.41055111730415        2.45484069648823        2.27938156703088
C            4.52250231362429        1.46426497755121        2.69397201854823
C            3.32565693773186        1.24991287232635        2.03877534276849
C            3.04251361024242        2.04041940451536        0.93396779330265
N            3.11851221383932       -1.87828801929737        0.53834989542075
C            3.95383411675663       -4.23998745831818        1.76080499446525
C            4.38277576004026       -5.41724763574848        2.34208326462338
H            6.05932410245861       -6.67783732938908        2.77151593636830
H            7.69098194716917       -5.18276576684732        1.68635740030107
H            6.92085913389773       -3.06995887649232        0.64016972504228
H            4.35642934661434        1.67313395154338       -2.38041340001154
H            5.93660058608960        3.35737833556919       -3.26155527520867
H            8.30099146481068        3.31197230053244       -2.55271104576357
H            9.08664803033046        1.58260999907791       -0.98341434209483
H            7.49214442029746       -0.10265293014006       -0.10663925057710
H            0.66984595452672       -2.36890887464062        0.07438513621003
H           -2.63843547818667       -0.48688333724524        2.37141322341241
H           -4.76959436373168       -0.85876067302478        3.55047636186504
H           -6.33677078656880       -2.59115559977653        2.81461476850992
H           -5.79157930022500       -4.05474049754704        0.89703067800559
H           -4.60972610445040       -5.28122494822463       -1.25486930778286
H           -3.14622521527002       -5.89593395904738       -3.15478231510586
H           -1.07650422825723       -4.66124224650168       -3.58558145361922
H           -0.38024506445841       -2.79591645263899       -2.13416602798653
H           -4.36146003400267       -1.66613594747055       -2.37668330781019
H           -5.94346775563533       -3.34782683488764       -3.25940233410520
H           -8.30639060280543       -3.30444212298339       -2.54554991961735
H           -9.08878672812291       -1.57958167694208       -0.96968468120095
H           -7.49245918239964        0.10315041730262       -0.09137078875318
H           -6.91944371940294        3.06856454270341        0.66251335478895
H           -7.68721891733862        5.17849278374942        1.71621124757695
H           -6.05322339201570        6.67028373556108        2.80236448243029
H           -3.66371669150840        6.06631805563980        2.84265973185569
H           -2.90895513633818        3.95259633137653        1.79105379183545
H           -0.66981779091077        2.36855536117953        0.08292775532740
H            0.37606026544719        2.80233084377023       -2.12629494496850
H            1.06968411725029        4.67192937620699       -3.57347070665835
H            3.14036718580496        5.90512417711717       -3.14300495680256
H            4.60749699961366        5.28459019430874       -1.24779070753759
H            5.79343178762916        4.05151388872229        0.89810043683345
H            6.34222376919377        2.58209225123447        2.81018703204204
H            4.77630094191038        0.84765322902522        3.54389927097177
H            2.64278772720682        0.47956062336455        2.36790668598694
H            2.91272531023911       -3.95768819686076        1.77415729356249
H            3.66983181017242       -6.07428519263557        2.81827474974312

          :  Hamiltonian                  GFN2-xTB          :
         :: gradient norm              0.000025517604 Eh/a0 ::
         :: HOMO-LUMO gap              1.665986679720 eV    ::
         :: SCC energy              -174.493829431856 Eh    ::
         :: -> dispersion             -0.176082916031 Eh    ::
         :: repulsion energy           3.131602367926 Eh    ::

    * Orbital Energies and Occupations

         #    Occupation            Energy/Eh            Energy/eV
      -------------------------------------------------------------
         1        2.0000           -0.6870398             -18.6953
       ...           ...                  ...                  ...
       147        2.0000           -0.4082898             -11.1101
       148        2.0000           -0.4068693             -11.0715
       149        2.0000           -0.4067231             -11.0675
       150        2.0000           -0.4006671             -10.9027
       151        2.0000           -0.4005910             -10.9006
       152        2.0000           -0.3771581             -10.2630
       153        2.0000           -0.3770962             -10.2613
       154        2.0000           -0.3745287             -10.1914
       155        2.0000           -0.3743138             -10.1856
       156        2.0000           -0.3734180             -10.1612
       157        2.0000           -0.3725889             -10.1387
       158        2.0000           -0.3635383              -9.8924
       159        2.0000           -0.3585046              -9.7554 (HOMO)
       160                         -0.2972807              -8.0894 (LUMO)
       161                         -0.2871063              -7.8126
       162                         -0.2868447              -7.8054
       163                         -0.2748576              -7.4793
       164                         -0.2503550              -6.8125
       165                         -0.2473906              -6.7318
       166                         -0.2424469              -6.5973
       167                         -0.2395244              -6.5178
       168                         -0.2293599              -6.2412
       169                         -0.2292631              -6.2386
       170                         -0.2273315              -6.1860
       ...                                ...                  ...
       310                          0.7497732              20.4024
      -------------------------------------------------------------
                  HL-Gap            0.0612239 Eh            1.6660 eV

     #   Z          covCN         q      C6AA      α(0)
     1   6 C        2.920    -0.023    28.573     8.766
     2   6 C        2.918    -0.027    28.675     8.781
     3   6 C        2.924    -0.023    28.581     8.767
     4   6 C        2.984     0.000    28.011     8.682
     5   6 C        2.989     0.204    23.682     7.983
     6   7 N        1.844    -0.291    28.390     7.897
     7   6 C        2.991     0.205    23.645     7.976
     8   6 C        2.986     0.001    28.000     8.680
     9   6 C        2.924    -0.020    28.499     8.755
    10   6 C        2.919    -0.025    28.639     8.776
    11   6 C        2.921    -0.023    28.575     8.766
    12   6 C        2.919    -0.027    28.681     8.782
    13   6 C        2.924    -0.022    28.564     8.764
    14   7 N        1.847    -0.297    28.537     7.917
    15   6 C        2.993     0.211    23.532     7.957
    16   6 C        2.983    -0.007    28.190     8.709
    17   6 C        2.927    -0.039    28.964     8.826
    18   6 C        2.912     0.070    26.444     8.432
    19   7 N        2.802    -0.033    21.878     6.947
    20   6 C        3.079     0.053    26.733     8.477
    21   6 C        2.910    -0.048    29.201     8.861
    22   6 C        2.924    -0.033    28.817     8.803
    23   6 C        2.920    -0.041    29.012     8.833
    24   6 C        2.913    -0.033    28.815     8.802
    25   6 C        3.068    -0.014    28.294     8.722
    26   6 C        3.070    -0.013    28.262     8.717
    27   6 C        2.913    -0.032    28.794     8.799
    28   6 C        2.920    -0.041    29.013     8.833
    29   6 C        2.924    -0.033    28.820     8.804
    30   6 C        2.910    -0.049    29.213     8.863
    31   6 C        3.077     0.052    26.755     8.480
    32   6 C        2.983    -0.007    28.190     8.709
    33   6 C        2.993     0.211    23.532     7.957
    34   7 N        1.847    -0.297    28.537     7.917
    35   6 C        2.991     0.205    23.645     7.976
    36   6 C        2.986     0.001    28.000     8.680
    37   6 C        2.924    -0.020    28.499     8.755
    38   6 C        2.919    -0.025    28.639     8.776
    39   6 C        2.921    -0.023    28.575     8.766
    40   6 C        2.919    -0.027    28.681     8.782
    41   6 C        2.924    -0.022    28.564     8.764
    42   7 N        1.844    -0.291    28.390     7.897
    43   6 C        2.989     0.204    23.682     7.983
    44   6 C        2.984     0.000    28.011     8.682
    45   6 C        2.924    -0.023    28.581     8.767
    46   6 C        2.918    -0.027    28.675     8.781
    47   6 C        2.920    -0.023    28.573     8.766
    48   6 C        2.918    -0.027    28.675     8.781
    49   6 C        2.924    -0.023    28.580     8.767
    50   7 N        1.844    -0.295    28.501     7.912
    51   6 C        2.927    -0.039    28.964     8.826
    52   6 C        2.912     0.070    26.444     8.432
    53   7 N        2.802    -0.033    21.878     6.947
    54   6 C        3.077     0.052    26.755     8.480
    55   6 C        2.910    -0.049    29.213     8.863
    56   6 C        2.924    -0.033    28.820     8.804
    57   6 C        2.920    -0.041    29.013     8.833
    58   6 C        2.913    -0.032    28.794     8.799
    59   6 C        3.070    -0.013    28.262     8.717
    60   6 C        3.068    -0.014    28.294     8.722
    61   6 C        2.913    -0.033    28.815     8.802
    62   6 C        2.920    -0.041    29.012     8.833
    63   6 C        2.924    -0.033    28.817     8.803
    64   6 C        2.910    -0.048    29.201     8.861
    65   6 C        3.079     0.053    26.733     8.477
    66   7 N        1.844    -0.295    28.501     7.912
    67   6 C        2.924    -0.023    28.580     8.767
    68   6 C        2.918    -0.027    28.675     8.781
    69   1 H        0.926     0.038     2.478     2.462
    70   1 H        0.926     0.038     2.476     2.461
    71   1 H        0.926     0.057     2.239     2.340
    72   1 H        0.926     0.054     2.276     2.359
    73   1 H        0.926     0.039     2.464     2.455
    74   1 H        0.926     0.038     2.478     2.462
    75   1 H        0.926     0.038     2.475     2.460
    76   1 H        0.926     0.054     2.274     2.358
    77   1 H        0.926     0.069     2.095     2.264
    78   1 H        0.926     0.021     2.725     2.582
    79   1 H        0.926     0.029     2.601     2.522
    80   1 H        0.926     0.029     2.602     2.523
    81   1 H        0.926     0.030     2.585     2.514
    82   1 H        0.926     0.030     2.582     2.513
    83   1 H        0.926     0.028     2.614     2.528
    84   1 H        0.926     0.030     2.586     2.515
    85   1 H        0.926     0.027     2.624     2.533
    86   1 H        0.926     0.054     2.276     2.359
    87   1 H        0.926     0.039     2.464     2.455
    88   1 H        0.926     0.038     2.478     2.462
    89   1 H        0.926     0.038     2.475     2.460
    90   1 H        0.926     0.054     2.274     2.358
    91   1 H        0.926     0.057     2.239     2.340
    92   1 H        0.926     0.038     2.476     2.461
    93   1 H        0.926     0.038     2.478     2.462
    94   1 H        0.926     0.038     2.474     2.459
    95   1 H        0.926     0.056     2.244     2.343
    96   1 H        0.926     0.069     2.095     2.264
    97   1 H        0.926     0.027     2.624     2.533
    98   1 H        0.926     0.030     2.586     2.515
    99   1 H        0.926     0.028     2.614     2.528
   100   1 H        0.926     0.030     2.582     2.513
   101   1 H        0.926     0.030     2.585     2.514
   102   1 H        0.926     0.029     2.602     2.523
   103   1 H        0.926     0.029     2.601     2.522
   104   1 H        0.926     0.021     2.725     2.582
   105   1 H        0.926     0.056     2.244     2.343
   106   1 H        0.926     0.038     2.474     2.459

molecular dipole:
                 x           y           z       tot (Debye)
 q only:        0.000      -0.000       0.025
   full:        0.000      -0.000       0.034       0.087

 projected vibrational frequencies (cm⁻¹)
eigval :       -0.00    -0.00     0.00     0.00     0.00     0.00
eigval :        6.10     8.58    11.37    17.82    18.17    23.60
eigval :       24.63    27.01    27.50    29.18    29.54    47.87
eigval :       50.82    51.36    56.86    64.28    66.34    68.49
eigval :       74.63    84.13    94.72   103.32   104.12   105.53
eigval :      119.85   126.42   131.21   144.15   148.09   152.46
eigval :      161.68   168.46   190.15   192.11   198.80   200.24
eigval :      204.85   205.36   229.89   238.13   257.62   260.10
eigval :      261.31   265.49   276.75   277.77   307.67   309.30
eigval :      351.03   365.18   365.20   367.91   368.17   369.80
eigval :      370.33   379.62   395.71   397.75   404.31   410.83
eigval :      412.15   419.64   423.55   424.72   433.60   435.44
eigval :      438.45   448.68   457.57   480.38   498.06   511.33
eigval :      518.56   520.27   535.29   537.38   541.75   541.81
eigval :      551.87   581.46   585.94   586.77   587.05   587.24
eigval :      588.11   596.57   610.02   612.48   613.00   617.16
eigval :      622.88   626.74   626.91   638.54   641.12   645.86
eigval :      659.97   666.19   671.38   674.27   675.81   675.83
eigval :      680.60   693.69   699.39   708.63   709.01   715.39
eigval :      744.64   753.67   755.20   756.80   760.21   769.56
eigval :      769.77   775.21   775.38   780.39   780.62   794.48
eigval :      794.86   829.51   847.40   847.51   867.48   868.88
eigval :      873.13   873.13   875.62   878.08   878.12   878.63
eigval :      878.70   884.23   893.87   897.55   901.43   901.92
eigval :      902.03   904.75   905.44   912.33   912.36   912.58
eigval :      912.59   922.12   922.17   922.29   922.53   930.88
eigval :      930.89   931.51   931.51   934.33   934.33   935.42
eigval :      935.43   942.70   970.38   978.97   990.62   990.67
eigval :     1012.08  1012.70  1032.58  1045.50  1058.55  1070.14
eigval :     1070.26  1073.52  1073.85  1074.12  1075.45  1075.54
eigval :     1077.41  1083.06  1108.76  1108.96  1109.79  1110.48
eigval :     1113.22  1113.36  1151.44  1152.27  1154.70  1158.97
eigval :     1167.76  1169.00  1171.96  1179.53  1180.24  1180.28
eigval :     1180.95  1181.00  1181.53  1181.57  1184.22  1188.49
eigval :     1190.50  1202.87  1202.90  1209.27  1209.56  1212.23
eigval :     1215.23  1235.74  1237.09  1237.38  1252.68  1269.13
eigval :     1269.63  1270.15  1271.35  1295.14  1298.09  1301.45
eigval :     1303.69  1307.61  1324.07  1328.00  1328.84  1330.03
eigval :     1330.17  1344.14  1358.84  1359.77  1361.42  1362.78
eigval :     1368.63  1373.38  1373.82  1378.77  1379.20  1399.29
eigval :     1415.30  1428.65  1428.88  1432.18  1432.59  1434.22
eigval :     1434.26  1441.33  1441.65  1468.81  1468.93  1470.31
eigval :     1475.29  1475.93  1477.94  1483.28  1488.84  1488.91
eigval :     1509.37  1510.91  1518.46  1525.02  1536.44  1575.15
eigval :     1575.30  1581.69  1583.79  1584.27  1585.98  1586.17
eigval :     1590.54  1591.08  1594.74  1594.79  1596.36  1596.39
eigval :     1599.10  1599.35  1614.99  1616.02  3071.39  3071.47
eigval :     3073.75  3073.75  3075.08  3075.09  3075.29  3075.29
eigval :     3079.01  3079.05  3080.88  3080.92  3081.68  3081.68
eigval :     3082.04  3082.07  3085.84  3085.91  3088.85  3088.87
eigval :     3090.01  3090.04  3090.70  3090.80  3094.30  3094.33
eigval :     3096.05  3096.23  3102.24  3102.41  3105.07  3105.08
eigval :     3106.45  3106.48  3107.59  3107.59  3109.69  3109.71

   temp. (K)  partition function   enthalpy   heat capacity  entropy
                                   cal/mol     cal/K/mol   cal/K/mol   J/K/mol
 298.15  VIB  0.602E+27            31815.189    194.812    201.727
         ROT  0.891E+08              888.752      2.981     39.358
         INT  0.536E+35            32703.942    197.793    241.085
         TR   0.249E+29             1481.254      4.968     46.149
         TOT                       34185.1956   202.7615   287.2337  1201.7858

       T/K    H(0)-H(T)+PV         H(T)/Eh          T*S/Eh         G(T)/Eh
   ------------------------------------------------------------------------
    298.15    0.544776E-01    0.854057E+00    0.136474E+00    0.717583E+00
   ------------------------------------------------------------------------

         :::::::::::::::::::::::::::::::::::::::::::::::::::::
         ::                  THERMODYNAMIC                  ::
         :::::::::::::::::::::::::::::::::::::::::::::::::::::
         :: total free energy        -170.644643696439 Eh   ::
         ::.................................................::
         :: total energy             -171.362227063928 Eh   ::
         :: zero point energy           0.799579789669 Eh   ::
         :: G(RRHO) w/o ZPVE           -0.081996422180 Eh   ::
         :: G(RRHO) contrib.            0.717583367489 Eh   ::
         :::::::::::::::::::::::::::::::::::::::::::::::::::::

           -------------------------------------------------
          | TOTAL ENERGY             -171.362227063928 Eh   |
          | TOTAL ENTHALPY           -170.508169697467 Eh   |
          | TOTAL FREE ENERGY        -170.644643696439 Eh   |
          | GRADIENT NORM               0.000025516467 Eh/α |
          | HOMO-LUMO GAP               1.665986830324 eV   |
           -------------------------------------------------

 * finished run on 2025/08/25 at 01:00:51.857
