   * xtb version 6.7.1 (edcfbbe) compiled by 'albert@albert-system' on 2024-07-22

   ID    Z sym.   atoms
    1    6 C      1-4, 6-26, 28-38
    2    7 N      5, 27
    3    1 H      39-62

          program call               : xtb data2507/gas/BCzPh/BCzPh_gas_T1_crest.xyz --gfn 2 --spinpol --tblite --uhf 2 --ohess vtight --parallel 40 --molden --ceasefiles --namespace data2507/gas/BCzPh/BCzPh_gas_T1_finalOpt
 * total energy  :   -95.1368203 Eh     change       -0.2264893E-07 Eh
 * total energy  :   -95.1368503 Eh     change       -0.3000607E-04 Eh
 * total energy  :   -95.1368665 Eh     change       -0.1619532E-04 Eh
 * total energy  :   -95.1368688 Eh     change       -0.2347646E-05 Eh
 * total energy  :   -95.1368708 Eh     change       -0.2011657E-05 Eh
 * total energy  :   -95.1368736 Eh     change       -0.2768103E-05 Eh
 * total energy  :   -95.1368763 Eh     change       -0.2702950E-05 Eh
 * total energy  :   -95.1368791 Eh     change       -0.2822716E-05 Eh
 * total energy  :   -95.1368809 Eh     change       -0.1834129E-05 Eh
 * total energy  :   -95.1368823 Eh     change       -0.1335424E-05 Eh
 * total energy  :   -95.1368878 Eh     change       -0.1257357E-05 Eh
 * total energy  :   -95.1368889 Eh     change       -0.1124084E-05 Eh
 * total energy  :   -95.1368895 Eh     change       -0.5624659E-06 Eh
 * total energy  :   -95.1368898 Eh     change       -0.3441345E-06 Eh
 * total energy  :   -95.1368901 Eh     change       -0.2617923E-06 Eh
 * total energy  :   -95.1368903 Eh     change       -0.2214685E-06 Eh
 * total energy  :   -95.1368905 Eh     change       -0.2016754E-06 Eh
 * total energy  :   -95.1368907 Eh     change       -0.2352109E-06 Eh
 * total energy  :   -95.1368907 Eh     change       -0.5930673E-08 Eh
   *** GEOMETRY OPTIMIZATION CONVERGED AFTER 22 ITERATIONS ***

 final structure:
================
62
 xtb: 6.7.1 (edcfbbe)
C           -7.78851967954794       -2.97376169975472        0.11559640826632
C           -6.68313434895772       -3.09072425173981       -0.71429479586896
C           -5.72397464344471       -2.09871233664672       -0.74433241242454
C           -5.86073409356125       -0.97074747613453        0.06674830596611
N           -4.88962975104944        0.03246833408508        0.04248665250081
C           -5.13534391321775        1.39056835489324       -0.08614469157950
C           -6.34020832153259        2.05831379043476       -0.24419490277087
C           -6.30193868848907        3.43599570458461       -0.38724525478730
C           -5.10009440594432        4.13198753310032       -0.38435693319050
C           -3.89124516381821        3.46365235009709       -0.25735945166593
C           -3.90577160493197        2.08797809885797       -0.11427244276585
C           -2.86303756267969        1.09437862281193        0.00598483571435
C           -1.50183169422626        1.18033270613399        0.04802846245674
C           -0.70220124825452       -0.01474881102146        0.17161625120729
C            0.70042158390771        0.02481983450222        0.16856900662521
C            1.42879876504379        1.26761557749017        0.30226153994212
C            2.78547423630639        1.34864016156723        0.27658708785751
C            3.53042262724380        0.16900313043974        0.08774413186096
C            2.85969351816816       -1.08699507847980        0.00027876919910
C            1.49846809009372       -1.17106304130017        0.04327375020238
C            3.90051012859324       -2.08252779313177       -0.11968337121097
C            3.88328073865323       -3.45820440083258       -0.26233719789218
C            5.09087622959033       -4.12896531135064       -0.38825076529869
C            6.29406065475789       -3.43527827052243       -0.39050165106658
C            6.33495854067715       -2.05760848796110       -0.24798041089173
C            5.13130335360041       -1.38739665448370       -0.09099816750042
N            4.88802673044277       -0.02875370505212        0.03708728489304
C            5.86174939966863        0.97191127391282        0.06384592400733
C            6.96983954620132        0.85524727870953        0.90494365507839
C            7.92831499380689        1.84846364558669        0.92462301633599
C            7.79564608347284        2.96888949674715        0.11790007919542
C            6.69236120115747        3.08974155574784       -0.71420799042018
C            5.73015066729995        2.10072630045959       -0.74685065027347
C           -1.42889499404003       -1.25810642207974        0.30970345548657
C           -2.78537574397481       -1.34100085486567        0.28511705680867
C           -3.53175119952190       -0.16268650209121        0.09387685712429
C           -6.97093415243345       -0.85796088861321        0.90556381665621
C           -7.92633997504782       -1.85419157349133        0.92264322946193
H           -8.53716078688382       -3.75089151566473        0.13422783317614
H           -6.57359318217295       -3.95840856464029       -1.34803812126932
H           -4.87573866815428       -2.17412403013894       -1.40812330323797
H           -7.27909782705522        1.52676290094599       -0.27068866274803
H           -7.22844006688559        3.97775866002623       -0.50784575099439
H           -5.10854832281385        5.20601993464064       -0.49490456249440
H           -2.95676558121271        4.00360136909245       -0.27629910493428
H           -1.03161264263220        2.14462360216299       -0.04297160909390
H            0.87206304973790        2.17267268779245        0.48005193674230
H            3.28594695032274        2.29502807928619        0.42006456136971
H            1.02706821363193       -2.13472068937934       -0.04809898171856
H            2.94770522400089       -3.99624251726974       -0.28176267269704
H            5.09729984252956       -5.20305341080464       -0.49838548716795
H            7.21958395935806       -3.97891897654276       -0.51014457298050
H            7.27495428308953       -1.52798895819173       -0.27399314734812
H            7.05585209288753       -0.00247741720495        1.55508749628002
H            8.78101779955500        1.75398674864995        1.58080166494773
H            8.54667308207828        3.74367125375034        0.13852905612564
H            6.58688454978119        3.95811701025325       -1.34770130741975
H            4.88359892140671        2.17916016922402       -1.41244379500567
H           -0.87087944530473       -2.16182497933912        0.49014179176815
H           -3.28467554307450       -2.28755687930740        0.43149164542727
H           -7.06097604493408       -0.00091270490260        1.55604505915551
H           -8.78072688306768       -1.76276329904923        1.57705668958036

 projected vibrational frequencies (cm⁻¹)
eigval :       -0.00    -0.00    -0.00     0.00     0.00     0.00
eigval :       11.10    16.60    28.80    44.83    51.97    61.33
eigval :       63.40    75.39    78.89    94.91   112.40   115.72
eigval :      125.21   153.61   170.80   171.45   208.30   232.05
eigval :      235.72   254.64   260.13   272.08   274.29   327.15
eigval :      335.73   361.03   378.32   381.58   383.78   386.67
eigval :      393.23   398.27   406.13   411.86   437.27   456.63
eigval :      466.39   484.66   516.06   520.87   530.51   543.96
eigval :      558.90   572.59   577.30   585.15   587.61   589.95
eigval :      596.14   609.03   610.80   640.09   647.89   649.87
eigval :      661.62   666.96   694.97   697.42   701.47   719.42
eigval :      755.65   756.14   758.91   767.91   769.44   773.69
eigval :      775.58   780.40   784.28   841.59   863.28   863.39
eigval :      873.59   874.76   877.86   883.92   888.20   890.54
eigval :      897.53   898.03   900.67   900.90   916.66   917.85
eigval :      917.86   919.39   927.55   927.62   930.47   930.54
eigval :      963.31   988.48   990.55   997.50  1007.41  1070.10
eigval :     1072.05  1075.62  1076.42  1076.91  1112.27  1119.13
eigval :     1119.39  1125.79  1147.60  1165.27  1168.88  1177.18
eigval :     1178.23  1179.26  1179.29  1187.95  1189.61  1199.26
eigval :     1202.15  1234.37  1236.27  1243.95  1256.68  1263.14
eigval :     1271.84  1275.22  1281.89  1293.28  1312.73  1324.00
eigval :     1324.24  1337.31  1341.18  1348.29  1351.54  1374.47
eigval :     1375.37  1405.87  1418.94  1424.92  1426.09  1434.97
eigval :     1437.07  1449.60  1464.03  1466.39  1472.22  1474.71
eigval :     1506.52  1510.33  1536.02  1536.38  1537.02  1567.16
eigval :     1568.74  1580.09  1581.50  1586.69  1586.88  1608.29
eigval :     3075.57  3075.75  3077.88  3077.90  3078.47  3078.53
eigval :     3079.90  3079.93  3084.35  3084.37  3090.77  3090.80
eigval :     3092.21  3092.25  3093.93  3094.01  3097.15  3097.44
eigval :     3099.36  3099.97  3105.44  3107.83  3118.64  3120.58

   temp. (K)  partition function   enthalpy   heat capacity  entropy
                                   cal/mol     cal/K/mol   cal/K/mol   J/K/mol
 298.15  VIB  0.132E+13            16737.050    111.032    102.489
         ROT  0.264E+08              888.752      2.981     36.943
         INT  0.348E+20            17625.802    114.013    139.432
         TR   0.103E+29             1481.254      4.968     44.402
         TOT                       19107.0561   118.9815   183.8339   769.1611

       T/K    H(0)-H(T)+PV         H(T)/Eh          T*S/Eh         G(T)/Eh
   ------------------------------------------------------------------------
    298.15    0.304490E-01    0.505114E+00    0.873454E-01    0.417769E+00
   ------------------------------------------------------------------------

         :::::::::::::::::::::::::::::::::::::::::::::::::::::
         ::                  THERMODYNAMIC                  ::
         :::::::::::::::::::::::::::::::::::::::::::::::::::::
         :: total free energy         -94.719121929206 Eh   ::
         ::.................................................::
         :: total energy              -95.136890738249 Eh   ::
         :: zero point energy           0.474665207369 Eh   ::
         :: G(RRHO) w/o ZPVE           -0.056896398325 Eh   ::
         :: G(RRHO) contrib.            0.417768809043 Eh   ::
         :::::::::::::::::::::::::::::::::::::::::::::::::::::

           -------------------------------------------------
          | TOTAL ENERGY              -95.136890738249 Eh   |
          | TOTAL ENTHALPY            -94.631776498804 Eh   |
          | TOTAL FREE ENERGY         -94.719121929206 Eh   |
          | GRADIENT NORM               0.000050429006 Eh/α |
           -------------------------------------------------

 * finished run on 2025/07/20 at 02:37:36.248
