   * xtb version 6.7.1 (edcfbbe) compiled by 'albert@albert-system' on 2024-07-22

   ID    Z sym.   atoms
    1    6 C      1-4, 6-26, 28-38
    2    7 N      5, 27
    3    1 H      39-62

          program call               : xtb data2507/gas/BCzPh/BCzPh.xyz --gfn 2 --ohess vtight --parallel 40 --molden --ceasefiles --namespace data2507/gas/BCzPh/BCzPh_gas_S0_preOpt
          :  Hamiltonian                  GFN2-xTB          :
 * total energy  :   -95.2211628 Eh     change       -0.9087699E-09 Eh
 * total energy  :   -95.2329700 Eh     change       -0.1180720E-01 Eh
 * total energy  :   -95.2356257 Eh     change       -0.2655718E-02 Eh
 * total energy  :   -95.2362862 Eh     change       -0.6604723E-03 Eh
 * total energy  :   -95.2367084 Eh     change       -0.4222114E-03 Eh
 * total energy  :   -95.2368533 Eh     change       -0.1448976E-03 Eh
 * total energy  :   -95.2369774 Eh     change       -0.1241066E-03 Eh
 * total energy  :   -95.2371029 Eh     change       -0.1254864E-03 Eh
 * total energy  :   -95.2372228 Eh     change       -0.1198570E-03 Eh
 * total energy  :   -95.2373223 Eh     change       -0.9951995E-04 Eh
 * total energy  :   -95.2378034 Eh     change       -0.7126774E-06 Eh
 * total energy  :   -95.2378041 Eh     change       -0.7024661E-06 Eh
 * total energy  :   -95.2378048 Eh     change       -0.6941349E-06 Eh
 * total energy  :   -95.2378054 Eh     change       -0.6847118E-06 Eh
 * total energy  :   -95.2378061 Eh     change       -0.6769573E-06 Eh
 * total energy  :   -95.2378068 Eh     change       -0.6683089E-06 Eh
 * total energy  :   -95.2378075 Eh     change       -0.6609243E-06 Eh
 * total energy  :   -95.2378081 Eh     change       -0.6527279E-06 Eh
 * total energy  :   -95.2378081 Eh     change       -0.6415917E-08 Eh
   *** GEOMETRY OPTIMIZATION CONVERGED AFTER 152 ITERATIONS ***

 final structure:
================
62
 xtb: 6.7.1 (edcfbbe)
C           -7.87372687363489       -2.81340762963817       -0.98727704955930
C           -7.90008791319991       -1.51041740308996       -1.45614060419602
C           -6.90600879501747       -0.61954564578758       -1.09692215882227
C           -5.87842264358138       -1.02788008222808       -0.25113326573201
N           -4.87110692437709       -0.12629116570255        0.11779560251931
C           -5.06840121107325        1.14667013396013        0.61564689554796
C           -6.25180165679498        1.80034587927672        0.92787967284902
C           -6.16553613446901        3.07687990347495        1.44970724741405
C           -4.93506120102442        3.69298965178116        1.66676767192315
C           -3.75372933443660        3.03879880860567        1.38007567746600
C           -3.81468962198823        1.75485306439248        0.85526759612038
C           -2.81627136112091        0.79577092455743        0.47261162015847
C           -1.43036042194788        0.82169007544330        0.45856584854095
C           -0.73546593463346       -0.29338143643458        0.00969012446487
C            0.73547258911941       -0.29338362300711       -0.00968956983216
C            1.44388357857178       -1.41608150722753        0.43903695491240
C            2.82297107831034       -1.45951794867024        0.44471776518672
C            3.51169163205333       -0.35281366816548       -0.03094694050723
C            2.81628033589884        0.79576056397829       -0.47261938405917
C            1.43036953425887        0.82168402866821       -0.45857092477018
C            3.81470064883410        1.75484003353743       -0.85527609001311
C            3.75374162323685        3.03878577371793       -1.38008403105008
C            4.93507422240691        3.69297574344056       -1.66677474822116
C            6.16554823836819        3.07686500039277       -1.44971205021576
C            6.25181243887783        1.80033035139114       -0.92788545252129
C            5.06841121260613        1.14665455819190       -0.61565566925565
N            4.87111400247738       -0.12630651661509       -0.11780496891804
C            5.87842270362129       -1.02790158910339        0.25112835153048
C            5.85660321727226       -2.33620397154204       -0.22371209372009
C            6.84922318115752       -3.22292040202097        0.15006595837691
C            7.87369658974063       -2.81345260766820        0.98729759855460
C            7.90007044345764       -1.51046075819299        1.45615591426262
C            6.90600693523698       -0.61957682906801        1.09692403886696
C           -1.44387932330715       -1.41607884690630       -0.43903368093747
C           -2.82296694572100       -1.45951064371214       -0.44471854503159
C           -3.51168520000863       -0.35280259604281        0.03094067979523
C           -5.85661372299504       -2.33618180429530        0.22370916131489
C           -6.84924886425233       -3.22288658017296       -0.15005651606209
H           -8.64929484348967       -3.50760997921335       -1.27363639654903
H           -8.69456262455291       -1.18778688329230       -2.11281250764264
H           -6.91050010311423        0.39048696305363       -1.47881709852700
H           -7.20998222858788        1.32484854790552        0.78105116506567
H           -7.07292111492773        3.60722078322828        1.69895459674221
H           -4.91027143303999        4.69266318174566        2.07455311117595
H           -2.79935231995979        3.50882010889367        1.56411060459914
H           -0.89806521569973        1.69298577620114        0.80947234225236
H            0.88965878912173       -2.26328441306796        0.81581639835953
H            3.34603165521375       -2.32543557271959        0.82219791591180
H            0.89807646272368        1.69298109118377       -0.80947723885773
H            2.79936478105555        3.50880615010313       -1.56412234844254
H            4.91028563672196        4.69264872117596       -2.07456168120431
H            7.07293392587392        3.60720639246389       -1.69895576265420
H            7.20999288270788        1.32483368407259       -0.78105396298452
H            5.06901774038241       -2.64542686949044       -0.89453506699291
H            6.82714557087547       -4.23685759970945       -0.22138154794542
H            8.64925278537840       -3.50766402699395        1.27366689779470
H            8.69454364289690       -1.18783805677942        2.11283345948347
H            6.91050766662236        0.39045693772886        1.47881573098918
H           -0.88965607282160       -2.26328449792270       -0.81580925097480
H           -3.34602930436670       -2.32542753116484       -0.82219788956606
H           -5.06902560711467       -2.64541280776247        0.89452525753422
H           -6.82717979382225       -4.23682333917245        0.22139263605490

          :  Hamiltonian                  GFN2-xTB          :
         :: gradient norm              0.000065062443 Eh/a0 ::
         :: HOMO-LUMO gap              2.950173638013 eV    ::
         :: SCC energy               -97.062809121394 Eh    ::
         :: -> dispersion             -0.083455432871 Eh    ::
         :: repulsion energy           1.825001007381 Eh    ::

    * Orbital Energies and Occupations

         #    Occupation            Energy/Eh            Energy/eV
      -------------------------------------------------------------
         1        2.0000           -0.6721721             -18.2907
       ...           ...                  ...                  ...
        77        2.0000           -0.4168849             -11.3440
        78        2.0000           -0.4129602             -11.2372
        79        2.0000           -0.4122587             -11.2181
        80        2.0000           -0.4109392             -11.1822
        81        2.0000           -0.4102037             -11.1622
        82        2.0000           -0.4082571             -11.1092
        83        2.0000           -0.4078805             -11.0990
        84        2.0000           -0.4038903             -10.9904
        85        2.0000           -0.3936847             -10.7127
        86        2.0000           -0.3751603             -10.2086
        87        2.0000           -0.3728447             -10.1456
        88        2.0000           -0.3625622              -9.8658
        89        2.0000           -0.3505215              -9.5382 (HOMO)
        90                         -0.2421046              -6.5880 (LUMO)
        91                         -0.2416816              -6.5765
        92                         -0.2346367              -6.3848
        93                         -0.2315413              -6.3006
        94                         -0.2310680              -6.2877
        95                         -0.2310665              -6.2876
        96                         -0.2271680              -6.1816
        97                         -0.2104338              -5.7262
        98                         -0.1945748              -5.2946
        99                         -0.1831057              -4.9826
       100                         -0.1824695              -4.9652
       ...                                ...                  ...
       176                          0.7587022              20.6453
      -------------------------------------------------------------
                  HL-Gap            0.1084169 Eh            2.9502 eV

     #   Z          covCN         q      C6AA      α(0)
     1   6 C        2.919    -0.034    28.835     8.806
     2   6 C        2.920    -0.028    28.702     8.786
     3   6 C        2.922    -0.042    29.055     8.839
     4   6 C        2.913     0.065    26.537     8.447
     5   7 N        2.802    -0.045    22.099     6.982
     6   6 C        3.076     0.047    26.877     8.500
     7   6 C        2.910    -0.051    29.270     8.871
     8   6 C        2.924    -0.034    28.843     8.807
     9   6 C        2.920    -0.041    29.024     8.835
    10   6 C        2.913    -0.033    28.821     8.803
    11   6 C        3.068    -0.017    28.365     8.733
    12   6 C        3.065    -0.018    28.390     8.737
    13   6 C        2.918    -0.039    28.962     8.825
    14   6 C        2.977    -0.000    28.027     8.684
    15   6 C        2.977    -0.000    28.027     8.684
    16   6 C        2.929    -0.039    28.963     8.826
    17   6 C        2.908    -0.052    29.294     8.875
    18   6 C        3.076     0.044    26.925     8.507
    19   6 C        3.065    -0.018    28.390     8.737
    20   6 C        2.918    -0.039    28.962     8.825
    21   6 C        3.068    -0.017    28.365     8.733
    22   6 C        2.913    -0.033    28.821     8.803
    23   6 C        2.920    -0.041    29.024     8.835
    24   6 C        2.924    -0.034    28.843     8.807
    25   6 C        2.910    -0.051    29.270     8.871
    26   6 C        3.076     0.047    26.877     8.500
    27   7 N        2.802    -0.045    22.099     6.982
    28   6 C        2.913     0.065    26.537     8.447
    29   6 C        2.922    -0.042    29.055     8.840
    30   6 C        2.920    -0.028    28.703     8.786
    31   6 C        2.919    -0.034    28.835     8.806
    32   6 C        2.920    -0.028    28.702     8.786
    33   6 C        2.922    -0.042    29.055     8.839
    34   6 C        2.929    -0.039    28.963     8.826
    35   6 C        2.908    -0.052    29.294     8.875
    36   6 C        3.076     0.044    26.925     8.507
    37   6 C        2.922    -0.042    29.055     8.840
    38   6 C        2.920    -0.028    28.703     8.786
    39   1 H        0.926     0.034     2.526     2.485
    40   1 H        0.926     0.035     2.510     2.478
    41   1 H        0.926     0.040     2.444     2.445
    42   1 H        0.926     0.026     2.639     2.540
    43   1 H        0.926     0.028     2.617     2.530
    44   1 H        0.926     0.027     2.629     2.536
    45   1 H        0.926     0.030     2.580     2.512
    46   1 H        0.926     0.033     2.550     2.497
    47   1 H        0.926     0.030     2.584     2.514
    48   1 H        0.926     0.027     2.636     2.539
    49   1 H        0.926     0.033     2.550     2.497
    50   1 H        0.926     0.030     2.580     2.512
    51   1 H        0.926     0.027     2.629     2.536
    52   1 H        0.926     0.028     2.617     2.530
    53   1 H        0.926     0.026     2.639     2.540
    54   1 H        0.926     0.040     2.443     2.444
    55   1 H        0.926     0.035     2.511     2.478
    56   1 H        0.926     0.034     2.526     2.485
    57   1 H        0.926     0.035     2.510     2.478
    58   1 H        0.926     0.040     2.444     2.445
    59   1 H        0.926     0.030     2.584     2.514
    60   1 H        0.926     0.027     2.636     2.539
    61   1 H        0.926     0.040     2.443     2.444
    62   1 H        0.926     0.035     2.511     2.478

molecular dipole:
                 x           y           z       tot (Debye)
 q only:       -0.000      -0.657       0.000
   full:       -0.000      -0.769       0.000       1.954

 projected vibrational frequencies (cm⁻¹)
eigval :       -0.00    -0.00     0.00     0.00     0.00     0.00
eigval :       14.54    17.64    25.12    47.42    56.12    62.25
eigval :       64.06    65.82    71.83   100.08   105.49   127.52
eigval :      135.96   161.37   170.97   193.71   214.65   231.64
eigval :      249.42   264.80   272.67   272.69   306.82   330.42
eigval :      358.98   376.10   380.92   380.92   396.10   398.43
eigval :      405.11   418.20   426.70   434.69   437.61   473.40
eigval :      478.15   481.14   528.99   535.72   536.49   557.06
eigval :      573.15   579.49   586.95   593.20   593.42   607.37
eigval :      608.28   619.72   626.60   655.16   668.96   674.56
eigval :      677.68   686.99   706.58   707.73   716.16   730.74
eigval :      763.24   763.40   770.51   775.60   775.82   813.80
eigval :      830.07   846.92   868.73   869.82   872.18   881.22
eigval :      882.71   885.48   893.73   900.25   900.72   904.85
eigval :      904.94   911.60   917.50   918.38   921.89   921.96
eigval :      923.19   933.06   933.25   933.39   934.18   935.79
eigval :      998.00   998.39  1013.01  1030.47  1070.52  1072.10
eigval :     1073.64  1080.70  1080.72  1118.20  1118.22  1121.52
eigval :     1124.70  1154.99  1159.19  1178.78  1178.85  1181.34
eigval :     1181.34  1183.52  1184.82  1201.36  1201.46  1212.85
eigval :     1228.23  1244.42  1247.88  1256.84  1274.98  1275.30
eigval :     1281.37  1289.17  1304.43  1318.34  1318.39  1321.28
eigval :     1347.77  1352.16  1361.66  1362.91  1364.00  1376.47
eigval :     1418.32  1421.38  1429.23  1435.32  1436.80  1439.18
eigval :     1470.28  1482.28  1484.16  1485.63  1485.64  1494.54
eigval :     1564.62  1569.49  1582.38  1582.92  1584.50  1585.77
eigval :     1596.39  1596.70  1597.69  1600.72  1613.26  1617.90
eigval :     3075.29  3075.29  3076.22  3078.04  3078.23  3078.67
eigval :     3080.36  3080.42  3080.96  3081.05  3085.39  3087.44
eigval :     3088.28  3088.89  3089.87  3090.47  3090.69  3090.90
eigval :     3094.05  3094.09  3095.13  3095.46  3098.86  3098.90

   temp. (K)  partition function   enthalpy   heat capacity  entropy
                                   cal/mol     cal/K/mol   cal/K/mol   J/K/mol
 298.15  VIB  0.600E+12            16309.347    108.500     99.740
         ROT  0.260E+08              888.752      2.981     36.914
         INT  0.156E+20            17198.099    111.481    136.654
         TR   0.103E+29             1481.254      4.968     44.402
         TOT                       18679.3531   116.4493   181.0562   757.5392

       T/K    H(0)-H(T)+PV         H(T)/Eh          T*S/Eh         G(T)/Eh
   ------------------------------------------------------------------------
    298.15    0.297674E-01    0.509461E+00    0.860257E-01    0.423435E+00
   ------------------------------------------------------------------------

         :::::::::::::::::::::::::::::::::::::::::::::::::::::
         ::                  THERMODYNAMIC                  ::
         :::::::::::::::::::::::::::::::::::::::::::::::::::::
         :: total free energy         -94.814373194735 Eh   ::
         ::.................................................::
         :: total energy              -95.237808114013 Eh   ::
         :: zero point energy           0.479693129223 Eh   ::
         :: G(RRHO) w/o ZPVE           -0.056258209946 Eh   ::
         :: G(RRHO) contrib.            0.423434919278 Eh   ::
         :::::::::::::::::::::::::::::::::::::::::::::::::::::

           -------------------------------------------------
          | TOTAL ENERGY              -95.237808114013 Eh   |
          | TOTAL ENTHALPY            -94.728347540772 Eh   |
          | TOTAL FREE ENERGY         -94.814373194735 Eh   |
          | GRADIENT NORM               0.000065062301 Eh/α |
          | HOMO-LUMO GAP               2.950173698545 eV   |
           -------------------------------------------------

 * finished run on 2025/07/20 at 02:32:32.933
