   * xtb version 6.7.1 (edcfbbe) compiled by 'albert@albert-system' on 2024-07-22

   ID    Z sym.   atoms
    1    6 C      1-4, 6-26, 28-38
    2    7 N      5, 27
    3    1 H      39-62

          program call               : xtb data2507/gas/BCzPh/BCzPh_gas_S0_crest.xyz --gfn 2 --ohess vtight --parallel 40 --molden --ceasefiles --namespace data2507/gas/BCzPh/BCzPh_gas_S0_finalOpt
          :  Hamiltonian                  GFN2-xTB          :
 * total energy  :   -95.2378596 Eh     change       -0.4143175E-09 Eh
 * total energy  :   -95.2378603 Eh     change       -0.7206092E-06 Eh
 * total energy  :   -95.2378612 Eh     change       -0.8359438E-06 Eh
 * total energy  :   -95.2378625 Eh     change       -0.1324492E-05 Eh
 * total energy  :   -95.2378629 Eh     change       -0.4316540E-06 Eh
 * total energy  :   -95.2378631 Eh     change       -0.1410792E-06 Eh
 * total energy  :   -95.2378632 Eh     change       -0.1092169E-06 Eh
 * total energy  :   -95.2378632 Eh     change       -0.7244928E-07 Eh
   *** GEOMETRY OPTIMIZATION CONVERGED AFTER 8 ITERATIONS ***

 final structure:
================
62
 xtb: 6.7.1 (edcfbbe)
C           -7.78250184275709       -2.79893489260488        1.07201670990551
C           -6.74287961706341       -3.14293423202435        0.22402187429873
C           -5.78208358757288       -2.20918010574787       -0.11655357693736
C           -5.85118192445679       -0.91934188424361        0.40249008017914
N           -4.87598614259748        0.02865091095305        0.06474650825081
C           -5.11582723370214        1.30688264903871       -0.39968046377705
C           -6.32092970349311        1.93345251817957       -0.68300902284307
C           -6.27756442264032        3.22584575257585       -1.16999101760319
C           -5.06802275920254        3.88384904419569       -1.38143204438464
C           -3.86515505479010        3.25703482305453       -1.12459771271135
C           -3.88284887293633        1.95804512841389       -0.63481270830722
C           -2.85271465445940        1.01996481255446       -0.28538164297641
C           -1.46796013415477        1.08575687275721       -0.28549689352730
C           -0.73551888986628       -0.01637102259726        0.13559354100084
C            0.73477202474566        0.02019446407323        0.13510113730722
C            1.40773424788575        1.17053045242540        0.56962915901435
C            2.78461477288348        1.25523089840420        0.58300089579841
C            3.50922679887989        0.16011546046360        0.13454196459861
C            2.85113577042450       -1.01783006325796       -0.28594982146683
C            1.46637764739920       -1.08264445601007       -0.28560777751852
C            3.88038197588576       -1.95696482648374       -0.63506951837727
C            3.86150529009949       -3.25613983591401       -1.12435089488470
C            5.06380161084408       -3.88404559379477       -1.38110269309341
C            6.27393476989163       -3.22696097917438       -1.17006549019559
C            6.31845326835447       -1.93442905454161       -0.68361024198957
C            5.11389630339016       -1.30674313064018       -0.40036835300634
N            4.87521811260864       -0.02802308370868        0.06331602443491
C            5.85193887756284        0.91839977754483        0.40111882475654
C            6.89325817482822        0.57424833770869        1.25841551074937
C            7.85786453072010        1.50968022117364        1.58340243266181
C            7.78805104890511        2.79364462881635        1.06879127165017
C            6.74914644782601        3.13959873108248        0.22073720966658
C            5.78588477990475        2.20799396037392       -0.11885240301798
C           -1.40759148300846       -1.16677773236173        0.57137558575814
C           -2.78436374299355       -1.25242967751959        0.58521503471049
C           -3.50981452223929       -0.15822646366453        0.13589772655425
C           -6.89346162556366       -0.57701959327883        1.25932971280543
C           -7.85567847297950       -1.51462111230509        1.58524237867145
H           -8.53335978293291       -3.52963128495598        1.33223328068249
H           -6.68419078370891       -4.14206484066957       -0.18194058461146
H           -4.98288122214091       -2.46699144245963       -0.79532372452298
H           -7.26328165081584        1.42619395449134       -0.54028689554983
H           -7.20266511944203        3.73588246427547       -1.39534344273241
H           -5.07670532043003        4.89492816695298       -1.76079478395342
H           -2.92697991586091        3.76025057197251       -1.30428314121284
H           -0.96670941958834        1.97904890966997       -0.62662546411599
H            0.82698583845417        2.00737944744422        0.92879056489299
H            3.27936848373643        2.14350718721113        0.94649514231023
H            0.96444033163072       -1.97582046303138       -0.62602467571415
H            2.92284593021449       -3.75857519877697       -1.30369148518165
H            5.07164515898598       -4.89528014414794       -1.76006675357963
H            7.19857027033212       -3.73788552819160       -1.39530942495767
H            7.26121816189683       -1.42784675569835       -0.54119563367483
H            6.93167787037331       -0.42087438998213        1.67585898715878
H            8.66355519445917        1.23686451236790        2.24893204610635
H            8.54104076314343        3.52247716251433        1.32807761954851
H            6.69298644292737        4.13847712523187       -0.18619097753309
H            4.98719915303646        2.46721203267274       -0.79769814504841
H           -0.82615774361983       -2.00289756347477        0.93111226781155
H           -3.27839603522672       -2.14072753113477        0.94962282547836
H           -6.93444997499125        0.41836575746066        1.67589413703059
H           -8.66204038459551       -1.24317293685817        2.25051187851354

          :  Hamiltonian                  GFN2-xTB          :
         :: gradient norm              0.000057037756 Eh/a0 ::
         :: HOMO-LUMO gap              2.946062582306 eV    ::
         :: SCC energy               -97.062802779544 Eh    ::
         :: -> dispersion             -0.083468926923 Eh    ::
         :: repulsion energy           1.824939544868 Eh    ::

    * Orbital Energies and Occupations

         #    Occupation            Energy/Eh            Energy/eV
      -------------------------------------------------------------
         1        2.0000           -0.6722753             -18.2935
       ...           ...                  ...                  ...
        77        2.0000           -0.4161206             -11.3232
        78        2.0000           -0.4132419             -11.2449
        79        2.0000           -0.4121131             -11.2142
        80        2.0000           -0.4119754             -11.2104
        81        2.0000           -0.4094154             -11.1408
        82        2.0000           -0.4085929             -11.1184
        83        2.0000           -0.4076514             -11.0928
        84        2.0000           -0.4040918             -10.9959
        85        2.0000           -0.3936960             -10.7130
        86        2.0000           -0.3754089             -10.2154
        87        2.0000           -0.3728309             -10.1452
        88        2.0000           -0.3627989              -9.8723
        89        2.0000           -0.3503943              -9.5347 (HOMO)
        90                         -0.2421285              -6.5887 (LUMO)
        91                         -0.2418478              -6.5810
        92                         -0.2351615              -6.3991
        93                         -0.2313645              -6.2957
        94                         -0.2310419              -6.2870
        95                         -0.2310265              -6.2865
        96                         -0.2274795              -6.1900
        97                         -0.2103780              -5.7247
        98                         -0.1949369              -5.3045
        99                         -0.1832463              -4.9864
       100                         -0.1825779              -4.9682
       ...                                ...                  ...
       176                          0.7576940              20.6179
      -------------------------------------------------------------
                  HL-Gap            0.1082658 Eh            2.9461 eV

     #   Z          covCN         q      C6AA      α(0)
     1   6 C        2.919    -0.033    28.834     8.806
     2   6 C        2.920    -0.028    28.702     8.785
     3   6 C        2.922    -0.042    29.054     8.839
     4   6 C        2.913     0.065    26.538     8.447
     5   7 N        2.802    -0.044    22.096     6.981
     6   6 C        3.076     0.047    26.877     8.500
     7   6 C        2.910    -0.051    29.271     8.871
     8   6 C        2.924    -0.034    28.843     8.807
     9   6 C        2.920    -0.041    29.026     8.835
    10   6 C        2.913    -0.033    28.823     8.803
    11   6 C        3.069    -0.017    28.366     8.733
    12   6 C        3.065    -0.018    28.395     8.738
    13   6 C        2.918    -0.039    28.966     8.826
    14   6 C        2.977    -0.000    28.027     8.684
    15   6 C        2.977    -0.000    28.027     8.684
    16   6 C        2.929    -0.039    28.962     8.826
    17   6 C        2.908    -0.052    29.290     8.874
    18   6 C        3.077     0.044    26.924     8.507
    19   6 C        3.065    -0.018    28.395     8.738
    20   6 C        2.918    -0.039    28.966     8.826
    21   6 C        3.069    -0.017    28.366     8.733
    22   6 C        2.913    -0.033    28.823     8.803
    23   6 C        2.920    -0.041    29.026     8.835
    24   6 C        2.924    -0.034    28.843     8.807
    25   6 C        2.910    -0.051    29.271     8.871
    26   6 C        3.076     0.047    26.877     8.500
    27   7 N        2.802    -0.044    22.096     6.982
    28   6 C        2.913     0.065    26.538     8.447
    29   6 C        2.922    -0.042    29.055     8.840
    30   6 C        2.920    -0.028    28.703     8.786
    31   6 C        2.919    -0.033    28.834     8.806
    32   6 C        2.920    -0.028    28.702     8.785
    33   6 C        2.922    -0.042    29.053     8.839
    34   6 C        2.929    -0.039    28.962     8.826
    35   6 C        2.908    -0.052    29.291     8.874
    36   6 C        3.077     0.044    26.924     8.507
    37   6 C        2.922    -0.042    29.056     8.840
    38   6 C        2.920    -0.028    28.703     8.786
    39   1 H        0.926     0.034     2.525     2.485
    40   1 H        0.926     0.036     2.509     2.477
    41   1 H        0.926     0.041     2.441     2.443
    42   1 H        0.926     0.026     2.637     2.539
    43   1 H        0.926     0.028     2.618     2.530
    44   1 H        0.926     0.027     2.632     2.537
    45   1 H        0.926     0.030     2.587     2.515
    46   1 H        0.926     0.032     2.558     2.501
    47   1 H        0.926     0.031     2.571     2.507
    48   1 H        0.926     0.027     2.633     2.538
    49   1 H        0.926     0.032     2.558     2.501
    50   1 H        0.926     0.030     2.587     2.515
    51   1 H        0.926     0.027     2.632     2.537
    52   1 H        0.926     0.028     2.618     2.530
    53   1 H        0.926     0.026     2.637     2.539
    54   1 H        0.926     0.040     2.445     2.445
    55   1 H        0.926     0.035     2.511     2.478
    56   1 H        0.926     0.034     2.525     2.485
    57   1 H        0.926     0.036     2.509     2.477
    58   1 H        0.926     0.041     2.441     2.443
    59   1 H        0.926     0.031     2.571     2.507
    60   1 H        0.926     0.027     2.633     2.538
    61   1 H        0.926     0.040     2.445     2.445
    62   1 H        0.926     0.035     2.511     2.478

molecular dipole:
                 x           y           z       tot (Debye)
 q only:        0.001      -0.000       0.257
   full:        0.001      -0.000       0.297       0.754

 projected vibrational frequencies (cm⁻¹)
eigval :       -0.00    -0.00    -0.00     0.00     0.00     0.00
eigval :       13.76    20.31    24.50    46.60    52.42    62.10
eigval :       64.21    71.83    73.67    98.26   110.62   128.11
eigval :      131.79   160.20   174.62   186.88   213.84   238.89
eigval :      244.35   250.18   264.58   283.64   319.78   338.10
eigval :      348.80   380.58   380.78   381.79   395.17   399.65
eigval :      404.43   416.91   429.14   431.58   446.73   462.90
eigval :      476.39   490.58   526.27   534.80   535.77   556.82
eigval :      572.58   580.37   587.24   591.86   593.98   606.40
eigval :      610.58   618.70   626.13   655.04   670.13   672.32
eigval :      678.42   687.07   706.13   708.11   716.63   729.80
eigval :      763.25   763.61   767.83   775.44   775.68   813.42
eigval :      832.96   847.55   869.22   869.44   875.00   877.10
eigval :      882.69   884.07   893.71   900.25   900.96   904.96
eigval :      905.78   914.56   914.82   919.11   921.84   921.84
eigval :      923.31   933.13   933.35   933.37   934.32   935.83
eigval :      997.98   998.42  1013.09  1030.60  1070.95  1072.04
eigval :     1073.42  1080.70  1080.72  1118.21  1118.25  1121.76
eigval :     1125.15  1155.36  1157.68  1178.82  1178.94  1181.33
eigval :     1181.34  1183.62  1184.37  1200.21  1201.44  1212.44
eigval :     1232.86  1242.83  1248.89  1256.89  1274.35  1275.43
eigval :     1276.27  1294.49  1305.51  1318.22  1318.37  1320.26
eigval :     1346.18  1353.37  1361.03  1362.60  1364.84  1380.95
eigval :     1418.25  1422.58  1429.95  1434.87  1436.72  1440.64
eigval :     1460.39  1482.34  1483.96  1484.53  1485.40  1501.12
eigval :     1564.28  1568.92  1582.40  1582.74  1584.44  1585.98
eigval :     1596.38  1596.64  1597.56  1600.66  1613.05  1617.97
eigval :     3075.24  3075.25  3077.58  3077.87  3078.35  3078.53
eigval :     3080.38  3080.43  3080.93  3081.01  3086.03  3086.98
eigval :     3088.38  3088.87  3090.24  3090.63  3091.05  3091.30
eigval :     3094.11  3094.14  3095.09  3095.30  3098.93  3098.96

   temp. (K)  partition function   enthalpy   heat capacity  entropy
                                   cal/mol     cal/K/mol   cal/K/mol   J/K/mol
 298.15  VIB  0.561E+12            16305.637    108.490     99.621
         ROT  0.263E+08              888.752      2.981     36.933
         INT  0.148E+20            17194.389    111.471    136.554
         TR   0.103E+29             1481.254      4.968     44.402
         TOT                       18675.6431   116.4395   180.9556   757.1184

       T/K    H(0)-H(T)+PV         H(T)/Eh          T*S/Eh         G(T)/Eh
   ------------------------------------------------------------------------
    298.15    0.297615E-01    0.509475E+00    0.859779E-01    0.423497E+00
   ------------------------------------------------------------------------

         :::::::::::::::::::::::::::::::::::::::::::::::::::::
         ::                  THERMODYNAMIC                  ::
         :::::::::::::::::::::::::::::::::::::::::::::::::::::
         :: total free energy         -94.814366353291 Eh   ::
         ::.................................................::
         :: total energy              -95.237863234671 Eh   ::
         :: zero point energy           0.479713212876 Eh   ::
         :: G(RRHO) w/o ZPVE           -0.056216331496 Eh   ::
         :: G(RRHO) contrib.            0.423496881380 Eh   ::
         :::::::::::::::::::::::::::::::::::::::::::::::::::::

           -------------------------------------------------
          | TOTAL ENERGY              -95.237863234671 Eh   |
          | TOTAL ENTHALPY            -94.728388490058 Eh   |
          | TOTAL FREE ENERGY         -94.814366353291 Eh   |
          | GRADIENT NORM               0.000057035565 Eh/α |
          | HOMO-LUMO GAP               2.946062748729 eV   |
           -------------------------------------------------

 * finished run on 2025/07/20 at 02:34:48.370
