   * xtb version 6.7.1 (edcfbbe) compiled by 'albert@albert-system' on 2024-07-22

   ID    Z sym.   atoms
    1    6 C      1-4, 6-26, 28-38
    2    7 N      5, 27
    3    1 H      39-62

          program call               : xtb data2507/gas/BCzPh/BCzPh_gas_S0_finalOpt.xtbopt.xyz --gfn 2 --spinpol --tblite --uhf 2 --ohess vtight --parallel 40 --molden --ceasefiles --namespace data2507/gas/BCzPh/BCzPh_gas_T1_preOpt
 * total energy  :   -95.1296964 Eh     change        0.5070835E-07 Eh
 * total energy  :   -95.1318634 Eh     change       -0.2167028E-02 Eh
 * total energy  :   -95.1326553 Eh     change       -0.7918718E-03 Eh
 * total energy  :   -95.1328555 Eh     change       -0.2002432E-03 Eh
 * total energy  :   -95.1330937 Eh     change       -0.2381078E-03 Eh
 * total energy  :   -95.1333202 Eh     change       -0.2265015E-03 Eh
 * total energy  :   -95.1337477 Eh     change       -0.4275460E-03 Eh
 * total energy  :   -95.1340790 Eh     change       -0.3313439E-03 Eh
 * total energy  :   -95.1343879 Eh     change       -0.3088960E-03 Eh
 * total energy  :   -95.1345524 Eh     change       -0.1644220E-03 Eh
 * total energy  :   -95.1368650 Eh     change       -0.4815124E-06 Eh
 * total energy  :   -95.1368654 Eh     change       -0.4506954E-06 Eh
 * total energy  :   -95.1368658 Eh     change       -0.3933120E-06 Eh
 * total energy  :   -95.1368662 Eh     change       -0.3506152E-06 Eh
 * total energy  :   -95.1368665 Eh     change       -0.2997879E-06 Eh
 * total energy  :   -95.1368669 Eh     change       -0.4213278E-06 Eh
 * total energy  :   -95.1368674 Eh     change       -0.5071937E-06 Eh
 * total energy  :   -95.1368681 Eh     change       -0.6904186E-06 Eh
 * total energy  :   -95.1368681 Eh     change       -0.3842075E-08 Eh
   *** GEOMETRY OPTIMIZATION CONVERGED AFTER 94 ITERATIONS ***

 final structure:
================
62
 xtb: 6.7.1 (edcfbbe)
C           -7.77627388396652       -3.01639604936588        0.22917651547039
C           -6.68695224779814       -3.14239231796090       -0.62038967184261
C           -5.73179151217980       -2.14803897193371       -0.68417833232162
C           -5.85640649789123       -1.00856406819594        0.11254766492955
N           -4.88962063455933       -0.00241785653551        0.05576057833029
C           -5.14416710529813        1.35290685071889       -0.08423609309894
C           -6.35468549419930        2.01256564138728       -0.23296036720336
C           -6.32573557097212        3.38876706493081       -0.39166343918547
C           -5.12767749378691        4.09092636103306       -0.41320637087112
C           -3.91361648510368        3.43035175569248       -0.29538234994016
C           -3.91887423599902        2.05630752504737       -0.13674807081023
C           -2.86950651036817        1.06960655770523       -0.01795040778174
C           -1.50849739855510        1.16374688249979        0.01095991333632
C           -0.70120321234501       -0.02510817608844        0.14178492404452
C            0.70122967448368        0.02485577988256        0.14152294098837
C            1.41869775543551        1.27218028642284        0.28926194918457
C            2.77494879201030        1.36287911764044        0.27927694460341
C            3.53014583939383        0.18987248288509        0.08972428746655
C            2.86946158739464       -1.06995815384914       -0.01850527138594
C            1.50846115137508       -1.16405710350424        0.01084118901834
C            3.91876835310409       -2.05672264046237       -0.13725271245828
C            3.91341879529323       -3.43082958685711       -0.29535632558497
C            5.12742694146516       -4.09148768650069       -0.41324494122689
C            6.32551080018853       -3.38935593260891       -0.39230274535716
C            6.35454967108283       -2.01309140190739       -0.23416062987957
C            5.14409268924318       -1.35333643799488       -0.08535517559379
N            4.88962109527011        0.00204359314274        0.05421425962617
C            5.85642273893928        1.00820078116284        0.11031870691957
C            6.95083239973661        0.88648402524802        0.96851080242227
C            7.90244699012469        1.88514890199921        1.01862031117840
C            7.77631341704377        3.01609182190522        0.22559876530729
C            6.68669511590475        3.14178711236533       -0.62363351295443
C            5.73152658754941        2.14740277095294       -0.68675669532096
C           -1.41860056269915       -1.27239340113222        0.29020991520221
C           -2.77485301934255       -1.36312653037355        0.28067225331877
C           -3.53013534700144       -0.19020145440168        0.09092409527140
C           -6.95051423626625       -0.88654615566716        0.97108071218954
C           -7.90212230382431       -1.88518708486333        1.02186181786552
H           -8.52174470474982       -3.79549015175524        0.27423390618238
H           -6.58700132617943       -4.01921246983807       -1.24304658238417
H           -4.89659640981238       -2.23092299315295       -1.36342352027400
H           -7.29097210598086        1.47581872718634       -0.24048358070092
H           -7.25668469756350        3.92438586006332       -0.50524942773933
H           -5.14339671649165        5.16358826907006       -0.53560150315658
H           -2.98238307198788        3.97488709127166       -0.33325571481297
H           -1.04390430483405        2.12910335999426       -0.09684029257552
H            0.85305587880778        2.17142792786277        0.46864452329006
H            3.26712545031799        2.31152301582112        0.43580597594564
H            1.04381931539700       -2.12943977695229       -0.09651552123129
H            2.98215625037885       -3.97534330075577       -0.33276395123579
H            5.14307968708698       -5.16419817912392       -0.53522255240473
H            7.25641172369739       -3.92504831675161       -0.50593667555494
H            7.29085227095576       -1.47638315495824       -0.24216098872849
H            7.03112461337999        0.02018504557815        1.60793623889402
H            8.74435616209988        1.78666547889236        1.68800889028434
H            8.52179315640623        3.79520442537958        0.27013027640835
H            6.58651786800179        4.01839816663286       -1.24654687624501
H            4.89610106698741        2.23004099578329       -1.36574634327935
H           -0.85288445113879       -2.17156023318059        0.46978614424099
H           -3.26696554174863       -2.31172197146137        0.43770454502902
H           -7.03058053846581       -0.02002312605514        1.61023380355412
H           -8.74378498216811       -1.78647642702240        1.69152874042196

 projected vibrational frequencies (cm⁻¹)
eigval :       -0.00    -0.00    -0.00     0.00     0.00     0.00
eigval :       11.44    17.03    28.72    45.25    51.93    61.63
eigval :       63.63    75.42    78.36    95.64   112.80   115.51
eigval :      125.78   153.25   171.43   171.50   208.45   232.02
eigval :      236.18   254.54   259.88   272.13   274.52   327.35
eigval :      335.76   361.21   378.29   381.65   383.78   386.75
eigval :      393.23   398.45   406.13   412.06   437.32   456.42
eigval :      466.21   484.51   515.59   521.01   530.59   544.04
eigval :      558.82   572.64   577.35   585.07   587.60   589.87
eigval :      596.09   609.02   610.65   640.13   648.08   649.83
eigval :      661.62   666.95   695.20   697.48   701.52   719.39
eigval :      755.53   756.03   758.74   768.55   769.72   774.83
eigval :      775.81   780.82   785.76   841.94   863.25   863.36
eigval :      873.47   874.69   877.91   884.18   888.20   890.69
eigval :      897.46   898.01   900.60   900.86   916.58   917.82
eigval :      917.84   919.37   927.45   927.50   930.42   930.47
eigval :      963.24   988.89   990.69   997.72  1007.42  1069.58
eigval :     1072.11  1075.34  1076.71  1077.39  1112.13  1119.17
eigval :     1119.44  1125.69  1147.61  1164.81  1168.12  1177.03
eigval :     1178.14  1179.14  1179.19  1187.40  1189.02  1199.07
eigval :     1201.95  1234.21  1235.67  1243.61  1256.53  1262.42
eigval :     1271.69  1274.91  1281.62  1293.00  1311.88  1324.01
eigval :     1324.25  1337.00  1340.52  1348.04  1351.46  1374.41
eigval :     1375.08  1405.50  1418.86  1424.69  1425.83  1434.85
eigval :     1436.99  1448.77  1463.86  1466.26  1472.17  1474.47
eigval :     1506.41  1510.18  1535.51  1535.93  1536.49  1566.54
eigval :     1568.64  1580.18  1581.22  1586.39  1586.50  1607.32
eigval :     3075.69  3075.75  3077.70  3077.72  3078.27  3078.33
eigval :     3079.75  3079.77  3084.19  3084.23  3090.53  3090.54
eigval :     3091.95  3092.01  3093.67  3093.73  3096.84  3097.14
eigval :     3099.05  3099.68  3104.75  3107.27  3117.77  3119.45

   temp. (K)  partition function   enthalpy   heat capacity  entropy
                                   cal/mol     cal/K/mol   cal/K/mol   J/K/mol
 298.15  VIB  0.122E+13            16732.297    111.045    102.405
         ROT  0.264E+08              888.752      2.981     36.944
         INT  0.324E+20            17621.049    114.025    139.349
         TR   0.103E+29             1481.254      4.968     44.402
         TOT                       19102.3028   118.9935   183.7508   768.8132

       T/K    H(0)-H(T)+PV         H(T)/Eh          T*S/Eh         G(T)/Eh
   ------------------------------------------------------------------------
    298.15    0.304415E-01    0.505073E+00    0.873059E-01    0.417767E+00
   ------------------------------------------------------------------------

         :::::::::::::::::::::::::::::::::::::::::::::::::::::
         ::                  THERMODYNAMIC                  ::
         :::::::::::::::::::::::::::::::::::::::::::::::::::::
         :: total free energy         -94.719100931350 Eh   ::
         ::.................................................::
         :: total energy              -95.136868082358 Eh   ::
         :: zero point energy           0.474631607440 Eh   ::
         :: G(RRHO) w/o ZPVE           -0.056864456433 Eh   ::
         :: G(RRHO) contrib.            0.417767151007 Eh   ::
         :::::::::::::::::::::::::::::::::::::::::::::::::::::

           -------------------------------------------------
          | TOTAL ENERGY              -95.136868082358 Eh   |
          | TOTAL ENTHALPY            -94.631795017706 Eh   |
          | TOTAL FREE ENERGY         -94.719100931350 Eh   |
          | GRADIENT NORM               0.000044656466 Eh/α |
           -------------------------------------------------

 * finished run on 2025/07/20 at 02:34:57.578
