   * xtb version 6.7.1 (edcfbbe) compiled by 'albert@albert-system' on 2024-07-22

   ID    Z sym.   atoms
    1    6 C      1-9, 11-14, 16-19, 21-45
    2    7 N      10, 15, 20
    3    1 H      46-80

          program call               : xtb data2507/toluene/DMAC-Cz/DMAC-Cz_toluene_T1_crest.xyz --gfn 2 --uhf 2 --gbsa toluene --ohess vtight --parallel 40 --molden --ceasefiles --namespace data2507/toluene/DMAC-Cz/DMAC-Cz_toluene_T1_finalOpt
      * Solvation model:               GBSA
        Solvent                        toluene
        Solvent mass                       9.2140E+01 g/mol
          :  Hamiltonian                  GFN2-xTB          :
 * total energy  :  -116.6029908 Eh     change       -0.8389335E-07 Eh
 * total energy  :  -116.6030455 Eh     change       -0.5472695E-04 Eh
 * total energy  :  -116.6030644 Eh     change       -0.1883378E-04 Eh
 * total energy  :  -116.6030702 Eh     change       -0.5854608E-05 Eh
 * total energy  :  -116.6030750 Eh     change       -0.4770702E-05 Eh
 * total energy  :  -116.6030784 Eh     change       -0.3365952E-05 Eh
 * total energy  :  -116.6030812 Eh     change       -0.2811963E-05 Eh
 * total energy  :  -116.6030836 Eh     change       -0.2448183E-05 Eh
 * total energy  :  -116.6030858 Eh     change       -0.2168800E-05 Eh
 * total energy  :  -116.6030873 Eh     change       -0.1505798E-05 Eh
 * total energy  :  -116.6030990 Eh     change       -0.2671267E-06 Eh
 * total energy  :  -116.6030993 Eh     change       -0.2267618E-06 Eh
 * total energy  :  -116.6030995 Eh     change       -0.2195685E-06 Eh
 * total energy  :  -116.6030998 Eh     change       -0.2641245E-06 Eh
 * total energy  :  -116.6031001 Eh     change       -0.3386568E-06 Eh
 * total energy  :  -116.6031005 Eh     change       -0.3827005E-06 Eh
 * total energy  :  -116.6031008 Eh     change       -0.3181440E-06 Eh
 * total energy  :  -116.6031008 Eh     change        0.1082090E-07 Eh
 * total energy  :  -116.6031008 Eh     change       -0.6779786E-08 Eh
   *** GEOMETRY OPTIMIZATION CONVERGED AFTER 45 ITERATIONS ***

 final structure:
================
80
 xtb: 6.7.1 (edcfbbe)
C           -6.01016511721299        2.15242327349057        2.45944988212143
C           -6.15297784078583        1.36331049737542        1.14313631738883
C           -7.58520515121946        1.50525909543831        0.59157411852106
C           -5.18790827300416        1.92985719650343        0.12311360405023
C           -5.29419960690833        3.26248115697795       -0.25175175259013
C           -4.46880738303956        3.82479118796808       -1.20842977362913
C           -3.52215950509797        3.03145609083718       -1.83964183952266
C           -3.39611665946271        1.70561872225637       -1.49116144845889
C           -4.19888983524830        1.14128514676280       -0.48807547232926
N           -4.03381521580720       -0.18626403627446       -0.14494087735631
C           -3.02530140342268       -0.95013241026543       -0.79503915988788
C           -3.41606029620299       -1.96776186078891       -1.66587661709047
C           -2.44432494393708       -2.73298529124700       -2.33944702492273
C           -1.12176890788230       -2.45521768285442       -2.08930537438005
N            0.00629817741403       -3.04509734566149       -2.60649634311148
C            1.13088064236665       -2.44864159563034       -2.08956760740216
C            2.45505483214874       -2.71853747998112       -2.33998799867097
C            3.42230745201454       -1.94849145806146       -1.66566327932105
C            3.02579290654692       -0.93415415730802       -0.79335914570453
N            4.03024011527554       -0.16719679127655       -0.14090719688282
C            4.83294411343487       -0.77677750033070        0.80299490394201
C            4.57810750499776       -2.10538868716462        1.17548982812295
C            5.37671434914999       -2.75096160674121        2.09221922556977
C            6.44221108142042       -2.07963116666699        2.67418838950809
C            6.66802594892534       -0.75496263795823        2.34735977954382
C            5.87837991226361       -0.07744908414397        1.42789002693844
C            6.14468240846469        1.38674729300039        1.14980893827255
C            7.57470626460390        1.53857341756701        0.59517771484765
C            6.00146879864889        2.16844622751484        2.47051222526405
C            5.17409898183987        1.95348100048184        0.13518496469433
C            5.27257734323884        3.28855513568944       -0.23295419085242
C            4.44216973368910        3.85151706120299       -1.18490872613781
C            3.49856662393177        3.05637096064791       -1.81850067200622
C            3.38034738332636        1.72806615530146       -1.47678695476996
C            4.18785219005910        1.16284967883648       -0.47796906791418
C            1.68882886517787       -0.64705558466729       -0.53834377256464
C            0.70633481726402       -1.42268695377701       -1.18709277938982
C           -0.70308476203324       -1.42667641832986       -1.18715610981848
C           -1.69002028147642       -0.65565010158084       -0.53963760622323
C           -4.83181679706763       -0.79560660186973        0.80299933396052
C           -4.57066782056342       -2.12174265566417        1.17970120267311
C           -5.36389071013507       -2.76688769408482        2.10142802455546
C           -6.43013611504512       -2.09746707854504        2.68413256153958
C           -6.66263402377254       -0.77519844537532        2.35236131605549
C           -5.87870696096196       -0.09824349371218        1.42757696213671
H           -6.70307036616876        1.78220225808015        3.20934001571683
H           -6.21133747492213        3.20785298435789        2.30069079902677
H           -4.99755275069536        2.04863400414840        2.84544611508918
H           -8.31109650106080        1.11398472970847        1.29854261378740
H           -7.82342041566192        2.54723580258307        0.39841273126195
H           -7.67944405021715        0.95189214143535       -0.34121447353990
H           -6.04400200284639        3.88543841084141        0.21117773878537
H           -4.57460520491135        4.86632181889138       -1.47165062778076
H           -2.88701788338664        3.44441834720281       -2.60915151564468
H           -2.67122053298902        1.08747381969715       -1.99628287146258
H           -4.46519602736345       -2.14845400260965       -1.84006748978208
H           -2.74180455524022       -3.49868506291601       -3.04010822609554
H            0.00846962490904       -3.80995046018506       -3.26058614565846
H            2.75690343707140       -3.48198685383031       -3.04123691681840
H            4.47246630266451       -2.12306900669182       -1.83989905753927
H            3.74050717344728       -2.62359745398854        0.73654234813813
H            5.16469530173868       -3.77578449307353        2.35839814960890
H            7.07979607287827       -2.57825005356342        3.38836888768628
H            7.48430674580932       -0.23809431611351        2.82821476651224
H            7.80655419936454        2.58249116483158        0.40476208733868
H            7.66976462930620        0.98872614936407       -0.33961092587179
H            8.30450492848707        1.14913783206768        1.29913088284377
H            6.69947526406484        1.79901002983400        3.21603868216373
H            4.99095034769016        2.05613297204129        2.85962670363895
H            6.19522449406652        3.22592996399460        2.31630560964720
H            6.02014891261567        3.91302557402012        0.23155452804274
H            4.54187487088771        4.89496732506640       -1.44283824846858
H            2.85970780887463        3.47004461491072       -2.58453825867910
H            2.65785091417436        1.10871225529957       -1.98386484120148
H            1.41706708364149        0.13043902183935        0.15845546020898
H           -1.42286339807957        0.12463279087727        0.15581563833400
H           -3.73242913436986       -2.63830459625486        0.74000420155305
H           -5.14706751539124       -3.78985557341976        2.37086751425452
H           -7.06339476409272       -2.59574361243036        3.40240507896027
H           -7.47966924830793       -0.25976688570801        2.83349089656722

          :  Hamiltonian                  GFN2-xTB          :
         :: gradient norm              0.000072778973 Eh/a0 ::
         :: HOMO-LUMO gap              0.146133130735 eV    ::
         :: SCC energy              -118.696232922095 Eh    ::
         :: -> dispersion             -0.111637146474 Eh    ::
         :: -> Gsolv                  -0.045226185375 Eh    ::
         :: repulsion energy           2.093132124737 Eh    ::

    * Orbital Energies and Occupations

         #    Occupation            Energy/Eh            Energy/eV
      -------------------------------------------------------------
         1        2.0000           -0.6697512             -18.2249
       ...           ...                  ...                  ...
        98        2.0000           -0.4074657             -11.0877
        99        2.0000           -0.4065294             -11.0622
       100        2.0000           -0.4031901             -10.9714
       101        2.0000           -0.4019850             -10.9386
       102        2.0000           -0.4008792             -10.9085
       103        2.0000           -0.3968797             -10.7996
       104        2.0000           -0.3963891             -10.7863
       105        2.0000           -0.3910504             -10.6410
       106        2.0000           -0.3611301              -9.8269
       107        2.0000           -0.3585480              -9.7566
       108        1.9044           -0.3490005              -9.4968
       109        1.0956           -0.3447306              -9.3806
       110        0.9219           -0.2356433              -6.4122 (HOMO)
       111        0.0398           -0.2302739              -6.2661 (LUMO)
       112        0.0382           -0.2302346              -6.2650
       113        0.0000           -0.2230419              -6.0693
       114        0.0000           -0.2229230              -6.0660
       115        0.0000           -0.2219787              -6.0403
       116        0.0000           -0.2214856              -6.0269
       117                         -0.2120907              -5.7713
       118                         -0.1981813              -5.3928
       119                         -0.1930672              -5.2536
       120                         -0.1806558              -4.9159
       121                         -0.1727270              -4.7001
       ...                                ...                  ...
       215                          0.7595996              20.6698
      -------------------------------------------------------------
                  HL-Gap            0.0053694 Eh            0.1461 eV

     #   Z          covCN         q      C6AA      α(0)
     1   6 C        3.761    -0.105    22.549     6.769
     2   6 C        3.909     0.023    20.138     6.378
     3   6 C        3.761    -0.105    22.543     6.768
     4   6 C        2.978    -0.008    28.224     8.714
     5   6 C        2.925    -0.037    28.917     8.819
     6   6 C        2.917    -0.039    28.977     8.827
     7   6 C        2.918    -0.033    28.820     8.803
     8   6 C        2.923    -0.051    29.263     8.871
     9   6 C        2.928     0.061    26.644     8.465
    10   7 N        2.756    -0.034    21.903     6.951
    11   6 C        2.923     0.051    26.863     8.500
    12   6 C        2.920    -0.078    29.952     8.975
    13   6 C        2.906    -0.074    29.837     8.957
    14   6 C        3.052     0.049    26.859     8.500
    15   7 N        2.757    -0.122    23.658     7.224
    16   6 C        3.052     0.049    26.857     8.499
    17   6 C        2.906    -0.074    29.838     8.957
    18   6 C        2.920    -0.078    29.952     8.975
    19   6 C        2.923     0.051    26.862     8.499
    20   7 N        2.756    -0.034    21.898     6.950
    21   6 C        2.929     0.060    26.649     8.466
    22   6 C        2.923    -0.051    29.260     8.871
    23   6 C        2.918    -0.033    28.828     8.805
    24   6 C        2.917    -0.039    28.980     8.828
    25   6 C        2.925    -0.037    28.920     8.819
    26   6 C        2.978    -0.009    28.225     8.715
    27   6 C        3.909     0.023    20.138     6.378
    28   6 C        3.761    -0.105    22.543     6.768
    29   6 C        3.761    -0.105    22.549     6.769
    30   6 C        2.978    -0.008    28.223     8.714
    31   6 C        2.925    -0.037    28.917     8.819
    32   6 C        2.917    -0.039    28.977     8.827
    33   6 C        2.918    -0.033    28.820     8.803
    34   6 C        2.923    -0.051    29.263     8.871
    35   6 C        2.928     0.060    26.645     8.465
    36   6 C        2.910    -0.073    29.821     8.954
    37   6 C        3.064    -0.035    28.808     8.801
    38   6 C        3.064    -0.035    28.809     8.801
    39   6 C        2.910    -0.073    29.821     8.954
    40   6 C        2.929     0.060    26.647     8.466
    41   6 C        2.923    -0.051    29.261     8.871
    42   6 C        2.918    -0.033    28.827     8.804
    43   6 C        2.917    -0.039    28.981     8.828
    44   6 C        2.925    -0.037    28.919     8.819
    45   6 C        2.978    -0.009    28.226     8.715
    46   1 H        0.925     0.046     2.364     2.405
    47   1 H        0.925     0.047     2.361     2.403
    48   1 H        0.925     0.033     2.548     2.496
    49   1 H        0.925     0.047     2.363     2.404
    50   1 H        0.925     0.046     2.364     2.405
    51   1 H        0.925     0.033     2.550     2.497
    52   1 H        0.926     0.040     2.452     2.449
    53   1 H        0.926     0.034     2.533     2.489
    54   1 H        0.926     0.033     2.542     2.493
    55   1 H        0.926     0.039     2.459     2.452
    56   1 H        0.926     0.012     2.857     2.643
    57   1 H        0.926     0.012     2.852     2.641
    58   1 H        0.860     0.158     1.351     1.820
    59   1 H        0.926     0.012     2.852     2.641
    60   1 H        0.926     0.012     2.856     2.643
    61   1 H        0.926     0.038     2.470     2.458
    62   1 H        0.926     0.033     2.547     2.496
    63   1 H        0.926     0.034     2.536     2.490
    64   1 H        0.926     0.040     2.453     2.449
    65   1 H        0.925     0.046     2.364     2.405
    66   1 H        0.925     0.033     2.550     2.497
    67   1 H        0.925     0.047     2.363     2.404
    68   1 H        0.925     0.046     2.364     2.404
    69   1 H        0.925     0.033     2.548     2.496
    70   1 H        0.925     0.047     2.361     2.403
    71   1 H        0.926     0.040     2.452     2.449
    72   1 H        0.926     0.034     2.533     2.489
    73   1 H        0.926     0.033     2.542     2.493
    74   1 H        0.926     0.039     2.458     2.452
    75   1 H        0.926     0.014     2.826     2.629
    76   1 H        0.926     0.014     2.827     2.629
    77   1 H        0.926     0.038     2.471     2.458
    78   1 H        0.926     0.033     2.547     2.496
    79   1 H        0.926     0.034     2.536     2.490
    80   1 H        0.926     0.040     2.454     2.449

molecular dipole:
                 x           y           z       tot (Debye)
 q only:        0.002       1.028       0.827
   full:        0.003       0.738       0.581       2.387

 projected vibrational frequencies (cm⁻¹)
eigval :       -0.00    -0.00    -0.00     0.00     0.00     0.00
eigval :        7.29    11.26    14.49    20.27    31.05    39.07
eigval :       55.03    59.23    86.96    91.25    94.13   103.34
eigval :      115.44   123.81   128.47   133.93   137.47   167.78
eigval :      173.08   197.44   199.73   201.97   216.77   218.17
eigval :      218.24   227.93   237.93   240.71   246.74   301.63
eigval :      303.67   326.55   326.99   333.36   339.98   342.51
eigval :      349.04   351.70   354.50   375.80   380.34   382.12
eigval :      393.95   396.65   410.68   413.90   415.40   447.02
eigval :      450.32   468.01   474.99   490.59   503.64   504.09
eigval :      514.50   516.38   531.66   538.06   541.56   541.87
eigval :      542.10   556.38   583.14   583.92   589.67   606.84
eigval :      611.03   625.45   629.16   651.55   653.28   661.28
eigval :      664.65   682.45   683.50   697.13   697.28   709.98
eigval :      727.37   733.44   735.31   750.94   757.26   769.42
eigval :      770.93   771.60   772.94   789.05   796.97   798.24
eigval :      824.10   824.35   838.35   840.74   864.25   864.74
eigval :      865.03   865.32   908.57   909.16   910.10   910.42
eigval :      913.54   914.13   914.77   915.08   918.67   919.47
eigval :      920.50   932.91   935.41   956.90   957.02   978.10
eigval :     1012.29  1012.66  1015.32  1064.45  1072.14  1072.58
eigval :     1075.78  1084.40  1102.05  1107.38  1110.72  1111.13
eigval :     1115.14  1135.34  1135.93  1141.41  1148.02  1148.45
eigval :     1150.27  1150.30  1178.33  1178.46  1179.20  1181.42
eigval :     1181.96  1184.17  1191.59  1205.38  1224.71  1228.47
eigval :     1235.03  1237.47  1242.75  1245.86  1249.13  1251.97
eigval :     1264.11  1285.03  1292.65  1293.01  1294.33  1299.71
eigval :     1313.78  1315.58  1330.33  1330.40  1335.77  1336.25
eigval :     1365.14  1379.24  1394.57  1396.80  1396.85  1406.46
eigval :     1407.23  1415.49  1415.54  1419.38  1419.51  1425.85
eigval :     1440.12  1440.26  1453.79  1454.18  1466.77  1468.82
eigval :     1484.02  1484.36  1484.98  1485.00  1489.48  1493.83
eigval :     1494.07  1494.31  1498.87  1498.99  1513.30  1514.55
eigval :     1525.45  1525.95  1527.94  1528.82  1557.50  1557.91
eigval :     1572.04  3023.49  3023.54  3025.63  3025.70  3043.24
eigval :     3043.41  3045.19  3045.34  3050.84  3050.99  3054.48
eigval :     3054.71  3071.95  3072.64  3076.99  3077.07  3077.68
eigval :     3077.93  3084.02  3084.09  3084.43  3084.59  3085.73
eigval :     3087.41  3090.77  3092.85  3094.52  3094.81  3094.85
eigval :     3095.56  3107.50  3107.61  3107.87  3108.20  3468.23

   temp. (K)  partition function   enthalpy   heat capacity  entropy
                                   cal/mol     cal/K/mol   cal/K/mol   J/K/mol
 298.15  VIB  0.255E+17            22122.178    144.210    135.036
         ROT  0.725E+08              888.752      2.981     38.947
         INT  0.185E+25            23010.930    147.191    173.983
         TR   0.136E+29             1481.254      4.968     44.946
         TOT                       24492.1840   152.1595   218.9297   916.0017

       T/K    H(0)-H(T)+PV         H(T)/Eh          T*S/Eh         G(T)/Eh
   ------------------------------------------------------------------------
    298.15    0.390308E-01    0.673018E+00    0.104021E+00    0.568997E+00
   ------------------------------------------------------------------------

         :::::::::::::::::::::::::::::::::::::::::::::::::::::
         ::                  THERMODYNAMIC                  ::
         :::::::::::::::::::::::::::::::::::::::::::::::::::::
         :: total free energy        -116.034103392891 Eh   ::
         ::.................................................::
         :: total energy             -116.603100797808 Eh   ::
         :: zero point energy           0.633987169257 Eh   ::
         :: G(RRHO) w/o ZPVE           -0.064989764340 Eh   ::
         :: G(RRHO) contrib.            0.568997404917 Eh   ::
         :::::::::::::::::::::::::::::::::::::::::::::::::::::

           -------------------------------------------------
          | TOTAL ENERGY             -116.603100797808 Eh   |
          | TOTAL ENTHALPY           -115.930082848922 Eh   |
          | TOTAL FREE ENERGY        -116.034103392891 Eh   |
          | GRADIENT NORM               0.000067302362 Eh/α |
          | HOMO-LUMO GAP               0.146109470667 eV   |
           -------------------------------------------------

 * finished run on 2025/09/13 at 16:25:46.964
