   * xtb version 6.7.1 (edcfbbe) compiled by 'albert@albert-system' on 2024-07-22

   ID    Z sym.   atoms
    1    6 C      1-9, 11-14, 16-19, 21-45
    2    7 N      10, 15, 20
    3    1 H      46-80

          program call               : xtb data2507/toluene/DMAC-Cz/DMAC-Cz_toluene_S0_finalOpt.xtbopt.xyz --gfn 2 --uhf 2 --gbsa toluene --ohess vtight --parallel 40 --molden --ceasefiles --namespace data2507/toluene/DMAC-Cz/DMAC-Cz_toluene_T1_preOpt
      * Solvation model:               GBSA
        Solvent                        toluene
        Solvent mass                       9.2140E+01 g/mol
          :  Hamiltonian                  GFN2-xTB          :
 * total energy  :  -116.5977288 Eh     change       -0.1181063E-07 Eh
 * total energy  :  -116.6004588 Eh     change       -0.2729994E-02 Eh
 * total energy  :  -116.6011076 Eh     change       -0.6488296E-03 Eh
 * total energy  :  -116.6011800 Eh     change       -0.7236329E-04 Eh
 * total energy  :  -116.6012295 Eh     change       -0.4956137E-04 Eh
 * total energy  :  -116.6012627 Eh     change       -0.3312980E-04 Eh
 * total energy  :  -116.6013196 Eh     change       -0.5688656E-04 Eh
 * total energy  :  -116.6013787 Eh     change       -0.5911244E-04 Eh
 * total energy  :  -116.6014384 Eh     change       -0.5969881E-04 Eh
 * total energy  :  -116.6014982 Eh     change       -0.5987825E-04 Eh
 * total energy  :  -116.6030315 Eh     change       -0.2110519E-05 Eh
 * total energy  :  -116.6030334 Eh     change       -0.1900425E-05 Eh
 * total energy  :  -116.6030351 Eh     change       -0.1733609E-05 Eh
 * total energy  :  -116.6030366 Eh     change       -0.1522331E-05 Eh
 * total energy  :  -116.6030379 Eh     change       -0.1259670E-05 Eh
 * total energy  :  -116.6030389 Eh     change       -0.9883625E-06 Eh
 * total energy  :  -116.6030397 Eh     change       -0.8017866E-06 Eh
 * total energy  :  -116.6030404 Eh     change       -0.7118394E-06 Eh
 * total energy  :  -116.6030404 Eh     change       -0.6438668E-08 Eh
   *** GEOMETRY OPTIMIZATION CONVERGED AFTER 94 ITERATIONS ***

 final structure:
================
80
 xtb: 6.7.1 (edcfbbe)
C           -5.99515395877782        0.63759232094171        3.22020557859969
C           -6.15696056992374        0.57468720461056        1.68859657766758
C           -7.61342658111640        0.89172104521179        1.29617223382542
C           -5.25169455156472        1.61117783703210        1.05677602351743
C           -5.42162479383963        2.95228926019089        1.37248088639686
C           -4.64963194099228        3.94583092335763        0.79806953208054
C           -3.68921591965088        3.60254479244506       -0.14247212201458
C           -3.49932772339539        2.28097778007308       -0.47725940806368
C           -4.25350321655724        1.26554775357767        0.13021688338149
N           -4.03233045808700       -0.05081185297339       -0.21944142693570
C           -3.02362935573625       -0.35709023077679       -1.17642567979309
C           -3.41849250523583       -0.79345915553131       -2.44099747016850
C           -2.44975275800563       -1.10454905688096       -3.41476994655731
C           -1.12628126963004       -0.99353406353358       -3.06140535846564
N           -0.00035876609913       -1.25389868612852       -3.80519880823995
C            1.12616073511895       -1.02307342010219       -3.05302230418943
C            2.44891358509386       -1.17024243066210       -3.39586619532354
C            3.41815336613098       -0.88270721249247       -2.41543517150937
C            3.02527378883399       -0.43394632918570       -1.15444851785506
N            4.03306935815394       -0.14900108621150       -0.19043503824931
C            4.74990333430841       -1.19375725516937        0.35678123858261
C            4.41443652974599       -2.51440843301813        0.02140725640262
C            5.12147126084448       -3.57803634496108        0.53459803271035
C            6.17491502230166       -3.35011142640779        1.40849869808237
C            6.48307332458821       -2.05252656062481        1.77490326594961
C            5.78658449346450       -0.96012159849540        1.27558056030417
C            6.14019464308684        0.43346286434437        1.75039808491155
C            7.60970407811518        0.72645910736876        1.38951927300971
C            5.94793733338110        0.49295784320058        3.27870427848451
C            5.26547434758591        1.48801066810404        1.10570263796855
C            5.45545469613578        2.82516472758572        1.42677142285157
C            4.71103614033505        3.83397155992617        0.84263102845844
C            3.75892275289494        3.51028179037818       -0.11328291669617
C            3.54926696302674        2.19310412559312       -0.45336173689022
C            4.27449991875570        1.16255671729234        0.16411273385493
C            1.69119091224806       -0.26338937961169       -0.80201906125520
C            0.70536299670405       -0.58058933551897       -1.75909228774155
C           -0.70387164950318       -0.56228931332765       -1.76432037671655
C           -1.68831287411345       -0.22089003677832       -0.81397670784669
C           -4.77402515104904       -1.08115914033993        0.32191435059568
C           -4.45648643447900       -2.40837053397312       -0.00462861495561
C           -5.18783471354387       -3.45816250605121        0.50308949121907
C           -6.24878971879372       -3.20936101619333        1.36199538022857
C           -6.54031550857541       -1.90545325814431        1.71933785806497
C           -5.81870532617582       -0.82675649209058        1.22580288221228
H           -4.96651059615656        0.40958048152262        3.49412201458216
H           -6.64793772100745       -0.08066399611744        3.70750863433830
H           -6.23871662606061        1.62795863734670        3.59375743288004
H           -7.89822972956718        1.88321832838246        1.63611098774125
H           -7.72234490820863        0.85439864979121        0.21359760393898
H           -8.29637443072439        0.17032252082832        1.73544262824532
H           -6.18033740160226        3.23744682646337        2.08496750723432
H           -4.80613952862454        4.97881220554193        1.06949804664372
H           -3.09364514863337        4.36625820889381       -0.62011154584909
H           -2.76341658060835        2.01670209207458       -1.21987241397953
H           -4.46851310963653       -0.87142300854284       -2.67553422946032
H           -2.75032653323234       -1.41124039870206       -4.40536239664836
H           -0.00126554915699       -1.59240616370787       -4.75292107966614
H            2.74879534651539       -1.48543167464751       -4.38400343036779
H            4.46752678893354       -0.98742277680932       -2.64231994640646
H            3.58677601303191       -2.69317850314285       -0.64625491955388
H            4.84744008240480       -4.58555723287274        0.25895802051814
H            6.74024639697664       -4.17615882317286        1.81249617571007
H            7.29001707381945       -1.89306683937541        2.47357245215116
H            7.90339379568827        1.71329757833980        1.73527135007699
H            7.74166805877809        0.68658967397433        0.30961115506182
H            8.27108171809630       -0.00552118303020        1.84393385429764
H            6.57711311523183       -0.23937088067621        3.77605255949340
H            4.90976044334039        0.28284075354419        3.53013093483261
H            6.20180893846017        1.47718017794779        3.66154034719213
H            6.20800527563538        3.09477999829825        2.15174272234930
H            4.88250528322705        4.86339352050942        1.11853770629615
H            3.18536591023499        4.28584936346583       -0.59866467244785
H            2.81988427159055        1.94416568246939       -1.20767641532699
H            1.42278236172037        0.06841365403013        0.18882750242638
H           -1.41874256018385        0.10228386924660        0.17940470344870
H           -3.62319099444923       -2.60325144592432       -0.66070562457895
H           -4.92705689378252       -4.47119304429616        0.23483394905654
H           -6.83320203442785       -4.02441752284846        1.76119721877157
H           -7.35412480838805       -1.72971030766321        2.40603633400516

          :  Hamiltonian                  GFN2-xTB          :
         :: gradient norm              0.000062126403 Eh/a0 ::
         :: HOMO-LUMO gap              0.141293751568 eV    ::
         :: SCC energy              -118.696337123044 Eh    ::
         :: -> dispersion             -0.111514762787 Eh    ::
         :: -> Gsolv                  -0.045356660255 Eh    ::
         :: repulsion energy           2.093296714396 Eh    ::

    * Orbital Energies and Occupations

         #    Occupation            Energy/Eh            Energy/eV
      -------------------------------------------------------------
         1        2.0000           -0.6699326             -18.2298
       ...           ...                  ...                  ...
        98        2.0000           -0.4074839             -11.0882
        99        2.0000           -0.4064797             -11.0609
       100        2.0000           -0.4032161             -10.9721
       101        2.0000           -0.4022009             -10.9444
       102        2.0000           -0.4010958             -10.9144
       103        2.0000           -0.3969802             -10.8024
       104        2.0000           -0.3966043             -10.7922
       105        2.0000           -0.3909073             -10.6371
       106        2.0000           -0.3603366              -9.8053
       107        2.0000           -0.3584011              -9.7526
       108        1.8877           -0.3493376              -9.5060
       109        1.1123           -0.3454098              -9.3991
       110        0.9154           -0.2356022              -6.4111 (HOMO)
       111        0.0438           -0.2304095              -6.2698 (LUMO)
       112        0.0407           -0.2303382              -6.2678
       113        0.0000           -0.2230947              -6.0707
       114        0.0000           -0.2229997              -6.0681
       115        0.0000           -0.2220619              -6.0426
       116        0.0000           -0.2216155              -6.0305
       117                         -0.2115096              -5.7555
       118                         -0.1975504              -5.3756
       119                         -0.1934668              -5.2645
       120                         -0.1811727              -4.9300
       121                         -0.1727845              -4.7017
       ...                                ...                  ...
       215                          0.7597199              20.6730
      -------------------------------------------------------------
                  HL-Gap            0.0051927 Eh            0.1413 eV

     #   Z          covCN         q      C6AA      α(0)
     1   6 C        3.761    -0.105    22.549     6.769
     2   6 C        3.909     0.023    20.137     6.378
     3   6 C        3.761    -0.105    22.543     6.768
     4   6 C        2.978    -0.008    28.224     8.714
     5   6 C        2.925    -0.037    28.913     8.818
     6   6 C        2.917    -0.039    28.978     8.827
     7   6 C        2.918    -0.033    28.817     8.803
     8   6 C        2.923    -0.051    29.258     8.870
     9   6 C        2.928     0.061    26.641     8.465
    10   7 N        2.756    -0.034    21.899     6.950
    11   6 C        2.923     0.050    26.874     8.501
    12   6 C        2.920    -0.078    29.946     8.974
    13   6 C        2.906    -0.074    29.840     8.957
    14   6 C        3.052     0.049    26.859     8.500
    15   7 N        2.757    -0.124    23.682     7.228
    16   6 C        3.052     0.049    26.856     8.499
    17   6 C        2.906    -0.074    29.841     8.957
    18   6 C        2.920    -0.078    29.947     8.974
    19   6 C        2.923     0.050    26.873     8.501
    20   7 N        2.756    -0.033    21.889     6.949
    21   6 C        2.929     0.060    26.649     8.466
    22   6 C        2.923    -0.051    29.257     8.870
    23   6 C        2.918    -0.033    28.826     8.804
    24   6 C        2.917    -0.039    28.980     8.828
    25   6 C        2.925    -0.037    28.917     8.819
    26   6 C        2.978    -0.008    28.224     8.715
    27   6 C        3.909     0.023    20.137     6.378
    28   6 C        3.761    -0.105    22.545     6.769
    29   6 C        3.761    -0.105    22.547     6.769
    30   6 C        2.978    -0.008    28.222     8.714
    31   6 C        2.925    -0.037    28.914     8.818
    32   6 C        2.917    -0.039    28.977     8.827
    33   6 C        2.918    -0.033    28.818     8.803
    34   6 C        2.923    -0.051    29.256     8.870
    35   6 C        2.928     0.060    26.645     8.465
    36   6 C        2.910    -0.073    29.822     8.955
    37   6 C        3.064    -0.035    28.807     8.801
    38   6 C        3.064    -0.035    28.808     8.801
    39   6 C        2.910    -0.073    29.823     8.955
    40   6 C        2.929     0.060    26.645     8.465
    41   6 C        2.923    -0.051    29.257     8.870
    42   6 C        2.918    -0.033    28.825     8.804
    43   6 C        2.917    -0.039    28.980     8.828
    44   6 C        2.925    -0.037    28.917     8.819
    45   6 C        2.978    -0.009    28.225     8.715
    46   1 H        0.925     0.033     2.547     2.496
    47   1 H        0.925     0.047     2.363     2.404
    48   1 H        0.925     0.047     2.361     2.403
    49   1 H        0.925     0.047     2.363     2.404
    50   1 H        0.925     0.033     2.550     2.497
    51   1 H        0.925     0.047     2.362     2.403
    52   1 H        0.926     0.040     2.450     2.448
    53   1 H        0.926     0.034     2.532     2.488
    54   1 H        0.926     0.033     2.541     2.493
    55   1 H        0.926     0.039     2.463     2.454
    56   1 H        0.926     0.012     2.863     2.646
    57   1 H        0.926     0.012     2.854     2.642
    58   1 H        0.860     0.157     1.352     1.822
    59   1 H        0.926     0.012     2.854     2.642
    60   1 H        0.926     0.012     2.860     2.645
    61   1 H        0.926     0.038     2.473     2.459
    62   1 H        0.926     0.033     2.546     2.495
    63   1 H        0.926     0.034     2.534     2.489
    64   1 H        0.926     0.040     2.452     2.449
    65   1 H        0.925     0.047     2.363     2.404
    66   1 H        0.925     0.033     2.549     2.497
    67   1 H        0.925     0.047     2.361     2.403
    68   1 H        0.925     0.047     2.363     2.404
    69   1 H        0.925     0.033     2.548     2.496
    70   1 H        0.925     0.047     2.360     2.402
    71   1 H        0.926     0.040     2.450     2.448
    72   1 H        0.926     0.034     2.531     2.488
    73   1 H        0.926     0.033     2.540     2.493
    74   1 H        0.926     0.039     2.463     2.454
    75   1 H        0.926     0.013     2.835     2.633
    76   1 H        0.926     0.013     2.835     2.633
    77   1 H        0.926     0.038     2.475     2.460
    78   1 H        0.926     0.033     2.546     2.495
    79   1 H        0.926     0.034     2.534     2.489
    80   1 H        0.926     0.040     2.452     2.449

molecular dipole:
                 x           y           z       tot (Debye)
 q only:        0.004       0.419       1.281
   full:        0.004       0.289       0.923       2.459

 projected vibrational frequencies (cm⁻¹)
eigval :       -0.00    -0.00    -0.00    -0.00     0.00     0.00
eigval :        9.69    12.51    13.12    19.52    28.36    38.70
eigval :       56.23    59.75    88.12    91.60    92.81   102.72
eigval :      111.35   123.11   124.07   127.85   135.58   166.95
eigval :      173.12   192.27   196.72   201.07   216.08   217.82
eigval :      219.00   224.87   237.30   239.93   245.08   302.20
eigval :      304.16   326.31   326.64   334.26   340.97   341.56
eigval :      347.93   351.91   354.31   375.55   380.74   382.25
eigval :      394.34   396.65   409.47   413.46   414.00   445.56
eigval :      449.04   474.32   481.05   489.60   503.71   504.36
eigval :      514.53   516.27   531.18   536.75   540.65   541.39
eigval :      541.89   555.56   583.25   584.02   589.31   607.04
eigval :      611.21   625.53   628.12   650.96   652.83   659.99
eigval :      664.64   682.37   683.46   697.00   697.18   709.70
eigval :      727.26   735.26   737.84   750.00   756.53   768.61
eigval :      769.01   770.68   771.17   789.01   805.56   806.58
eigval :      823.32   823.56   838.24   840.70   862.16   862.34
eigval :      864.86   866.11   908.39   908.72   909.26   909.50
eigval :      913.34   914.38   915.61   916.66   917.94   920.22
eigval :      920.32   931.39   934.31   955.06   955.40   977.33
eigval :     1010.27  1011.02  1015.19  1058.88  1071.57  1071.92
eigval :     1074.98  1083.04  1099.81  1106.56  1109.84  1110.69
eigval :     1114.77  1135.75  1136.26  1140.90  1147.24  1148.89
eigval :     1149.36  1149.49  1178.00  1178.84  1179.99  1181.63
eigval :     1183.01  1184.85  1191.53  1205.62  1223.30  1227.64
eigval :     1235.19  1237.26  1242.01  1245.33  1248.64  1252.44
eigval :     1263.60  1285.38  1292.47  1292.87  1294.25  1300.48
eigval :     1315.06  1316.68  1330.96  1331.15  1336.26  1336.79
eigval :     1364.72  1379.01  1392.36  1395.94  1396.74  1404.04
eigval :     1405.65  1414.77  1415.46  1419.24  1419.65  1426.12
eigval :     1438.53  1440.28  1453.04  1453.58  1467.18  1467.25
eigval :     1483.57  1483.94  1483.98  1484.38  1488.63  1492.28
eigval :     1493.68  1494.12  1497.80  1498.01  1509.65  1511.82
eigval :     1522.57  1525.42  1526.03  1527.79  1556.87  1557.57
eigval :     1571.80  3022.84  3023.28  3024.97  3025.58  3043.50
eigval :     3043.58  3045.13  3045.25  3051.02  3051.05  3054.39
eigval :     3054.57  3072.15  3072.72  3076.73  3077.79  3077.87
eigval :     3078.25  3083.75  3083.83  3084.05  3084.60  3085.80
eigval :     3087.69  3091.90  3093.52  3094.28  3094.84  3094.95
eigval :     3095.76  3107.30  3108.08  3108.47  3108.82  3469.37

   temp. (K)  partition function   enthalpy   heat capacity  entropy
                                   cal/mol     cal/K/mol   cal/K/mol   J/K/mol
 298.15  VIB  0.246E+17            22157.979    144.239    135.202
         ROT  0.728E+08              888.752      2.981     38.958
         INT  0.179E+25            23046.731    147.220    174.160
         TR   0.136E+29             1481.254      4.968     44.946
         TOT                       24527.9850   152.1879   219.1063   916.7407

       T/K    H(0)-H(T)+PV         H(T)/Eh          T*S/Eh         G(T)/Eh
   ------------------------------------------------------------------------
    298.15    0.390878E-01    0.672897E+00    0.104104E+00    0.568792E+00
   ------------------------------------------------------------------------

         :::::::::::::::::::::::::::::::::::::::::::::::::::::
         ::                  THERMODYNAMIC                  ::
         :::::::::::::::::::::::::::::::::::::::::::::::::::::
         :: total free energy        -116.034248189538 Eh   ::
         ::.................................................::
         :: total energy             -116.603040410074 Eh   ::
         :: zero point energy           0.633808851548 Eh   ::
         :: G(RRHO) w/o ZPVE           -0.065016631011 Eh   ::
         :: G(RRHO) contrib.            0.568792220537 Eh   ::
         :::::::::::::::::::::::::::::::::::::::::::::::::::::

           -------------------------------------------------
          | TOTAL ENERGY             -116.603040410074 Eh   |
          | TOTAL ENTHALPY           -115.930143726423 Eh   |
          | TOTAL FREE ENERGY        -116.034248189538 Eh   |
          | GRADIENT NORM               0.000061498016 Eh/α |
          | HOMO-LUMO GAP               0.141300947930 eV   |
           -------------------------------------------------

 * finished run on 2025/09/13 at 16:18:42.319
