   * xtb version 6.7.1 (edcfbbe) compiled by 'albert@albert-system' on 2024-07-22

   ID    Z sym.   atoms
    1    6 C      1-9, 11-14, 16-19, 21-45
    2    7 N      10, 15, 20
    3    1 H      46-80

          program call               : xtb data2507/toluene/DMAC-Cz/DMAC-Cz_toluene_S0_crest.xyz --gfn 2 --gbsa toluene --ohess vtight --parallel 40 --molden --ceasefiles --namespace data2507/toluene/DMAC-Cz/DMAC-Cz_toluene_S0_finalOpt
      * Solvation model:               GBSA
        Solvent                        toluene
        Solvent mass                       9.2140E+01 g/mol
          :  Hamiltonian                  GFN2-xTB          :
 * total energy  :  -116.7053185 Eh     change       -0.4840970E-08 Eh
 * total energy  :  -116.7053453 Eh     change       -0.2675141E-04 Eh
 * total energy  :  -116.7053522 Eh     change       -0.6920662E-05 Eh
 * total energy  :  -116.7053552 Eh     change       -0.2945825E-05 Eh
 * total energy  :  -116.7053589 Eh     change       -0.3759946E-05 Eh
 * total energy  :  -116.7053617 Eh     change       -0.2743431E-05 Eh
 * total energy  :  -116.7053650 Eh     change       -0.3331218E-05 Eh
 * total energy  :  -116.7053675 Eh     change       -0.2538886E-05 Eh
 * total energy  :  -116.7053692 Eh     change       -0.1692884E-05 Eh
 * total energy  :  -116.7053706 Eh     change       -0.1394630E-05 Eh
 * total energy  :  -116.7053816 Eh     change       -0.2620963E-06 Eh
 * total energy  :  -116.7053819 Eh     change       -0.2559644E-06 Eh
 * total energy  :  -116.7053823 Eh     change       -0.3759230E-06 Eh
 * total energy  :  -116.7053826 Eh     change       -0.3337555E-06 Eh
 * total energy  :  -116.7053828 Eh     change       -0.1820355E-06 Eh
 * total energy  :  -116.7053829 Eh     change       -0.1374178E-06 Eh
 * total energy  :  -116.7053831 Eh     change       -0.1483765E-06 Eh
 * total energy  :  -116.7053832 Eh     change       -0.1258644E-06 Eh
 * total energy  :  -116.7053833 Eh     change       -0.9800912E-07 Eh
   *** GEOMETRY OPTIMIZATION CONVERGED AFTER 32 ITERATIONS ***

 final structure:
================
80
 xtb: 6.7.1 (edcfbbe)
C           -5.94172866813926        0.48082940438583        3.26526540980887
C           -6.16169324783370        0.32772941977045        1.74821473649610
C           -7.66639660141047        0.37637276333138        1.42219501261313
C           -5.47241638222151        1.47800881668180        1.03708821807291
C           -5.85618751199468        2.78278121233288        1.31519709812068
C           -5.26917706031721        3.87076959849873        0.69478050516770
C           -4.26811282092360        3.65847857937061       -0.23617828453705
C           -3.86704745539752        2.37257477421948       -0.53169760522045
C           -4.45545504313990        1.27104950475400        0.09789442653021
N           -4.02593738302785       -0.00667894408787       -0.21728925434775
C           -3.01255053161988       -0.17265941042443       -1.20679674202139
C           -3.39314830704634       -0.37614589801597       -2.53787636989293
C           -2.45317277655096       -0.54361115212035       -3.53455771172877
C           -1.11346608216798       -0.50148686575927       -3.17455492132033
N            0.00621214141855       -0.63504657561058       -3.95344968291355
C            1.12233597043408       -0.52021899147276       -3.16657916586435
C            2.46367875677662       -0.58545472009330       -3.51697577323279
C            3.39920521686322       -0.43261802432241       -2.51379716855300
C            3.01268011783449       -0.21820126166670       -1.18613971749038
N            4.02206243936360       -0.06421288244398       -0.19029960881392
C            4.50585757209547       -1.18846908185081        0.45645946363558
C            3.97263967656891       -2.44454431099834        0.14996181951236
C            4.43043529002627       -3.58388165284704        0.77777483223503
C            5.43347328239818       -3.49160152113962        1.72608997473431
C            5.96286623626171       -2.25053487092504        2.03069268237565
C            5.52088625506282       -1.08757572315616        1.41491716303350
C            6.14420446281409        0.24321596450079        1.79448162543271
C            7.65297389857098        0.18713031523998        1.48874451522270
C            5.91500886712414        0.48473097233557        3.29848425954756
C            5.53308614116425        1.39490428713042        1.01733323464663
C            5.98880883998501        2.68743095756467        1.23808787119793
C            5.47198071487247        3.77620511315292        0.55932200189789
C            4.46734860574926        3.57743095678538       -0.37078180238858
C            3.99595409959873        2.30379511875776       -0.61046991002234
C            4.51738644237504        1.20117409084151        0.07394857111343
C            1.67582107560570       -0.15244435775041       -0.83019640406141
C            0.71974751270821       -0.30455669117564       -1.82571204662418
C           -0.71689793568216       -0.29333942741013       -1.83072620172028
C           -1.67741258286760       -0.12974037469982       -0.84135706100212
C           -4.58001036219343       -1.13043051664752        0.37132403973368
C           -4.10175705844622       -2.39821257265053        0.02471323979265
C           -4.63599873224141       -3.53796627225075        0.58803012169627
C           -5.66102447809040       -3.43426324161510        1.51135887335027
C           -6.13023172461349       -2.18114497413175        1.86182359815719
C           -5.60989951609718       -1.01738870285836        1.31237955954542
H           -4.87740155357511        0.43886673707602        3.49146686353731
H           -6.43980297074540       -0.31554521494101        3.81155651856407
H           -6.33022611382206        1.43168610748596        3.61965007233376
H           -8.10162089374237        1.32008468406548        1.73932582284238
H           -7.81711275153148        0.27209428394116        0.34885544396086
H           -8.19799662093232       -0.42833995489711        1.92256546454729
H           -6.63806908271466        2.96326979862043        2.03766409396652
H           -5.59224712196703        4.87249919471234        0.93624242187748
H           -3.79663376384186        4.49304004545950       -0.73472514228530
H           -3.08649628419150        2.21291628038894       -1.25981032591778
H           -4.44630398658069       -0.40214263370407       -2.77541373615341
H           -2.75278422295274       -0.70088877874893       -4.55941730193941
H            0.00839593925736       -0.78910689465368       -4.94808500746324
H            2.76785515467351       -0.74970140177336       -4.53939754411528
H            4.45346681745072       -0.47651721256324       -2.74358511667100
H            3.19005202746577       -2.52226846083044       -0.58912348829297
H            4.00165370893860       -4.54269461956651        0.52453269969789
H            5.80156462322399       -4.37575732818486        2.22505441259226
H            6.74523940155271       -2.19347083243029        2.77265109577082
H            8.13967729614550        1.11828659732625        1.76555573950546
H            7.80936259565869        0.02106303843708        0.42400449597564
H            8.13001124624412       -0.62169467805083        2.03541872892890
H            6.35938950721330       -0.31012788102836        3.89132862998861
H            4.84736341963585        0.51531395921959        3.51024223950354
H            6.35344378733617        1.42848131816972        3.61112677307655
H            6.77257227137931        2.85750736414533        1.96107077134034
H            5.85100930372333        4.76802915933829        0.75626476145317
H            4.04794025644846        4.41311570920282       -0.91213502104112
H            3.21190759540918        2.15474083611176       -1.33704502110294
H            1.39281147802054        0.01412356712476        0.19795432837970
H           -1.39896340679705        0.02979550718158        0.18916885374517
H           -3.30051355275043       -2.48466865562950       -0.69328039342548
H           -4.24970611353028       -4.50614480725937        0.30393129244310
H           -6.09025180820136       -4.31878215016142        1.95810573271329
H           -6.92723673485201       -2.11516230231688        2.58729029495143

          :  Hamiltonian                  GFN2-xTB          :
         :: gradient norm              0.000069549083 Eh/a0 ::
         :: HOMO-LUMO gap              2.302770721752 eV    ::
         :: SCC energy              -118.817944659647 Eh    ::
         :: -> dispersion             -0.111177800669 Eh    ::
         :: -> Gsolv                  -0.044837265457 Eh    ::
         :: repulsion energy           2.112561370772 Eh    ::

    * Orbital Energies and Occupations

         #    Occupation            Energy/Eh            Energy/eV
      -------------------------------------------------------------
         1        2.0000           -0.6878885             -18.7184
       ...           ...                  ...                  ...
        97        2.0000           -0.4051500             -11.0247
        98        2.0000           -0.4033398             -10.9754
        99        2.0000           -0.4033253             -10.9750
       100        2.0000           -0.3995117             -10.8713
       101        2.0000           -0.3993460             -10.8668
       102        2.0000           -0.3943631             -10.7312
       103        2.0000           -0.3942474             -10.7280
       104        2.0000           -0.3894832             -10.5984
       105        2.0000           -0.3889642             -10.5843
       106        2.0000           -0.3889546             -10.5840
       107        2.0000           -0.3760981             -10.2342
       108        2.0000           -0.3420075              -9.3065
       109        2.0000           -0.3414632              -9.2917 (HOMO)
       110                         -0.2568380              -6.9889 (LUMO)
       111                         -0.2349106              -6.3922
       112                         -0.2203397              -5.9957
       113                         -0.2203244              -5.9953
       114                         -0.2154097              -5.8616
       115                         -0.2153953              -5.8612
       116                         -0.2145003              -5.8368
       117                         -0.2143821              -5.8336
       118                         -0.2070308              -5.6336
       119                         -0.1986880              -5.4066
       120                         -0.1857641              -5.0549
       ...                                ...                  ...
       215                          0.7323834              19.9292
      -------------------------------------------------------------
                  HL-Gap            0.0846252 Eh            2.3028 eV

     #   Z          covCN         q      C6AA      α(0)
     1   6 C        3.761    -0.102    22.502     6.762
     2   6 C        3.908     0.021    20.171     6.384
     3   6 C        3.760    -0.102    22.503     6.763
     4   6 C        2.979    -0.016    28.399     8.741
     5   6 C        2.927    -0.039    28.958     8.825
     6   6 C        2.917    -0.048    29.192     8.860
     7   6 C        2.919    -0.036    28.890     8.814
     8   6 C        2.924    -0.061    29.510     8.909
     9   6 C        2.928     0.059    26.673     8.470
    10   7 N        2.755    -0.075    22.704     7.077
    11   6 C        2.927     0.057    26.712     8.476
    12   6 C        2.926    -0.041    29.014     8.833
    13   6 C        2.909    -0.053    29.319     8.879
    14   6 C        3.073     0.053    26.733     8.477
    15   7 N        2.755    -0.109    23.378     7.181
    16   6 C        3.073     0.053    26.732     8.477
    17   6 C        2.909    -0.053    29.319     8.879
    18   6 C        2.926    -0.041    29.014     8.833
    19   6 C        2.927     0.057    26.712     8.476
    20   7 N        2.755    -0.076    22.706     7.077
    21   6 C        2.928     0.059    26.673     8.470
    22   6 C        2.924    -0.061    29.510     8.908
    23   6 C        2.919    -0.036    28.890     8.814
    24   6 C        2.917    -0.048    29.192     8.860
    25   6 C        2.927    -0.039    28.959     8.825
    26   6 C        2.979    -0.016    28.399     8.741
    27   6 C        3.908     0.021    20.171     6.384
    28   6 C        3.761    -0.102    22.503     6.762
    29   6 C        3.761    -0.102    22.502     6.762
    30   6 C        2.979    -0.016    28.399     8.741
    31   6 C        2.927    -0.039    28.959     8.825
    32   6 C        2.917    -0.048    29.192     8.860
    33   6 C        2.919    -0.036    28.890     8.814
    34   6 C        2.924    -0.061    29.510     8.908
    35   6 C        2.928     0.059    26.672     8.470
    36   6 C        2.914    -0.041    29.023     8.834
    37   6 C        3.071    -0.014    28.290     8.721
    38   6 C        3.071    -0.014    28.291     8.721
    39   6 C        2.914    -0.041    29.023     8.834
    40   6 C        2.928     0.059    26.673     8.470
    41   6 C        2.924    -0.061    29.509     8.908
    42   6 C        2.919    -0.036    28.890     8.814
    43   6 C        2.917    -0.048    29.192     8.860
    44   6 C        2.927    -0.039    28.958     8.825
    45   6 C        2.979    -0.016    28.398     8.741
    46   1 H        0.925     0.029     2.604     2.524
    47   1 H        0.925     0.040     2.449     2.447
    48   1 H        0.925     0.040     2.448     2.447
    49   1 H        0.925     0.040     2.447     2.446
    50   1 H        0.925     0.029     2.602     2.522
    51   1 H        0.925     0.040     2.447     2.446
    52   1 H        0.926     0.029     2.596     2.520
    53   1 H        0.926     0.023     2.691     2.565
    54   1 H        0.926     0.024     2.666     2.553
    55   1 H        0.926     0.024     2.670     2.555
    56   1 H        0.926     0.043     2.414     2.430
    57   1 H        0.926     0.043     2.412     2.429
    58   1 H        0.860     0.168     1.284     1.775
    59   1 H        0.926     0.043     2.412     2.429
    60   1 H        0.926     0.043     2.414     2.430
    61   1 H        0.926     0.024     2.670     2.555
    62   1 H        0.926     0.024     2.666     2.553
    63   1 H        0.926     0.023     2.691     2.565
    64   1 H        0.926     0.029     2.596     2.520
    65   1 H        0.925     0.040     2.447     2.446
    66   1 H        0.925     0.029     2.602     2.523
    67   1 H        0.925     0.040     2.448     2.447
    68   1 H        0.925     0.040     2.448     2.447
    69   1 H        0.925     0.029     2.604     2.523
    70   1 H        0.925     0.040     2.449     2.447
    71   1 H        0.926     0.029     2.597     2.520
    72   1 H        0.926     0.023     2.691     2.565
    73   1 H        0.926     0.024     2.666     2.553
    74   1 H        0.926     0.024     2.670     2.555
    75   1 H        0.926     0.043     2.413     2.429
    76   1 H        0.926     0.043     2.412     2.429
    77   1 H        0.926     0.024     2.669     2.555
    78   1 H        0.926     0.025     2.666     2.553
    79   1 H        0.926     0.023     2.690     2.565
    80   1 H        0.926     0.029     2.596     2.520

molecular dipole:
                 x           y           z       tot (Debye)
 q only:       -0.000      -0.205      -1.291
   full:        0.001      -0.242      -1.535       3.949

 projected vibrational frequencies (cm⁻¹)
eigval :       -0.00    -0.00    -0.00    -0.00     0.00     0.00
eigval :       -8.64     5.50    11.82    20.47    28.37    35.42
eigval :       50.01    52.01    88.74    93.02    95.24   101.71
eigval :      105.07   119.76   122.95   133.21   133.21   165.88
eigval :      175.27   195.49   195.85   197.17   215.67   220.09
eigval :      221.70   234.62   236.74   238.23   254.49   303.79
eigval :      305.02   330.18   330.74   339.10   344.51   345.42
eigval :      352.06   360.05   369.69   380.39   382.29   395.36
eigval :      397.22   399.94   411.50   419.82   432.36   451.45
eigval :      452.83   476.00   483.88   485.50   500.58   514.75
eigval :      514.82   516.87   535.61   545.42   546.32   546.84
eigval :      550.53   556.10   585.89   586.84   597.82   615.80
eigval :      620.74   632.55   655.93   663.31   668.57   682.41
eigval :      682.43   692.99   693.02   694.79   711.83   716.46
eigval :      731.49   773.97   774.67   776.10   777.74   802.39
eigval :      813.04   814.63   825.35   826.31   853.91   858.74
eigval :      859.91   863.39   864.53   867.02   872.61   875.00
eigval :      903.24   903.61   910.59   911.13   911.58   912.00
eigval :      916.21   916.33   918.63   918.66   919.28   920.05
eigval :      932.89   937.21   938.85   955.42   956.60   987.11
eigval :     1011.94  1015.08  1022.21  1075.97  1076.77  1081.77
eigval :     1083.07  1110.91  1111.37  1117.69  1118.27  1134.21
eigval :     1138.98  1139.15  1142.55  1155.75  1157.71  1157.93
eigval :     1158.83  1168.72  1182.53  1183.72  1184.94  1186.50
eigval :     1186.98  1188.83  1202.48  1225.18  1234.25  1245.17
eigval :     1247.96  1248.72  1250.66  1265.88  1266.53  1284.37
eigval :     1293.29  1293.46  1294.39  1324.24  1324.71  1324.99
eigval :     1328.75  1334.02  1334.40  1339.81  1340.08  1345.18
eigval :     1376.31  1398.56  1400.26  1417.23  1418.28  1418.98
eigval :     1426.77  1435.80  1436.42  1441.19  1441.35  1477.36
eigval :     1477.71  1477.97  1481.43  1487.23  1487.69  1487.99
eigval :     1488.82  1495.31  1496.74  1497.94  1498.68  1502.74
eigval :     1503.23  1566.04  1572.79  1572.84  1577.44  1588.28
eigval :     1588.38  1590.29  1590.52  1600.28  1600.97  1601.42
eigval :     1615.57  3019.60  3019.83  3022.13  3022.40  3036.51
eigval :     3036.94  3038.84  3038.94  3045.29  3045.65  3049.50
eigval :     3049.52  3068.46  3069.32  3070.00  3070.23  3075.28
eigval :     3075.99  3076.04  3076.33  3083.74  3084.04  3086.74
eigval :     3086.85  3087.40  3087.99  3093.38  3094.55  3095.29
eigval :     3095.92  3096.28  3096.89  3097.92  3099.70  3477.22

   temp. (K)  partition function   enthalpy   heat capacity  entropy
                                   cal/mol     cal/K/mol   cal/K/mol   J/K/mol
 298.15  VIB  0.677E+17            21874.026    141.369    134.707
         ROT  0.734E+08              888.752      2.981     38.974
         INT  0.497E+25            22762.778    144.350    173.681
         TR   0.136E+29             1481.254      4.968     44.946
         TOT                       24244.0319   149.3179   218.6272   914.7361

       T/K    H(0)-H(T)+PV         H(T)/Eh          T*S/Eh         G(T)/Eh
   ------------------------------------------------------------------------
    298.15    0.386353E-01    0.678762E+00    0.103877E+00    0.574885E+00
   ------------------------------------------------------------------------

         :::::::::::::::::::::::::::::::::::::::::::::::::::::
         ::                  THERMODYNAMIC                  ::
         :::::::::::::::::::::::::::::::::::::::::::::::::::::
         :: total free energy        -116.130497812153 Eh   ::
         ::.................................................::
         :: total energy             -116.705383289672 Eh   ::
         :: zero point energy           0.640126977117 Eh   ::
         :: G(RRHO) w/o ZPVE           -0.065241499598 Eh   ::
         :: G(RRHO) contrib.            0.574885477519 Eh   ::
         :::::::::::::::::::::::::::::::::::::::::::::::::::::

           -------------------------------------------------
          | TOTAL ENERGY             -116.705383289672 Eh   |
          | TOTAL ENTHALPY           -116.026620988522 Eh   |
          | TOTAL FREE ENERGY        -116.130497812153 Eh   |
          | GRADIENT NORM               0.000069555939 Eh/α |
          | HOMO-LUMO GAP               2.302770171583 eV   |
           -------------------------------------------------

 * finished run on 2025/09/13 at 16:18:29.447
