   * xtb version 6.7.1 (edcfbbe) compiled by 'albert@albert-system' on 2024-07-22

   ID    Z sym.   atoms
    1    6 C      1-9, 11-14, 16-19, 21-45
    2    7 N      10, 15, 20
    3    1 H      46-80

          program call               : xtb data2507/toluene/DMAC-Cz/DMAC-Cz.xyz --gfn 2 --gbsa toluene --ohess vtight --parallel 40 --molden --ceasefiles --namespace data2507/toluene/DMAC-Cz/DMAC-Cz_toluene_S0_preOpt
      * Solvation model:               GBSA
        Solvent                        toluene
        Solvent mass                       9.2140E+01 g/mol
          :  Hamiltonian                  GFN2-xTB          :
 * total energy  :  -116.6782008 Eh     change       -0.7501043E-08 Eh
 * total energy  :  -116.6970144 Eh     change       -0.1881367E-01 Eh
 * total energy  :  -116.7035276 Eh     change       -0.6513192E-02 Eh
 * total energy  :  -116.7046662 Eh     change       -0.1138611E-02 Eh
 * total energy  :  -116.7051587 Eh     change       -0.4924780E-03 Eh
 * total energy  :  -116.7052616 Eh     change       -0.1029238E-03 Eh
 * total energy  :  -116.7052859 Eh     change       -0.2430563E-04 Eh
 * total energy  :  -116.7053000 Eh     change       -0.1402464E-04 Eh
 * total energy  :  -116.7053066 Eh     change       -0.6613299E-05 Eh
 * total energy  :  -116.7053111 Eh     change       -0.4515648E-05 Eh
 * total energy  :  -116.7053145 Eh     change       -0.5699874E-06 Eh
 * total energy  :  -116.7053150 Eh     change       -0.5045712E-06 Eh
 * total energy  :  -116.7053157 Eh     change       -0.7124986E-06 Eh
 * total energy  :  -116.7053169 Eh     change       -0.1247564E-05 Eh
 * total energy  :  -116.7053189 Eh     change       -0.1928293E-05 Eh
 * total energy  :  -116.7053209 Eh     change       -0.1987096E-05 Eh
 * total energy  :  -116.7053218 Eh     change       -0.9002608E-06 Eh
 * total energy  :  -116.7053221 Eh     change       -0.3348471E-06 Eh
 * total energy  :  -116.7053221 Eh     change       -0.2282491E-08 Eh
   *** GEOMETRY OPTIMIZATION CONVERGED AFTER 22 ITERATIONS ***

 final structure:
================
80
 xtb: 6.7.1 (edcfbbe)
C           -5.89187327550452       -0.00020907237735        3.06751117285004
C           -6.12993917361809       -0.00010162081052        1.54550571436700
C           -7.64072325621381       -0.00007444415969        1.24467179695315
C           -5.51624671438155        1.25700379813724        0.95655026782928
C           -5.96141272668657        2.50052784853884        1.38367312323159
C           -5.44084151576246        3.68036978563939        0.88344949223201
C           -4.44336051277781        3.62638369043383       -0.07364487377464
C           -3.98263778999901        2.40434607707771       -0.51642197023787
C           -4.50748772455045        1.20997011712751       -0.01262816668793
N           -4.02237023738956        0.00002984675256       -0.47849330677540
C           -3.01223560558113        0.00009610861488       -1.48557867786048
C           -3.39629859662458        0.00015857188372       -2.83123388494084
C           -2.45876642984418        0.00022690772519       -3.84427743149004
C           -1.11801055713414        0.00022915278044       -3.48561395237234
N           -0.00000618371275        0.00028431303003       -4.27838011527778
C            1.11799838802960        0.00025054153688       -3.48561423396112
C            2.45875411910719        0.00027318421310       -3.84427815363548
C            3.39628650138045        0.00021156060598       -2.83123487109995
C            3.01222408543281        0.00013158215316       -1.48557951184788
N            4.02236040647576        0.00005182237339       -0.47849578536702
C            4.50744466398760       -1.20995810382260       -0.01277657530253
C            3.98254747397408       -2.40425973765485       -0.51669694090859
C            4.44324751856970       -3.62636276546969       -0.07407705038115
C            5.44075140817864       -3.68049092353485        0.88298510272556
C            5.96136379259754       -2.50072300759793        1.38334009132784
C            5.51622158142559       -1.25713578319296        0.95637656909278
C            6.12994962097999       -0.00011816811501        1.54548208802354
C            7.64072901515929       -0.00013717217702        1.24462580656516
C            5.89190586494553       -0.00020245326479        3.06749117215681
C            5.51628624277008        1.25699844686205        0.95652025572337
C            5.96149872998856        2.50051440521758        1.38361803691787
C            5.44095319254770        3.68036562734965        0.88338963650190
C            4.44344819152042        3.62639763718596       -0.07368076012623
C            3.98268183552888        2.40436829864139       -0.51643548000441
C            4.50751135348673        1.20998307264916       -0.01264248257630
C            1.67591548256947        0.00011658805951       -1.12142367121983
C            0.71823288164517        0.00017542086316       -2.12676922109345
C           -0.71824457575070        0.00016395131406       -2.12676908299402
C           -1.67592688222475        0.00009793508230       -1.12142335513896
C           -4.50747928915742       -1.20997103921354       -0.01277703267022
C           -3.98261476104780       -2.40428200216094       -0.51670932870422
C           -4.44335233483951       -3.62637673130379       -0.07410547591610
C           -5.44086165807426       -3.68048682195586        0.88295208246910
C           -5.96143638606355       -2.50070957033366        1.38332424916584
C           -5.51625409228911       -1.25713046390048        0.95637921364586
H           -4.82306027969956       -0.00021445304569        3.27569731438527
H           -6.33077857841713       -0.88069076390364        3.52881387332803
H           -6.33079545684072        0.88019746691349        3.52894090227607
H           -8.11952767703718        0.88037786766861        1.66435919841632
H           -7.80489614726006       -0.00001070551365        0.16823938129263
H           -8.11953887687225       -0.88056898112491        1.66425750533456
H           -6.73925511338194        2.55790689110523        2.13041814675992
H           -5.81116597635194        4.63044437896271        1.23894073980638
H           -4.02157435410751        4.53522089755559       -0.47802006471206
H           -3.20460967751296        2.36786233948696       -1.26334904141746
H           -4.45014063168592        0.00015351899484       -3.06715334034878
H           -2.76100534881799        0.00027446517512       -4.88040083341653
H           -0.00000627733147        0.00033180826593       -5.28487283753853
H            2.76099278969218        0.00033005839285       -4.88040160337249
H            4.45012848021925        0.00022057044827       -3.06715459117885
H            3.20450086468553       -2.36766612146956       -1.26359886666098
H            4.02143212915607       -4.53514048406619       -0.47855484472236
H            5.81106019826486       -4.63061826861780        1.23835138864563
H            6.73921868739085       -2.55821272581748        2.13006353510095
H            8.11957336261167        0.88027707462825        1.66434683505214
H            7.80488605219992       -0.00003087970268        0.16819089254662
H            8.11951637980353       -0.88066999974419        1.66416357914236
H            6.33083910123677       -0.88066500335103        3.52880356588562
H            4.82309589691646       -0.00022898901356        3.27569254067186
H            6.33081347681353        0.88022307349864        3.52889901541037
H            6.73935559783618        2.55787944904729        2.13034913345154
H            5.81131174305579        4.63043360436874        1.23886326405622
H            4.02167786259529        4.53524265080328       -0.47805504789639
H            3.20463698339782        2.36789762063465       -1.26334598559247
H            1.39464985274868        0.00005681701391       -0.07936872264819
H           -1.39466103728259        0.00004789892763       -0.07936847401552
H           -3.20456353669242       -2.36770133784931       -1.26360731784211
H           -4.02155636463104       -4.53516223686095       -0.47858614002143
H           -5.81119572317679       -4.63060753297507        1.23830982365965
H           -6.73929147259865       -2.55818537964034        2.13004859674798

          :  Hamiltonian                  GFN2-xTB          :
         :: gradient norm              0.000036310427 Eh/a0 ::
         :: HOMO-LUMO gap              2.302009416041 eV    ::
         :: SCC energy              -118.817937631455 Eh    ::
         :: -> dispersion             -0.111149326293 Eh    ::
         :: -> Gsolv                  -0.044776226242 Eh    ::
         :: repulsion energy           2.112615530877 Eh    ::

    * Orbital Energies and Occupations

         #    Occupation            Energy/Eh            Energy/eV
      -------------------------------------------------------------
         1        2.0000           -0.6879033             -18.7188
       ...           ...                  ...                  ...
        97        2.0000           -0.4051533             -11.0248
        98        2.0000           -0.4033329             -10.9752
        99        2.0000           -0.4033272             -10.9751
       100        2.0000           -0.3994838             -10.8705
       101        2.0000           -0.3993447             -10.8667
       102        2.0000           -0.3943493             -10.7308
       103        2.0000           -0.3942454             -10.7280
       104        2.0000           -0.3895075             -10.5990
       105        2.0000           -0.3889629             -10.5842
       106        2.0000           -0.3889552             -10.5840
       107        2.0000           -0.3761093             -10.2345
       108        2.0000           -0.3420110              -9.3066
       109        2.0000           -0.3414606              -9.2916 (HOMO)
       110                         -0.2568633              -6.9896 (LUMO)
       111                         -0.2349483              -6.3933
       112                         -0.2203200              -5.9952
       113                         -0.2203130              -5.9950
       114                         -0.2153883              -5.8610
       115                         -0.2153866              -5.8610
       116                         -0.2144881              -5.8365
       117                         -0.2143605              -5.8330
       118                         -0.2070779              -5.6349
       119                         -0.1986856              -5.4065
       120                         -0.1857702              -5.0551
       ...                                ...                  ...
       215                          0.7325463              19.9336
      -------------------------------------------------------------
                  HL-Gap            0.0845973 Eh            2.3020 eV

     #   Z          covCN         q      C6AA      α(0)
     1   6 C        3.761    -0.102    22.502     6.762
     2   6 C        3.908     0.021    20.171     6.384
     3   6 C        3.761    -0.102    22.503     6.762
     4   6 C        2.979    -0.016    28.399     8.741
     5   6 C        2.927    -0.039    28.958     8.825
     6   6 C        2.917    -0.048    29.192     8.860
     7   6 C        2.919    -0.036    28.890     8.814
     8   6 C        2.924    -0.061    29.510     8.909
     9   6 C        2.928     0.059    26.672     8.470
    10   7 N        2.755    -0.076    22.706     7.077
    11   6 C        2.927     0.057    26.713     8.476
    12   6 C        2.926    -0.041    29.014     8.833
    13   6 C        2.909    -0.053    29.319     8.879
    14   6 C        3.073     0.053    26.732     8.477
    15   7 N        2.755    -0.109    23.378     7.181
    16   6 C        3.073     0.053    26.732     8.477
    17   6 C        2.909    -0.053    29.319     8.879
    18   6 C        2.926    -0.041    29.014     8.833
    19   6 C        2.927     0.057    26.713     8.476
    20   7 N        2.755    -0.076    22.706     7.077
    21   6 C        2.928     0.059    26.672     8.470
    22   6 C        2.924    -0.061    29.510     8.909
    23   6 C        2.919    -0.036    28.890     8.814
    24   6 C        2.917    -0.048    29.192     8.860
    25   6 C        2.927    -0.039    28.958     8.825
    26   6 C        2.979    -0.016    28.399     8.741
    27   6 C        3.908     0.021    20.171     6.384
    28   6 C        3.761    -0.102    22.503     6.762
    29   6 C        3.761    -0.102    22.502     6.762
    30   6 C        2.979    -0.016    28.399     8.741
    31   6 C        2.927    -0.039    28.958     8.825
    32   6 C        2.917    -0.048    29.192     8.860
    33   6 C        2.919    -0.036    28.890     8.814
    34   6 C        2.924    -0.061    29.510     8.909
    35   6 C        2.928     0.059    26.672     8.470
    36   6 C        2.914    -0.041    29.022     8.834
    37   6 C        3.071    -0.014    28.289     8.721
    38   6 C        3.071    -0.014    28.289     8.721
    39   6 C        2.914    -0.041    29.022     8.834
    40   6 C        2.928     0.059    26.672     8.470
    41   6 C        2.924    -0.061    29.510     8.909
    42   6 C        2.919    -0.036    28.890     8.814
    43   6 C        2.917    -0.048    29.192     8.860
    44   6 C        2.927    -0.039    28.958     8.825
    45   6 C        2.979    -0.016    28.399     8.741
    46   1 H        0.925     0.029     2.604     2.524
    47   1 H        0.925     0.040     2.449     2.447
    48   1 H        0.925     0.040     2.449     2.447
    49   1 H        0.925     0.040     2.447     2.446
    50   1 H        0.925     0.029     2.602     2.523
    51   1 H        0.925     0.040     2.447     2.446
    52   1 H        0.926     0.029     2.597     2.520
    53   1 H        0.926     0.023     2.691     2.565
    54   1 H        0.926     0.024     2.666     2.553
    55   1 H        0.926     0.024     2.670     2.555
    56   1 H        0.926     0.043     2.412     2.429
    57   1 H        0.926     0.043     2.411     2.428
    58   1 H        0.860     0.168     1.284     1.775
    59   1 H        0.926     0.043     2.411     2.428
    60   1 H        0.926     0.043     2.412     2.429
    61   1 H        0.926     0.024     2.670     2.555
    62   1 H        0.926     0.024     2.666     2.553
    63   1 H        0.926     0.023     2.691     2.565
    64   1 H        0.926     0.029     2.597     2.520
    65   1 H        0.925     0.040     2.447     2.446
    66   1 H        0.925     0.029     2.602     2.523
    67   1 H        0.925     0.040     2.447     2.446
    68   1 H        0.925     0.040     2.449     2.447
    69   1 H        0.925     0.029     2.604     2.524
    70   1 H        0.925     0.040     2.449     2.447
    71   1 H        0.926     0.029     2.597     2.520
    72   1 H        0.926     0.023     2.691     2.565
    73   1 H        0.926     0.024     2.666     2.553
    74   1 H        0.926     0.024     2.670     2.555
    75   1 H        0.926     0.043     2.414     2.430
    76   1 H        0.926     0.043     2.414     2.430
    77   1 H        0.926     0.024     2.670     2.555
    78   1 H        0.926     0.024     2.666     2.553
    79   1 H        0.926     0.023     2.691     2.565
    80   1 H        0.926     0.029     2.597     2.520

molecular dipole:
                 x           y           z       tot (Debye)
 q only:       -0.000       0.000      -1.312
   full:       -0.000       0.000      -1.556       3.955

 projected vibrational frequencies (cm⁻¹)
eigval :       -0.00    -0.00    -0.00     0.00     0.00     0.00
eigval :        7.74     9.61    10.83    22.62    28.96    37.77
eigval :       49.06    51.21    93.80    94.59    96.65   104.11
eigval :      106.67   120.04   123.64   125.14   125.28   166.58
eigval :      176.33   188.31   188.40   200.63   215.73   219.36
eigval :      219.77   235.72   237.99   238.09   252.39   301.86
eigval :      302.90   328.91   329.14   339.15   344.50   345.76
eigval :      352.11   358.15   368.97   380.26   381.98   394.79
eigval :      395.51   398.73   411.26   418.50   432.46   452.55
eigval :      453.36   474.72   476.18   483.92   501.11   513.67
eigval :      513.69   517.62   535.77   543.97   545.95   546.00
eigval :      549.86   555.70   585.99   586.95   598.09   615.78
eigval :      620.72   632.70   655.93   663.37   668.53   681.75
eigval :      682.08   692.45   692.45   694.48   711.46   716.43
eigval :      731.30   777.59   777.95   778.89   779.06   802.43
eigval :      815.19   816.51   826.16   826.30   853.77   858.80
eigval :      865.73   865.99   866.25   866.58   874.50   877.31
eigval :      906.04   906.37   910.82   910.86   911.63   911.65
eigval :      916.14   916.24   921.02   921.03   921.06   921.09
eigval :      932.78   937.40   939.02   956.07   956.10   987.15
eigval :     1011.86  1011.87  1022.33  1076.00  1076.01  1081.85
eigval :     1083.11  1110.61  1110.81  1117.40  1117.41  1134.23
eigval :     1138.68  1138.72  1142.66  1155.72  1157.69  1157.75
eigval :     1158.77  1168.66  1182.08  1184.55  1185.08  1185.28
eigval :     1185.63  1188.82  1202.60  1225.06  1234.14  1244.94
eigval :     1246.76  1246.93  1250.35  1265.17  1265.45  1283.77
eigval :     1293.05  1293.05  1293.85  1324.12  1324.92  1324.99
eigval :     1328.64  1334.16  1334.53  1339.87  1339.92  1344.89
eigval :     1376.39  1399.31  1399.34  1417.72  1417.94  1418.65
eigval :     1426.72  1436.31  1436.82  1441.45  1441.50  1477.15
eigval :     1477.46  1477.68  1481.40  1486.85  1486.88  1487.05
eigval :     1487.10  1495.13  1496.45  1496.89  1497.13  1502.44
eigval :     1502.55  1566.26  1572.88  1572.97  1577.49  1588.37
eigval :     1588.46  1590.43  1590.54  1600.36  1601.09  1601.38
eigval :     1615.76  3019.94  3019.94  3022.54  3022.55  3036.04
eigval :     3036.05  3038.32  3038.32  3044.80  3044.81  3048.74
eigval :     3048.75  3068.75  3068.76  3068.86  3068.86  3075.19
eigval :     3075.20  3075.24  3075.25  3083.92  3084.06  3086.73
eigval :     3086.73  3087.40  3087.48  3093.14  3094.46  3095.31
eigval :     3096.99  3098.36  3098.40  3099.45  3099.65  3477.94

   temp. (K)  partition function   enthalpy   heat capacity  entropy
                                   cal/mol     cal/K/mol   cal/K/mol   J/K/mol
 298.15  VIB  0.428E+17            21891.447    141.456    134.451
         ROT  0.367E+08              888.752      2.981     37.593
         INT  0.157E+25            22780.199    144.437    172.044
         TR   0.136E+29             1481.254      4.968     44.946
         TOT                       24261.4533   149.4050   216.9907   907.8892

       T/K    H(0)-H(T)+PV         H(T)/Eh          T*S/Eh         G(T)/Eh
   ------------------------------------------------------------------------
    298.15    0.386631E-01    0.678737E+00    0.103099E+00    0.575638E+00
   ------------------------------------------------------------------------

         :::::::::::::::::::::::::::::::::::::::::::::::::::::
         ::                  THERMODYNAMIC                  ::
         :::::::::::::::::::::::::::::::::::::::::::::::::::::
         :: total free energy        -116.129684386055 Eh   ::
         ::.................................................::
         :: total energy             -116.705322100574 Eh   ::
         :: zero point energy           0.640073928797 Eh   ::
         :: G(RRHO) w/o ZPVE           -0.064436214278 Eh   ::
         :: G(RRHO) contrib.            0.575637714519 Eh   ::
         :::::::::::::::::::::::::::::::::::::::::::::::::::::

           -------------------------------------------------
          | TOTAL ENERGY             -116.705322100574 Eh   |
          | TOTAL ENTHALPY           -116.026585084994 Eh   |
          | TOTAL FREE ENERGY        -116.129684386055 Eh   |
          | GRADIENT NORM               0.000036309491 Eh/α |
          | HOMO-LUMO GAP               2.302009484415 eV   |
           -------------------------------------------------

 * finished run on 2025/09/13 at 16:13:33.539
