   * xtb version 6.7.1 (edcfbbe) compiled by 'albert@albert-system' on 2024-07-22

   ID    Z sym.   atoms
    1    6 C      1, 3-18, 20-22, 24-31, 33, 34
    2    8 O      2, 19, 23, 32
    3    1 H      35-60

          program call               : xtb data2507/gas/DMPA/DMPA_gas_T1_crest.xyz --gfn 2 --spinpol --tblite --uhf 2 --ohess vtight --parallel 40 --molden --ceasefiles --namespace data2507/gas/DMPA/DMPA_gas_T1_finalOpt
 * total energy  :   -93.7044985 Eh     change        0.2279673E-07 Eh
 * total energy  :   -93.7045404 Eh     change       -0.4192990E-04 Eh
 * total energy  :   -93.7045545 Eh     change       -0.1406075E-04 Eh
 * total energy  :   -93.7045595 Eh     change       -0.4984288E-05 Eh
 * total energy  :   -93.7045670 Eh     change       -0.7504591E-05 Eh
 * total energy  :   -93.7045716 Eh     change       -0.4603382E-05 Eh
 * total energy  :   -93.7045746 Eh     change       -0.3039706E-05 Eh
 * total energy  :   -93.7045769 Eh     change       -0.2300438E-05 Eh
 * total energy  :   -93.7045788 Eh     change       -0.1888943E-05 Eh
 * total energy  :   -93.7045805 Eh     change       -0.1629136E-05 Eh
 * total energy  :   -93.7045818 Eh     change       -0.1361504E-05 Eh
 * total energy  :   -93.7045829 Eh     change       -0.1068391E-05 Eh
 * total energy  :   -93.7045837 Eh     change       -0.7798043E-06 Eh
 * total energy  :   -93.7045842 Eh     change       -0.5759469E-06 Eh
 * total energy  :   -93.7045846 Eh     change       -0.3433908E-06 Eh
 * total energy  :   -93.7045846 Eh     change       -0.2335925E-07 Eh
   *** GEOMETRY OPTIMIZATION CONVERGED AFTER 16 ITERATIONS ***

 final structure:
================
60
 xtb: 6.7.1 (edcfbbe)
C            7.75351334011406       -1.11079599028450       -0.99038418490966
O            7.03963884965205       -0.21206051132944       -0.17790002282673
C            5.67685340178215       -0.25473072800224       -0.20600505807401
C            4.91838810041531       -1.11788959932609       -0.98454044523330
C            3.53698088472387       -1.05393937389902       -0.91630077208169
C            2.87911929444428       -0.14297398342025       -0.10131953753897
C            1.41650935398379       -0.07593689195137       -0.05871229877291
C            0.75448602791451        1.12706211107710       -0.45611279622674
C            1.46201633024446        2.20194518798290       -0.99542517000144
C            0.81605030092880        3.36884261521410       -1.40289593519802
C           -0.55456634821809        3.45804081086853       -1.31618170521412
C           -1.29107358802502        2.37824156550464       -0.82984992455080
C           -0.66676264896284        1.21219464328587       -0.38201192568886
C           -1.41804218896261        0.08197464268133        0.06560053263333
C           -2.88087668868767        0.14575761628540        0.10155564456145
C           -3.54568584749921        1.05693013942420        0.91068625779624
C           -4.92763857181134        1.11762164554376        0.97081019057221
C           -5.67953709627912        0.25076977045372        0.19000965101571
O           -7.04202081037169        0.20494954665906        0.15377711621774
C           -7.76288593746393        1.10494852087500        0.95863809100823
C           -5.03443321612126       -0.66407094626514       -0.64535496173543
C           -3.65428026203189       -0.72499965273138       -0.69818996053499
O           -2.95453737121781       -1.55894963289415       -1.51314934343054
C           -3.66284924176399       -2.46181181269497       -2.32340650646697
C           -0.75572763518330       -1.12006732784706        0.46561035638913
C           -1.46303206071801       -2.19394841615984        1.00713695087188
C           -0.81687145283586       -3.36027024827471        1.41593959008875
C            0.55365529347762       -3.44993495647614        1.32798751197807
C            1.28995392706263       -2.37102971178023        0.83943603738622
C            0.66537598671501       -1.20539352282223        0.39084713709664
C            3.65910062904215        0.72344708198319        0.69657787570392
O            2.96601401973327        1.55692114302594        1.51771283048354
C            3.68124018215834        2.45493636573506        2.32729196555205
C            5.03881364268479        0.65923916009121        0.63569431858126
H            7.53411535014412       -0.95524768213451       -2.05171842140955
H            8.80645990426083       -0.90228718999539       -0.80677502986471
H            7.53932032262342       -2.15098405131120       -0.72422583140450
H            5.38067372074202       -1.83256492625972       -1.64593030683385
H            2.94605222776259       -1.71252874989645       -1.53563704616755
H            2.53203586441684        2.12613058271957       -1.11445872981910
H            1.39676460659140        4.19082859684970       -1.79559944551639
H           -1.06906386866452        4.35226762605158       -1.63665512975395
H           -2.36823400628292        2.44317372623015       -0.81188598779660
H           -2.96004901622130        1.71816817856840        1.53222918417389
H           -5.39548642805425        1.83272161211190        1.62782661833612
H           -8.81421542249078        0.89372272806165        0.76893738459809
H           -7.55004903291937        0.95339590418805        2.02187923758770
H           -7.54902315454607        2.14465963727204        0.69036049045628
H           -5.65840194048517       -1.30765830301372       -1.24322501881408
H           -4.30448784114264       -1.94158767169458       -3.04224729189688
H           -2.90460271670045       -3.02864364419130       -2.86144932534781
H           -4.27080094127025       -3.14861600552663       -1.72542770278268
H           -2.53302338304424       -2.11787115070620        1.12653285316099
H           -1.39732828497848       -4.18138002870617        1.81086476827618
H            1.06826365818504       -4.34366992021809        1.64970315628409
H            2.36709031820578       -2.43621932835102        0.82014261679967
H            4.32524135311642        1.93033495572545        3.04082300893469
H            2.92753962084739        3.02202894507209        2.87141942280205
H            4.28795113727282        3.14211133159228        1.72847403674370
H            5.66778698480814        1.29969067852991        1.23168100880373

 projected vibrational frequencies (cm⁻¹)
eigval :       -0.00    -0.00     0.00     0.00     0.00     0.00
eigval :       13.94    22.89    29.63    36.36    45.16    48.87
eigval :       70.96    84.93    87.76    93.57   101.77   115.78
eigval :      124.24   141.30   149.91   159.62   164.64   184.94
eigval :      199.42   200.67   203.38   207.40   222.51   235.41
eigval :      236.32   266.70   266.79   279.05   285.89   339.41
eigval :      343.05   352.42   375.80   380.24   384.49   396.69
eigval :      418.63   427.77   432.71   445.57   450.26   472.34
eigval :      483.56   491.26   534.80   556.65   556.77   560.29
eigval :      574.79   577.51   594.28   594.77   607.99   609.39
eigval :      647.29   667.81   679.28   692.11   700.19   714.52
eigval :      726.43   738.20   746.53   758.78   801.48   802.68
eigval :      839.03   839.13   842.69   843.51   882.19   882.62
eigval :      891.65   895.38   902.31   902.56   902.82   911.31
eigval :      912.19   941.54   943.77   945.44  1048.36  1054.47
eigval :     1071.87  1072.92  1100.12  1103.92  1106.32  1113.51
eigval :     1121.54  1121.58  1122.73  1122.74  1134.74  1145.10
eigval :     1154.47  1157.76  1160.79  1161.85  1179.55  1182.14
eigval :     1182.54  1184.87  1194.61  1195.40  1230.26  1240.65
eigval :     1243.75  1253.87  1261.40  1268.47  1271.23  1295.91
eigval :     1303.57  1324.60  1338.00  1347.62  1371.51  1376.97
eigval :     1379.69  1398.39  1398.59  1402.79  1402.82  1409.60
eigval :     1425.19  1425.30  1431.20  1457.67  1460.15  1471.29
eigval :     1471.31  1471.70  1471.71  1478.51  1484.17  1484.43
eigval :     1485.07  1485.19  1485.76  1516.47  1533.09  1556.96
eigval :     1557.22  1562.55  1586.02  1586.99  2928.14  2928.18
eigval :     2929.85  2929.88  2942.98  2943.09  2944.55  2944.61
eigval :     3025.41  3025.48  3026.56  3026.59  3069.45  3069.59
eigval :     3079.55  3079.84  3085.80  3085.87  3092.37  3092.83
eigval :     3095.65  3096.17  3108.86  3109.00  3119.61  3119.68

   temp. (K)  partition function   enthalpy   heat capacity  entropy
                                   cal/mol     cal/K/mol   cal/K/mol   J/K/mol
 298.15  VIB  0.121E+14            17804.402    109.949    110.318
         ROT  0.272E+08              888.752      2.981     37.003
         INT  0.330E+21            18693.155    112.930    147.321
         TR   0.925E+28             1481.254      4.968     44.185
         TOT                       20174.4085   117.8985   191.5059   801.2608

       T/K    H(0)-H(T)+PV         H(T)/Eh          T*S/Eh         G(T)/Eh
   ------------------------------------------------------------------------
    298.15    0.321500E-01    0.498481E+00    0.909906E-01    0.407491E+00
   ------------------------------------------------------------------------

         :::::::::::::::::::::::::::::::::::::::::::::::::::::
         ::                  THERMODYNAMIC                  ::
         :::::::::::::::::::::::::::::::::::::::::::::::::::::
         :: total free energy         -93.297094011624 Eh   ::
         ::.................................................::
         :: total energy              -93.704584610397 Eh   ::
         :: zero point energy           0.466331279501 Eh   ::
         :: G(RRHO) w/o ZPVE           -0.058840680728 Eh   ::
         :: G(RRHO) contrib.            0.407490598773 Eh   ::
         :::::::::::::::::::::::::::::::::::::::::::::::::::::

           -------------------------------------------------
          | TOTAL ENERGY              -93.704584610397 Eh   |
          | TOTAL ENTHALPY            -93.206103364496 Eh   |
          | TOTAL FREE ENERGY         -93.297094011624 Eh   |
          | GRADIENT NORM               0.000152584516 Eh/α |
           -------------------------------------------------

 * finished run on 2025/07/20 at 09:04:17.543
