   * xtb version 6.7.1 (edcfbbe) compiled by 'albert@albert-system' on 2024-07-22

   ID    Z sym.   atoms
    1    6 C      1, 3-18, 20-22, 24-31, 33, 34
    2    8 O      2, 19, 23, 32
    3    1 H      35-60

          program call               : xtb data2507/gas/DMPA/DMPA.xyz --gfn 2 --ohess vtight --parallel 40 --molden --ceasefiles --namespace data2507/gas/DMPA/DMPA_gas_S0_preOpt
          :  Hamiltonian                  GFN2-xTB          :
 * total energy  :   -93.7512070 Eh     change       -0.1957218E-07 Eh
 * total energy  :   -93.7629037 Eh     change       -0.1169668E-01 Eh
 * total energy  :   -93.7657331 Eh     change       -0.2829389E-02 Eh
 * total energy  :   -93.7659639 Eh     change       -0.2308425E-03 Eh
 * total energy  :   -93.7661066 Eh     change       -0.1427422E-03 Eh
 * total energy  :   -93.7661583 Eh     change       -0.5165876E-04 Eh
 * total energy  :   -93.7662045 Eh     change       -0.4618486E-04 Eh
 * total energy  :   -93.7662428 Eh     change       -0.3835183E-04 Eh
 * total energy  :   -93.7662799 Eh     change       -0.3707568E-04 Eh
 * total energy  :   -93.7663036 Eh     change       -0.2366326E-04 Eh
 * total energy  :   -93.7664229 Eh     change       -0.3563472E-06 Eh
 * total energy  :   -93.7664232 Eh     change       -0.3022406E-06 Eh
 * total energy  :   -93.7664234 Eh     change       -0.2611287E-06 Eh
 * total energy  :   -93.7664236 Eh     change       -0.2219933E-06 Eh
 * total energy  :   -93.7664238 Eh     change       -0.1891993E-06 Eh
 * total energy  :   -93.7664240 Eh     change       -0.1598199E-06 Eh
 * total energy  :   -93.7664241 Eh     change       -0.1346171E-06 Eh
 * total energy  :   -93.7664242 Eh     change       -0.1135747E-06 Eh
 * total energy  :   -93.7664243 Eh     change       -0.9667340E-07 Eh
   *** GEOMETRY OPTIMIZATION CONVERGED AFTER 41 ITERATIONS ***

 final structure:
================
60
 xtb: 6.7.1 (edcfbbe)
C            7.86869819133112        0.00001260146318       -0.42956541990248
O            6.89513883604945        0.00003934173372       -1.44275914465439
C            5.57691123601332        0.00004703953642       -1.09003212275457
C            4.66654756038668        0.00004865060945       -2.14321952029577
C            3.31157342025765        0.00004975926587       -1.87957796523153
C            2.83364683583686        0.00004985645872       -0.57865989092893
C            1.38062937447831        0.00003792322286       -0.28682513130224
C            0.69960283189593        1.21443562431814       -0.14535466524410
C            1.36263180810768        2.46172333492903       -0.28465217196354
C            0.69008366230661        3.63604839465849       -0.14430708616081
C           -0.69024858619988        3.63603353031250        0.14392784862628
C           -1.36274434489608        2.46169366065359        0.28440243945804
C           -0.69966236582533        1.21442024856055        0.14524179486313
C           -1.38063450918226        0.00000927060590        0.28684720567955
C           -2.83365052685257       -0.00000599747822        0.57866930781997
C           -3.31159136514967        0.00004431852399        1.87958097009306
C           -4.66656964068143        0.00003184891740        2.14320769719018
C           -5.57692200484878       -0.00003192894531        1.09001063613786
O           -6.89515508171145       -0.00003793592734        1.44272287817576
C           -7.86870325582168       -0.00008846129103        0.42951811563207
C           -5.11641070196482       -0.00008481597874       -0.22283069223104
C           -3.75033734119604       -0.00007246481273       -0.48037092386026
O           -3.20403611627830       -0.00012217853234       -1.72977000103348
C           -4.05730544863524       -0.00018687900561       -2.84447118041610
C           -0.69960847442869       -1.21438779062006        0.14538182216820
C           -1.36263515824613       -2.46167476521403        0.28468416138667
C           -0.69008776365852       -3.63600073518315        0.14434044872300
C            0.69024325215580       -3.63598696939195       -0.14390002910486
C            1.36273903114421       -2.46164792905116       -0.28437880128664
C            0.69965631190671       -1.21437392978289       -0.14521564165178
C            3.75034593679784        0.00005521434171        0.48037083848563
O            3.20405825227497        0.00006307560581        1.72977608717224
C            4.05733917251722        0.00008060872761        2.84446813950396
C            5.11641575472592        0.00005316316932        0.22281451141426
H            7.79821563194828       -0.89404584878447        0.19931746229704
H            8.82869101606113       -0.00000597201802       -0.94367152442373
H            7.79825589399435        0.89406732255279        0.19932735330700
H            5.04292362134695        0.00004641426795       -3.15295587889943
H            2.60313711404490        0.00004790642499       -2.69433412978464
H            2.41974450418880        2.45710698089635       -0.50771458669629
H            1.20654661996705        4.57908703935403       -0.25273027984545
H           -1.20675221645783        4.57906163877146        0.25224905969588
H           -2.41985593743427        2.45705550857435        0.50746890573928
H           -2.60316454565279        0.00009473183689        2.69434577425378
H           -5.04295768935979        0.00007117133960        3.15293982682806
H           -8.82870222073425       -0.00007530982524        0.94361303861753
H           -7.79824078870834        0.89394256678696       -0.19940608467414
H           -7.79822586940664       -0.89417040541481       -0.19933206075111
H           -5.81665892237119       -0.00013570670151       -1.04137903398166
H           -4.68959876324495        0.89407071037847       -2.87121213047642
H           -3.40245846471234       -0.00021637542371       -3.71445334507478
H           -4.68957042921424       -0.89446695963531       -2.87113036139051
H           -2.41974673240680       -2.45705818489046        0.50775112035048
H           -1.20654942999574       -4.57903951387957        0.25276876413929
H            1.20674708909085       -4.57901491016110       -0.25222180902181
H            2.41984988015542       -2.45701050463054       -0.50744938080834
H            4.68961715495593        0.89435053844080        2.87114695174190
H            4.68961916496981       -0.89418709130881        2.87117409810841
H            3.40250133163664        0.00009294525550        3.71445700305265
H            5.81667320472962        0.00005562339359        1.04135473318986

          :  Hamiltonian                  GFN2-xTB          :
         :: gradient norm              0.000024439185 Eh/a0 ::
         :: HOMO-LUMO gap              2.192914576434 eV    ::
         :: SCC energy               -95.243141260912 Eh    ::
         :: -> dispersion             -0.075980856911 Eh    ::
         :: repulsion energy           1.476716922412 Eh    ::

    * Orbital Energies and Occupations

         #    Occupation            Energy/Eh            Energy/eV
      -------------------------------------------------------------
         1        2.0000           -0.7129388             -19.4001
       ...           ...                  ...                  ...
        73        2.0000           -0.4272724             -11.6267
        74        2.0000           -0.4188994             -11.3988
        75        2.0000           -0.4137779             -11.2595
        76        2.0000           -0.4122547             -11.2180
        77        2.0000           -0.4034685             -10.9789
        78        2.0000           -0.3934863             -10.7073
        79        2.0000           -0.3932316             -10.7004
        80        2.0000           -0.3884632             -10.5706
        81        2.0000           -0.3879739             -10.5573
        82        2.0000           -0.3859377             -10.5019
        83        2.0000           -0.3642525              -9.9118
        84        2.0000           -0.3624395              -9.8625
        85        2.0000           -0.3463725              -9.4253 (HOMO)
        86                         -0.2657844              -7.2324 (LUMO)
        87                         -0.2180189              -5.9326
        88                         -0.2130109              -5.7963
        89                         -0.2126240              -5.7858
        90                         -0.2076732              -5.6511
        91                         -0.2061336              -5.6092
        92                         -0.2059901              -5.6053
        93                         -0.1635177              -4.4495
        94                         -0.1604468              -4.3660
        95                         -0.0859188              -2.3380
        96                         -0.0832353              -2.2649
       ...                                ...                  ...
       162                          0.7293811              19.8475
      -------------------------------------------------------------
                  HL-Gap            0.0805881 Eh            2.1929 eV

     #   Z          covCN         q      C6AA      α(0)
     1   6 C        3.643     0.040    20.239     6.467
     2   8 O        1.705    -0.271    18.487     5.805
     3   6 C        2.865     0.139    24.967     8.191
     4   6 C        2.918    -0.069    29.727     8.941
     5   6 C        2.923    -0.035    28.864     8.810
     6   6 C        2.976    -0.017    28.431     8.746
     7   6 C        2.978     0.005    27.897     8.664
     8   6 C        2.985     0.010    27.789     8.647
     9   6 C        2.917    -0.032    28.797     8.800
    10   6 C        2.914    -0.031    28.782     8.797
    11   6 C        2.914    -0.031    28.782     8.797
    12   6 C        2.917    -0.032    28.797     8.800
    13   6 C        2.985     0.010    27.789     8.647
    14   6 C        2.978     0.005    27.897     8.664
    15   6 C        2.976    -0.017    28.431     8.746
    16   6 C        2.923    -0.035    28.864     8.810
    17   6 C        2.918    -0.069    29.727     8.941
    18   6 C        2.865     0.139    24.967     8.191
    19   8 O        1.705    -0.271    18.487     5.805
    20   6 C        3.643     0.040    20.239     6.467
    21   6 C        2.915    -0.106    30.667     9.081
    22   6 C        2.870     0.139    24.965     8.190
    23   8 O        1.706    -0.267    18.432     5.797
    24   6 C        3.643     0.041    20.220     6.464
    25   6 C        2.985     0.010    27.789     8.647
    26   6 C        2.917    -0.032    28.797     8.800
    27   6 C        2.914    -0.031    28.782     8.797
    28   6 C        2.914    -0.031    28.782     8.797
    29   6 C        2.917    -0.032    28.797     8.800
    30   6 C        2.985     0.010    27.789     8.647
    31   6 C        2.870     0.139    24.965     8.190
    32   8 O        1.706    -0.267    18.432     5.797
    33   6 C        3.643     0.041    20.220     6.464
    34   6 C        2.915    -0.106    30.667     9.081
    35   1 H        0.924     0.037     2.484     2.464
    36   1 H        0.925     0.060     2.193     2.316
    37   1 H        0.924     0.037     2.484     2.464
    38   1 H        0.926     0.049     2.338     2.391
    39   1 H        0.926     0.042     2.422     2.434
    40   1 H        0.926     0.029     2.601     2.522
    41   1 H        0.926     0.026     2.649     2.545
    42   1 H        0.926     0.026     2.649     2.545
    43   1 H        0.926     0.029     2.601     2.522
    44   1 H        0.926     0.042     2.422     2.434
    45   1 H        0.926     0.049     2.338     2.391
    46   1 H        0.925     0.060     2.193     2.316
    47   1 H        0.924     0.037     2.484     2.464
    48   1 H        0.924     0.037     2.484     2.464
    49   1 H        0.926     0.036     2.497     2.471
    50   1 H        0.924     0.037     2.484     2.465
    51   1 H        0.925     0.060     2.193     2.316
    52   1 H        0.924     0.037     2.484     2.465
    53   1 H        0.926     0.029     2.601     2.522
    54   1 H        0.926     0.026     2.649     2.545
    55   1 H        0.926     0.026     2.649     2.545
    56   1 H        0.926     0.029     2.601     2.522
    57   1 H        0.924     0.037     2.484     2.465
    58   1 H        0.924     0.037     2.484     2.465
    59   1 H        0.925     0.060     2.193     2.316
    60   1 H        0.926     0.036     2.497     2.471

molecular dipole:
                 x           y           z       tot (Debye)
 q only:        0.000      -0.000      -0.000
   full:        0.000      -0.000      -0.000       0.000

 projected vibrational frequencies (cm⁻¹)
eigval :       -0.00    -0.00     0.00     0.00     0.00     0.00
eigval :      -14.26   -10.99    16.07    25.24    37.66    52.30
eigval :       65.18    73.62    77.09    99.91   101.17   105.74
eigval :      130.59   155.29   156.43   157.43   157.82   178.03
eigval :      183.37   183.79   183.87   189.34   210.65   241.58
eigval :      241.95   277.11   277.42   289.09   294.90   348.55
eigval :      350.86   374.89   376.62   382.12   396.83   405.79
eigval :      440.33   448.19   449.41   449.94   454.96   459.90
eigval :      486.48   501.83   525.94   526.18   559.06   565.95
eigval :      580.37   584.62   596.14   604.94   610.04   642.22
eigval :      656.50   679.82   691.35   692.92   699.98   714.69
eigval :      735.67   742.05   774.64   775.88   796.67   798.50
eigval :      839.74   840.22   873.57   875.55   896.62   904.15
eigval :      907.80   909.35   910.92   916.57   916.91   926.42
eigval :      926.69   932.74   949.70   951.26  1047.43  1053.73
eigval :     1071.96  1072.84  1076.92  1078.09  1111.25  1121.77
eigval :     1121.79  1122.46  1122.48  1123.35  1135.79  1142.75
eigval :     1153.64  1154.81  1162.41  1166.66  1176.85  1179.45
eigval :     1180.39  1182.61  1203.89  1204.81  1224.37  1250.27
eigval :     1253.99  1255.23  1267.52  1287.59  1288.12  1323.47
eigval :     1323.85  1335.50  1351.05  1374.60  1386.69  1399.00
eigval :     1400.10  1401.91  1401.97  1421.32  1428.31  1428.94
eigval :     1431.12  1447.01  1467.96  1474.09  1474.10  1476.22
eigval :     1476.24  1481.91  1485.98  1486.77  1487.16  1496.75
eigval :     1500.71  1527.61  1537.53  1545.85  1567.92  1568.34
eigval :     1598.71  1598.83  1609.06  1623.84  2920.76  2920.83
eigval :     2922.88  2922.95  2935.95  2936.02  2938.23  2938.29
eigval :     3025.47  3025.52  3027.16  3027.19  3067.07  3067.08
eigval :     3073.56  3073.63  3083.27  3083.63  3087.65  3088.62
eigval :     3090.18  3090.24  3115.71  3115.75  3120.46  3120.57

   temp. (K)  partition function   enthalpy   heat capacity  entropy
                                   cal/mol     cal/K/mol   cal/K/mol   J/K/mol
 298.15  VIB  0.870E+14            17780.960    108.442    111.566
         ROT  0.133E+08              888.752      2.981     35.573
         INT  0.115E+22            18669.712    111.422    147.138
         TR   0.925E+28             1481.254      4.968     44.185
         TOT                       20150.9661   116.3905   191.3232   800.4964

       T/K    H(0)-H(T)+PV         H(T)/Eh          T*S/Eh         G(T)/Eh
   ------------------------------------------------------------------------
    298.15    0.321126E-01    0.500735E+00    0.909038E-01    0.409831E+00
   ------------------------------------------------------------------------

         :::::::::::::::::::::::::::::::::::::::::::::::::::::
         ::                  THERMODYNAMIC                  ::
         :::::::::::::::::::::::::::::::::::::::::::::::::::::
         :: total free energy         -93.356593669917 Eh   ::
         ::.................................................::
         :: total energy              -93.766424338499 Eh   ::
         :: zero point energy           0.468621896587 Eh   ::
         :: G(RRHO) w/o ZPVE           -0.058791228005 Eh   ::
         :: G(RRHO) contrib.            0.409830668581 Eh   ::
         :::::::::::::::::::::::::::::::::::::::::::::::::::::

           -------------------------------------------------
          | TOTAL ENERGY              -93.766424338499 Eh   |
          | TOTAL ENTHALPY            -93.265689833328 Eh   |
          | TOTAL FREE ENERGY         -93.356593669917 Eh   |
          | GRADIENT NORM               0.000024440765 Eh/α |
          | HOMO-LUMO GAP               2.192914435065 eV   |
           -------------------------------------------------

 * finished run on 2025/07/20 at 08:59:41.451
