   * xtb version 6.7.1 (edcfbbe) compiled by 'albert@albert-system' on 2024-07-22

   ID    Z sym.   atoms
    1    6 C      1, 3-18, 20-22, 24-31, 33, 34
    2    8 O      2, 19, 23, 32
    3    1 H      35-60

          program call               : xtb data2507/gas/DMPA/DMPA_gas_S0_crest.xyz --gfn 2 --ohess vtight --parallel 40 --molden --ceasefiles --namespace data2507/gas/DMPA/DMPA_gas_S0_finalOpt
          :  Hamiltonian                  GFN2-xTB          :
 * total energy  :   -93.7685285 Eh     change       -0.2143310E-08 Eh
 * total energy  :   -93.7685295 Eh     change       -0.1041258E-05 Eh
 * total energy  :   -93.7685310 Eh     change       -0.1443980E-05 Eh
 * total energy  :   -93.7685330 Eh     change       -0.1991131E-05 Eh
 * total energy  :   -93.7685331 Eh     change       -0.1462929E-06 Eh
 * total energy  :   -93.7685338 Eh     change       -0.7222707E-06 Eh
 * total energy  :   -93.7685346 Eh     change       -0.7138830E-06 Eh
 * total energy  :   -93.7685353 Eh     change       -0.7663194E-06 Eh
 * total energy  :   -93.7685362 Eh     change       -0.9037550E-06 Eh
 * total energy  :   -93.7685373 Eh     change       -0.1034252E-05 Eh
 * total energy  :   -93.7685381 Eh     change       -0.8632705E-06 Eh
 * total energy  :   -93.7685387 Eh     change       -0.5302626E-06 Eh
 * total energy  :   -93.7685390 Eh     change       -0.3863510E-06 Eh
 * total energy  :   -93.7685394 Eh     change       -0.3522039E-06 Eh
 * total energy  :   -93.7685396 Eh     change       -0.2178465E-06 Eh
 * total energy  :   -93.7685397 Eh     change       -0.4176258E-07 Eh
   *** GEOMETRY OPTIMIZATION CONVERGED AFTER 16 ITERATIONS ***

 final structure:
================
60
 xtb: 6.7.1 (edcfbbe)
C            7.76347374677381        0.34805927968824       -1.40693768090032
O            7.03839286360550        0.03103922115265       -0.24476074389525
C            5.67538753458585        0.08204151970563       -0.29763192626992
C            4.93152442601112        0.42570164886326       -1.41606708937444
C            3.54714718480505        0.43627401838040       -1.33068208085004
C            2.88650241016265        0.10932771149727       -0.16150624194154
C            1.40901324159255        0.11402258291901       -0.08285213863523
C            0.71362533796935        1.32971882499091       -0.06352969921393
C            1.38953783651527        2.57787369632848       -0.09901841773122
C            0.70346035676948        3.75275927188494       -0.10303107899754
C           -0.70593348985188        3.75297225999980       -0.07681237430092
C           -1.39133798297877        2.57890923406242       -0.02323534948329
C           -0.71472638680164        1.33089613824856        0.00273891061542
C           -1.40941151817744        0.11711710458681        0.08085888633057
C           -2.88701438352903        0.11581123157805        0.15725305892008
C           -3.55018272775082        0.50115776781230        1.30705326137420
C           -4.93479921358832        0.49649126062366        1.38925934998751
C           -5.67627294690936        0.09855947290849        0.28736020848828
O           -7.03923138173162        0.04718989819347        0.23332193068084
C           -7.76701383869872        0.42610007640715        1.37504855459359
C           -5.02471864398918       -0.28852392270669       -0.88548118583966
C           -3.64324360014407       -0.28323459247361       -0.95993469613139
O           -2.92747992076248       -0.63391112542474       -2.06344741985972
C           -3.62226971553386       -1.06705439401684       -3.20497078220597
C           -0.71228808332230       -1.09815140159595        0.07962335626784
C           -1.38410872811701       -2.34336684188782        0.18954462330158
C           -0.70003025076065       -3.51901602816298        0.16001563185953
C            0.70192134536412       -3.52209828162725        0.01494861758430
C            1.38526784749994       -2.34883613763449       -0.07147999411963
C            0.71264826694368       -1.10017927990960       -0.02227139592423
C            3.64513014218039       -0.23415651710104        0.97236902066320
O            2.93183188652521       -0.52867221536508        2.09376037985709
C            3.62918764396941       -0.90510573684864        3.25369818985887
C            5.02641565901366       -0.24485066918149        0.89479228139130
H            7.57565081026510        1.37707762591276       -1.73052362571200
H            8.81338251543524        0.24197335265461       -1.13798476832781
H            7.52943383266437       -0.33848376521446       -2.22716564102746
H            5.40378370713453        0.68353652143684       -2.34993239949060
H            2.96366120181815        0.69996273257683       -2.20060049160639
H            2.46938928272036        2.57543461651973       -0.12088692263909
H            1.23186937336958        4.69496744338861       -0.12923593449893
H           -1.23494285402148        4.69501301989749       -0.09630801116137
H           -2.47117952397727        2.57704295069251       -0.00106880715181
H           -2.96856372134686        0.80731394586306        2.16422234810480
H           -5.40909531926708        0.80120872715698        2.30784714224554
H           -8.81639359455555        0.30883958727687        1.10861206352958
H           -7.53745068728783       -0.21731297825941        2.23074879806797
H           -7.57738849618401        1.47012036530039        1.64517220083247
H           -5.64237064727659       -0.58519493694052       -1.71698157559868
H           -4.27331073259035       -0.28185152689269       -3.60331749758156
H           -2.85612212160240       -1.30738484140068       -3.94051101696045
H           -4.21840374936084       -1.96192387380840       -2.99823761331543
H           -2.45834026527830       -2.33981108023994        0.30157287675807
H           -1.22463236949147       -4.46013537441607        0.24408645861015
H            1.22709571212237       -4.46584701988540       -0.02405136178974
H            2.45948056776943       -2.35006733268159       -0.18371854719136
H            4.22314652884273       -1.81037462624643        3.09054813559783
H            2.86479484226701       -1.10666535399591        4.00258595237838
H            4.28276943119328       -0.10210685603218        3.61017714789117
H            5.64586834759742       -0.50054428666150        1.73847641133622

          :  Hamiltonian                  GFN2-xTB          :
         :: gradient norm              0.000092929084 Eh/a0 ::
         :: HOMO-LUMO gap              2.132878576631 eV    ::
         :: SCC energy               -95.244828622326 Eh    ::
         :: -> dispersion             -0.076196701996 Eh    ::
         :: repulsion energy           1.476288963731 Eh    ::

    * Orbital Energies and Occupations

         #    Occupation            Energy/Eh            Energy/eV
      -------------------------------------------------------------
         1        2.0000           -0.7121672             -19.3791
       ...           ...                  ...                  ...
        73        2.0000           -0.4253158             -11.5734
        74        2.0000           -0.4183207             -11.3831
        75        2.0000           -0.4133379             -11.2475
        76        2.0000           -0.4122759             -11.2186
        77        2.0000           -0.4030178             -10.9667
        78        2.0000           -0.3939125             -10.7189
        79        2.0000           -0.3917615             -10.6604
        80        2.0000           -0.3854851             -10.4896
        81        2.0000           -0.3836612             -10.4400
        82        2.0000           -0.3836212             -10.4389
        83        2.0000           -0.3675871             -10.0026
        84        2.0000           -0.3646122              -9.9216
        85        2.0000           -0.3445166              -9.3748 (HOMO)
        86                         -0.2661348              -7.2419 (LUMO)
        87                         -0.2176119              -5.9215
        88                         -0.2140200              -5.8238
        89                         -0.2134605              -5.8086
        90                         -0.2070712              -5.6347
        91                         -0.2049561              -5.5771
        92                         -0.2047993              -5.5729
        93                         -0.1615251              -4.3953
        94                         -0.1594179              -4.3380
        95                         -0.0855415              -2.3277
        96                         -0.0828795              -2.2553
       ...                                ...                  ...
       162                          0.7302425              19.8709
      -------------------------------------------------------------
                  HL-Gap            0.0783818 Eh            2.1329 eV

     #   Z          covCN         q      C6AA      α(0)
     1   6 C        3.644     0.039    20.256     6.469
     2   8 O        1.706    -0.272    18.519     5.810
     3   6 C        2.867     0.139    24.967     8.191
     4   6 C        2.914    -0.081    30.032     8.986
     5   6 C        2.925    -0.037    28.914     8.818
     6   6 C        2.976    -0.017    28.420     8.745
     7   6 C        2.977     0.005    27.916     8.667
     8   6 C        2.984     0.008    27.830     8.654
     9   6 C        2.917    -0.034    28.845     8.807
    10   6 C        2.914    -0.032    28.794     8.799
    11   6 C        2.914    -0.032    28.794     8.799
    12   6 C        2.917    -0.034    28.846     8.807
    13   6 C        2.984     0.008    27.830     8.654
    14   6 C        2.977     0.005    27.916     8.667
    15   6 C        2.976    -0.017    28.421     8.745
    16   6 C        2.925    -0.037    28.914     8.818
    17   6 C        2.914    -0.081    30.032     8.986
    18   6 C        2.867     0.139    24.967     8.191
    19   8 O        1.706    -0.272    18.519     5.810
    20   6 C        3.644     0.039    20.256     6.469
    21   6 C        2.918    -0.096    30.404     9.042
    22   6 C        2.870     0.142    24.912     8.182
    23   8 O        1.705    -0.265    18.389     5.790
    24   6 C        3.645     0.038    20.263     6.470
    25   6 C        2.985     0.012    27.749     8.641
    26   6 C        2.918    -0.030    28.750     8.793
    27   6 C        2.915    -0.031    28.783     8.797
    28   6 C        2.915    -0.031    28.783     8.798
    29   6 C        2.918    -0.030    28.751     8.793
    30   6 C        2.985     0.012    27.750     8.641
    31   6 C        2.870     0.142    24.912     8.182
    32   8 O        1.705    -0.265    18.389     5.790
    33   6 C        3.645     0.038    20.263     6.470
    34   6 C        2.918    -0.096    30.404     9.042
    35   1 H        0.924     0.039     2.458     2.452
    36   1 H        0.925     0.060     2.201     2.320
    37   1 H        0.924     0.039     2.458     2.452
    38   1 H        0.926     0.035     2.517     2.481
    39   1 H        0.926     0.039     2.457     2.451
    40   1 H        0.926     0.030     2.588     2.516
    41   1 H        0.926     0.025     2.653     2.547
    42   1 H        0.926     0.025     2.653     2.547
    43   1 H        0.926     0.030     2.588     2.516
    44   1 H        0.926     0.039     2.457     2.451
    45   1 H        0.926     0.035     2.517     2.481
    46   1 H        0.925     0.060     2.201     2.320
    47   1 H        0.924     0.039     2.458     2.452
    48   1 H        0.924     0.039     2.459     2.452
    49   1 H        0.926     0.049     2.328     2.386
    50   1 H        0.924     0.041     2.442     2.444
    51   1 H        0.925     0.061     2.192     2.315
    52   1 H        0.924     0.040     2.443     2.444
    53   1 H        0.926     0.029     2.603     2.523
    54   1 H        0.926     0.025     2.659     2.550
    55   1 H        0.926     0.025     2.659     2.550
    56   1 H        0.926     0.029     2.603     2.523
    57   1 H        0.924     0.040     2.443     2.444
    58   1 H        0.925     0.061     2.192     2.315
    59   1 H        0.924     0.041     2.442     2.444
    60   1 H        0.926     0.049     2.328     2.386

molecular dipole:
                 x           y           z       tot (Debye)
 q only:       -0.000      -0.045      -0.000
   full:       -0.000      -0.019      -0.002       0.048

 projected vibrational frequencies (cm⁻¹)
eigval :       -0.00    -0.00    -0.00    -0.00     0.00     0.00
eigval :       15.81    15.90    22.18    27.85    43.06    52.77
eigval :       67.94    85.61    86.73    95.16    97.09   111.73
eigval :      127.14   146.63   149.25   152.65   156.59   181.16
eigval :      199.51   199.61   201.48   204.32   215.61   235.81
eigval :      237.12   266.22   266.25   277.91   285.19   340.65
eigval :      356.30   369.74   375.12   393.75   395.55   408.59
eigval :      428.59   432.51   441.40   450.05   456.08   460.33
eigval :      480.28   506.53   541.06   557.53   562.16   568.56
eigval :      578.01   580.44   598.06   606.43   608.43   640.30
eigval :      654.54   679.94   693.48   696.59   698.74   726.46
eigval :      741.22   742.60   775.03   776.34   801.18   803.17
eigval :      843.08   843.15   873.91   876.02   895.67   897.22
eigval :      903.28   905.21   906.50   917.56   917.91   926.72
eigval :      926.90   932.80   941.35   943.56  1049.03  1055.01
eigval :     1072.45  1073.33  1079.76  1080.89  1113.09  1122.58
eigval :     1122.60  1123.38  1123.41  1134.91  1135.87  1148.81
eigval :     1155.23  1159.69  1161.07  1166.55  1180.62  1181.52
eigval :     1186.48  1187.17  1207.27  1207.94  1226.61  1246.39
eigval :     1251.45  1257.23  1267.48  1276.63  1277.31  1321.45
eigval :     1335.84  1348.15  1351.29  1375.67  1386.64  1398.96
eigval :     1399.13  1403.38  1403.84  1420.32  1425.28  1426.03
eigval :     1430.75  1444.88  1466.05  1471.69  1471.71  1472.07
eigval :     1472.11  1479.57  1484.24  1485.84  1485.97  1490.33
eigval :     1495.43  1527.78  1534.39  1544.06  1572.89  1573.61
eigval :     1600.21  1600.22  1609.22  1623.53  2928.32  2928.40
eigval :     2928.70  2928.81  2943.40  2943.40  2943.48  2943.56
eigval :     3024.90  3025.08  3026.48  3026.50  3066.30  3068.10
eigval :     3074.05  3075.78  3084.79  3085.00  3085.80  3087.57
eigval :     3089.25  3091.06  3110.33  3110.43  3120.07  3120.15

   temp. (K)  partition function   enthalpy   heat capacity  entropy
                                   cal/mol     cal/K/mol   cal/K/mol   J/K/mol
 298.15  VIB  0.255E+14            17717.482    108.682    110.354
         ROT  0.135E+08              888.752      2.981     35.611
         INT  0.345E+21            18606.234    111.663    145.965
         TR   0.925E+28             1481.254      4.968     44.185
         TOT                       20087.4880   116.6307   190.1493   795.5847

       T/K    H(0)-H(T)+PV         H(T)/Eh          T*S/Eh         G(T)/Eh
   ------------------------------------------------------------------------
    298.15    0.320114E-01    0.500915E+00    0.903461E-01    0.410569E+00
   ------------------------------------------------------------------------

         :::::::::::::::::::::::::::::::::::::::::::::::::::::
         ::                  THERMODYNAMIC                  ::
         :::::::::::::::::::::::::::::::::::::::::::::::::::::
         :: total free energy         -93.357970779242 Eh   ::
         ::.................................................::
         :: total energy              -93.768539658592 Eh   ::
         :: zero point energy           0.468903496766 Eh   ::
         :: G(RRHO) w/o ZPVE           -0.058334617417 Eh   ::
         :: G(RRHO) contrib.            0.410568879350 Eh   ::
         :::::::::::::::::::::::::::::::::::::::::::::::::::::

           -------------------------------------------------
          | TOTAL ENERGY              -93.768539658592 Eh   |
          | TOTAL ENTHALPY            -93.267624712106 Eh   |
          | TOTAL FREE ENERGY         -93.357970779242 Eh   |
          | GRADIENT NORM               0.000092942644 Eh/α |
          | HOMO-LUMO GAP               2.132878577355 eV   |
           -------------------------------------------------

 * finished run on 2025/07/20 at 09:02:02.127
