   * xtb version 6.7.1 (edcfbbe) compiled by 'albert@albert-system' on 2024-07-22

   ID    Z sym.   atoms
    1    6 C      1, 3-18, 20-22, 24-31, 33, 34
    2    8 O      2, 19, 23, 32
    3    1 H      35-60

          program call               : xtb data2507/gas/DMPA/DMPA_gas_S0_finalOpt.xtbopt.xyz --gfn 2 --spinpol --tblite --uhf 2 --ohess vtight --parallel 40 --molden --ceasefiles --namespace data2507/gas/DMPA/DMPA_gas_T1_preOpt
 * total energy  :   -93.6954533 Eh     change        0.4321093E-07 Eh
 * total energy  :   -93.7019768 Eh     change       -0.6523512E-02 Eh
 * total energy  :   -93.7034044 Eh     change       -0.1427657E-02 Eh
 * total energy  :   -93.7035033 Eh     change       -0.9889581E-04 Eh
 * total energy  :   -93.7035734 Eh     change       -0.7011971E-04 Eh
 * total energy  :   -93.7036078 Eh     change       -0.3436591E-04 Eh
 * total energy  :   -93.7036564 Eh     change       -0.4863404E-04 Eh
 * total energy  :   -93.7037151 Eh     change       -0.5868587E-04 Eh
 * total energy  :   -93.7037651 Eh     change       -0.4992981E-04 Eh
 * total energy  :   -93.7038021 Eh     change       -0.3703546E-04 Eh
 * total energy  :   -93.7045821 Eh     change       -0.9200492E-06 Eh
 * total energy  :   -93.7045827 Eh     change       -0.6380941E-06 Eh
 * total energy  :   -93.7045833 Eh     change       -0.5260477E-06 Eh
 * total energy  :   -93.7045837 Eh     change       -0.4466150E-06 Eh
 * total energy  :   -93.7045840 Eh     change       -0.3216127E-06 Eh
 * total energy  :   -93.7045842 Eh     change       -0.2144870E-06 Eh
 * total energy  :   -93.7045844 Eh     change       -0.1862961E-06 Eh
 * total energy  :   -93.7045844 Eh     change        0.4485580E-07 Eh
 * total energy  :   -93.7045844 Eh     change       -0.5146595E-07 Eh
   *** GEOMETRY OPTIMIZATION CONVERGED AFTER 45 ITERATIONS ***

 final structure:
================
60
 xtb: 6.7.1 (edcfbbe)
C            7.77768795626196        0.59112099431938       -1.31533898060462
O            7.04025034484050        0.04075231443400       -0.25203234737518
C            5.67990335313747        0.13116211460457       -0.29161418637885
C            4.94582633082012        0.72338282712799       -1.30967415623615
C            3.56398248378700        0.74456604464804       -1.22398703972246
C            2.88152540151039        0.18027314870012       -0.15508907663627
C            1.41803535644765        0.18995800096255       -0.09293340561696
C            0.71358255054932        1.43306378651898       -0.06308489717018
C            1.38353862213591        2.65773279509179       -0.06018517000816
C            0.68928204446122        3.86785066966655       -0.08384686505308
C           -0.68646864959667        3.86761127551555       -0.11395503280955
C           -1.38160187849651        2.65837892319303       -0.07593632297267
C           -0.71250230807827        1.43495941547194       -0.01087138854989
C           -1.41790157523034        0.19559602772878        0.08217881663525
C           -2.88146677279166        0.18998485931643        0.14437953867832
C           -3.56394321643253        0.80673142153696        1.18382061525208
C           -4.94582425481158        0.78985473263111        1.27027725105844
C           -5.67978250479676        0.14777601289966        0.28282768475730
O           -7.04011404454202        0.05512048593890        0.24786068340534
C           -7.77761292777247        0.65608241081520        1.28336732896957
C           -5.01729325889931       -0.46440734044406       -0.78359116635926
C           -3.63721558039550       -0.44930466872554       -0.86353359568327
O           -2.92290432908163       -0.98550722637317       -1.88921523468937
C           -3.61120131841616       -1.65931193105277       -2.91169443562554
C           -0.70879426165063       -1.04453667908329        0.10113060030384
C           -1.36519353709503       -2.26218485051886        0.28381898461163
C           -0.67792760330669       -3.47367642224831        0.21636495310472
C            0.67483303935194       -3.48079436789627       -0.03942575217852
C            1.36312689549533       -2.27494741951102       -0.16893806624529
C            0.70788468165551       -1.04896469533522       -0.04854059881808
C            3.63740913973287       -0.40855581589336        0.88304519213603
O            2.92333233460246       -0.89334092232547        1.93416097691952
C            3.61162161327790       -1.51800516231682        2.98739013488623
C            5.01747822015240       -0.42764644094956        0.80375364353040
H            7.61090140451319        1.66949222682717       -1.40486819888705
H            8.82390978143708        0.40794262904162       -1.07503054940467
H            7.53525089425156        0.10631530182928       -2.26664322940027
H            5.42685427913466        1.16142247648019       -2.16911275150568
H            2.99170170117937        1.18795333251581       -2.02550099504611
H            2.46247624880281        2.67104392859907       -0.03785512832658
H            1.23954857756685        4.79736804254237       -0.08776102247358
H           -1.23602009328469        4.79654656134614       -0.15738392292201
H           -2.46054162531143        2.67124320805490       -0.09871467537516
H           -2.99172779931063        1.28941753980025        1.96234689832882
H           -5.42694956243862        1.27003055668977        2.10684583843258
H           -8.82376020754079        0.46036668129526        1.05280912731798
H           -7.53426314897358        0.21855506897932        2.25709342008228
H           -7.61186663703292        1.73770056175098        1.32003554666561
H           -5.62799521274786       -0.93800795985370       -1.53442299152957
H           -4.28908090614795       -0.98988323359577       -3.45160866301141
H           -2.84205118164524       -2.01979073993459       -3.59301510414286
H           -4.17732041083186       -2.51175293748602       -2.52230476445696
H           -2.42572187709874       -2.26866409447997        0.48547599018806
H           -1.21595451911586       -4.40067204568435        0.35258059084491
H            1.21205838006009       -4.41402085872793       -0.12793866951731
H            2.42358939539501       -2.29272122262771       -0.37028504758927
H            4.17733283449858       -2.38820601619881        2.63882678122734
H            2.84248720198623       -1.84540480114539        3.68522723837398
H            4.28987895948248       -0.82395053346489        3.49474971806415
H            5.62824624857141       -0.86344595952475        1.57708775111159

 projected vibrational frequencies (cm⁻¹)
eigval :       -0.00    -0.00    -0.00    -0.00    -0.00     0.00
eigval :       14.04    23.63    29.44    36.26    46.06    46.85
eigval :       72.63    84.78    87.03    95.45    99.78   116.46
eigval :      132.70   146.40   149.21   161.36   161.46   180.56
eigval :      197.41   199.03   200.74   203.65   229.91   235.04
eigval :      236.55   266.44   266.46   279.05   285.25   338.83
eigval :      347.78   355.08   356.09   386.83   394.27   394.85
eigval :      416.02   425.34   433.91   444.46   454.96   471.83
eigval :      475.87   493.56   535.09   554.83   556.63   564.77
eigval :      574.41   578.53   591.71   594.93   600.77   618.07
eigval :      645.91   670.78   677.27   692.21   698.72   714.66
eigval :      726.26   737.75   746.10   759.18   801.01   802.44
eigval :      838.17   841.16   842.74   844.12   882.08   885.60
eigval :      892.19   894.04   902.08   902.62   903.46   910.67
eigval :      912.23   942.55   943.68   945.78  1048.25  1054.43
eigval :     1071.82  1072.90  1098.28  1101.85  1105.66  1112.01
eigval :     1121.24  1121.29  1122.49  1122.50  1134.45  1144.69
eigval :     1154.19  1157.20  1160.50  1161.37  1178.28  1180.97
eigval :     1181.30  1184.02  1194.47  1195.04  1229.02  1240.40
eigval :     1243.70  1252.65  1258.15  1268.07  1270.95  1296.05
eigval :     1303.82  1325.24  1337.04  1349.26  1371.35  1376.67
eigval :     1380.54  1397.57  1397.73  1402.27  1402.34  1409.22
eigval :     1424.61  1424.94  1431.07  1457.80  1459.88  1470.65
eigval :     1470.69  1471.37  1471.39  1478.60  1482.48  1483.56
eigval :     1484.17  1484.83  1485.17  1515.39  1532.16  1557.29
eigval :     1557.89  1561.70  1586.10  1587.31  2927.80  2927.86
eigval :     2929.41  2929.41  2942.44  2942.57  2943.60  2943.69
eigval :     3024.64  3024.68  3026.05  3026.08  3067.73  3071.07
eigval :     3076.94  3081.03  3085.15  3085.26  3088.12  3091.51
eigval :     3094.27  3096.58  3108.46  3108.61  3119.08  3119.19

   temp. (K)  partition function   enthalpy   heat capacity  entropy
                                   cal/mol     cal/K/mol   cal/K/mol   J/K/mol
 298.15  VIB  0.115E+14            17801.764    109.967    110.210
         ROT  0.136E+08              888.752      2.981     35.621
         INT  0.156E+21            18690.517    112.948    145.830
         TR   0.925E+28             1481.254      4.968     44.185
         TOT                       20171.7705   117.9163   190.0152   795.0235

       T/K    H(0)-H(T)+PV         H(T)/Eh          T*S/Eh         G(T)/Eh
   ------------------------------------------------------------------------
    298.15    0.321458E-01    0.498373E+00    0.902823E-01    0.408090E+00
   ------------------------------------------------------------------------

         :::::::::::::::::::::::::::::::::::::::::::::::::::::
         ::                  THERMODYNAMIC                  ::
         :::::::::::::::::::::::::::::::::::::::::::::::::::::
         :: total free energy         -93.296494058803 Eh   ::
         ::.................................................::
         :: total energy              -93.704584430859 Eh   ::
         :: zero point energy           0.466226955007 Eh   ::
         :: G(RRHO) w/o ZPVE           -0.058136582951 Eh   ::
         :: G(RRHO) contrib.            0.408090372056 Eh   ::
         :::::::::::::::::::::::::::::::::::::::::::::::::::::

           -------------------------------------------------
          | TOTAL ENERGY              -93.704584430859 Eh   |
          | TOTAL ENTHALPY            -93.206211713364 Eh   |
          | TOTAL FREE ENERGY         -93.296494058803 Eh   |
          | GRADIENT NORM               0.000043858899 Eh/α |
           -------------------------------------------------

 * finished run on 2025/07/20 at 09:02:06.703
