   * xtb version 6.7.1 (edcfbbe) compiled by 'albert@albert-system' on 2024-07-22

   ID    Z sym.   atoms
    1    9 F      1, 3, 4
    2    6 C      2, 5-8, 10-18, 20-35, 37-52
    3    7 N      9, 19, 36
    4    1 H      53-82

          program call               : xtb data2507/gas/CzB-FMPIM/CzB-FMPIM.xyz --gfn 2 --ohess vtight --parallel 40 --molden --ceasefiles --namespace data2507/gas/CzB-FMPIM/CzB-FMPIM_gas_S0_preOpt
          :  Hamiltonian                  GFN2-xTB          :
 * total energy  :  -136.8146399 Eh     change       -0.2312532E-08 Eh
 * total energy  :  -136.8274608 Eh     change       -0.1282082E-01 Eh
 * total energy  :  -136.8306858 Eh     change       -0.3225077E-02 Eh
 * total energy  :  -136.8318200 Eh     change       -0.1134193E-02 Eh
 * total energy  :  -136.8328771 Eh     change       -0.1057105E-02 Eh
 * total energy  :  -136.8335101 Eh     change       -0.6329994E-03 Eh
 * total energy  :  -136.8340088 Eh     change       -0.4986445E-03 Eh
 * total energy  :  -136.8344801 Eh     change       -0.4713168E-03 Eh
 * total energy  :  -136.8349103 Eh     change       -0.4301885E-03 Eh
 * total energy  :  -136.8353173 Eh     change       -0.4070688E-03 Eh
 * total energy  :  -136.8365655 Eh     change       -0.2376087E-06 Eh
 * total energy  :  -136.8365657 Eh     change       -0.2520168E-06 Eh
 * total energy  :  -136.8365661 Eh     change       -0.3567247E-06 Eh
 * total energy  :  -136.8365664 Eh     change       -0.3352843E-06 Eh
 * total energy  :  -136.8365667 Eh     change       -0.2848263E-06 Eh
 * total energy  :  -136.8365669 Eh     change       -0.2346041E-06 Eh
 * total energy  :  -136.8365672 Eh     change       -0.2915947E-06 Eh
 * total energy  :  -136.8365675 Eh     change       -0.2384344E-06 Eh
 * total energy  :  -136.8365675 Eh     change       -0.1538578E-07 Eh
   *** GEOMETRY OPTIMIZATION CONVERGED AFTER 68 ITERATIONS ***

 final structure:
================
82
 xtb: 6.7.1 (edcfbbe)
F           -1.47368012057523       -5.92087373821592       -0.47237067753895
C           -2.64118695839210       -5.57303957791946       -1.05229964378614
F           -3.55949740386659       -6.43045402727359       -0.58547261312709
F           -2.49780080487858       -5.84015562621429       -2.36031095753780
C           -2.98901711940935       -4.13620604592933       -0.79058713301185
C           -3.84614814541461       -3.80318629574226        0.24990681200641
C           -4.13241760948667       -2.47598573486381        0.50206559471400
C           -3.56232789218460       -1.47949660785191       -0.28657347181118
N           -3.85692908162320       -0.13424772585615       -0.04243673028359
C           -2.96690294673654        0.90699794124037        0.09538473079674
C           -1.52077696821033        0.77802401826336        0.11012986930983
C           -0.75419683225848        1.83095167036636       -0.39034049638540
C            0.62211469763850        1.75921979120110       -0.38605587049206
C            1.27738799087796        0.63608974943278        0.11887604676609
C            2.74276710708989        0.55248957923907        0.11278906092042
C            3.38715705433787       -0.64593955570984       -0.19046305006655
C            4.76445267531737       -0.72703691436533       -0.20549818143475
C            5.53495138673107        0.39174821428225        0.10109736518225
N            6.93229011631508        0.31199380810296        0.09570557581772
C            7.78895165132241        1.18308067562137       -0.54891006341946
C            7.49845540599531        2.26981917334927       -1.36115979549390
C            8.55793488956727        2.96481094853594       -1.91225975294209
C            9.87792732795314        2.58899301057800       -1.67343763088888
C           10.17250860906439        1.49358021463259       -0.88670284507826
C            9.12449109038556        0.77895394751089       -0.32177723145970
C            9.06137746629608       -0.39186074901366        0.50752829167405
C           10.02662568201920       -1.21663324035042        1.06987799960314
C            9.61627731741670       -2.27351714796050        1.85742938323088
C            8.26375446355786       -2.50325362704890        2.09937601766286
C            7.28500501934089       -1.69663011003558        1.55104753334648
C            7.69028198598044       -0.64766405371968        0.73832228010511
C            4.90012703759243        1.59128005738766        0.41385495968781
C            3.52267333638851        1.66894488300120        0.41047062546192
C            0.50760740816286       -0.40240922767239        0.64071220671588
C           -0.87019864866431       -0.33325067544217        0.64509559585751
N           -3.59701568233756        2.03841983346835        0.26698174705337
C           -4.93212205305321        1.76775899181112        0.24720008645454
C           -5.90669782079666        2.84095477717905        0.37612006904553
C           -5.53962379660936        4.00524234928138        1.04938041886584
C           -6.43810653048568        5.04480378658201        1.18970047070470
C           -7.71230470083534        4.94015820553634        0.65583019094327
C           -8.07770071948867        3.79404924017762       -0.03116630002423
C           -7.18292333505379        2.75063450854855       -0.17579037113926
C           -5.12265591693001        0.40891693030858        0.06777423154626
C           -6.33576055588102       -0.39379615796112       -0.01370701023956
C           -6.52632772699187       -1.30570944796625       -1.05049198327084
C           -7.67887061345793       -2.06718863387951       -1.10594673918971
C           -8.65342849109686       -1.92940725462990       -0.13201748656594
C           -8.47442321774346       -1.01963566889044        0.89802828598825
C           -7.32425528626039       -0.25715171286817        0.96051499799976
C           -2.70428610702106       -1.82034628346748       -1.33080049626503
C           -2.41253113836406       -3.14594644612702       -1.57781048074351
H           -4.28619390472638       -4.57857693448562        0.85734549234658
H           -4.79219341203580       -2.20724952845443        1.31225630502103
H           -1.26330116316134        2.69755317771577       -0.78221054512552
H            1.20053077792615        2.57216878296075       -0.79928305730817
H            2.80104022141396       -1.51604735826107       -0.44734719656383
H            5.25299499654835       -1.65248497557033       -0.47145959225199
H            6.47877717907005        2.55813314509931       -1.56792289145975
H            8.35774573679966        3.81648777657685       -2.54568372697007
H           10.67812948001646        3.16010740780528       -2.12020965585122
H           11.19470381548227        1.19176339080537       -0.71489019192499
H           11.07520585151945       -1.02803785707790        0.89548499730827
H           10.35050485701098       -2.92857274601932        2.30229172167512
H            7.97338383431597       -3.32835299950260        2.73302849338513
H            6.24054804364019       -1.87228911350205        1.76035662096679
H            5.49402949162238        2.45404122560998        0.67613369504848
H            3.04209011889332        2.59938896465736        0.67408321372704
H            0.99631453227103       -1.26233259750162        1.07446484748190
H           -1.43883729493991       -1.13671352109731        1.09025855397233
H           -4.54221126057603        4.07288397333552        1.45537140286321
H           -6.14582812375108        5.94116831398835        1.71735483894014
H           -8.41644057548888        5.75160860672195        0.76784731206209
H           -9.06544272598806        3.71433872631811       -0.46187560519674
H           -7.46963164879649        1.86904510794573       -0.72957261338322
H           -5.77781832899024       -1.40527231922995       -1.82398138388914
H           -7.81712348351948       -2.76861450168512       -1.91541052665259
H           -9.55188064955602       -2.52629310625633       -0.17747484159563
H           -9.23342723319443       -0.90663625921749        1.65785409329346
H           -7.17959235180125        0.45176176922312        1.76252301843760
H           -2.27050105192714       -1.04280100152995       -1.94053964283316
H           -1.75058322331644       -3.41706756805828       -2.38560657078857

          :  Hamiltonian                  GFN2-xTB          :
         :: gradient norm              0.000066788527 Eh/a0 ::
         :: HOMO-LUMO gap              2.154598694695 eV    ::
         :: SCC energy              -139.162224909294 Eh    ::
         :: -> dispersion             -0.114215890418 Eh    ::
         :: repulsion energy           2.325657443186 Eh    ::

    * Orbital Energies and Occupations

         #    Occupation            Energy/Eh            Energy/eV
      -------------------------------------------------------------
         1        2.0000           -0.8818966             -23.9976
       ...           ...                  ...                  ...
       113        2.0000           -0.4185145             -11.3884
       114        2.0000           -0.4170523             -11.3486
       115        2.0000           -0.4168336             -11.3426
       116        2.0000           -0.4159317             -11.3181
       117        2.0000           -0.4151191             -11.2960
       118        2.0000           -0.4074114             -11.0862
       119        2.0000           -0.4038994             -10.9907
       120        2.0000           -0.4012643             -10.9190
       121        2.0000           -0.3967141             -10.7951
       122        2.0000           -0.3848794             -10.4731
       123        2.0000           -0.3773034             -10.2669
       124        2.0000           -0.3701961             -10.0735
       125        2.0000           -0.3610170              -9.8238 (HOMO)
       126                         -0.2818370              -7.6692 (LUMO)
       127                         -0.2680585              -7.2942
       128                         -0.2651552              -7.2152
       129                         -0.2521279              -6.8607
       130                         -0.2436129              -6.6290
       131                         -0.2353469              -6.4041
       132                         -0.2346881              -6.3862
       133                         -0.2335833              -6.3561
       134                         -0.2300735              -6.2606
       135                         -0.2218720              -6.0374
       136                         -0.2205474              -6.0014
       ...                                ...                  ...
       238                          0.7473258              20.3358
      -------------------------------------------------------------
                  HL-Gap            0.0791801 Eh            2.1546 eV

     #   Z          covCN         q      C6AA      α(0)
     1   9 F        0.791    -0.210    11.343     3.978
     2   6 C        3.336     0.486    17.282     6.583
     3   9 F        0.791    -0.205    11.283     3.968
     4   9 F        0.791    -0.206    11.299     3.971
     5   6 C        2.977    -0.027    28.675     8.784
     6   6 C        2.920    -0.021    28.538     8.760
     7   6 C        2.922    -0.034    28.847     8.808
     8   6 C        2.913     0.079    26.227     8.398
     9   7 N        2.851    -0.037    21.945     6.958
    10   6 C        3.151     0.121    25.081     8.191
    11   6 C        2.974    -0.001    28.044     8.687
    12   6 C        2.926    -0.029    28.719     8.788
    13   6 C        2.923    -0.032    28.810     8.802
    14   6 C        2.976     0.012    27.744     8.640
    15   6 C        2.976     0.006    27.877     8.661
    16   6 C        2.925    -0.033    28.830     8.805
    17   6 C        2.920    -0.043    29.074     8.842
    18   6 C        2.913     0.064    26.570     8.452
    19   7 N        2.802    -0.044    22.080     6.979
    20   6 C        3.075     0.046    26.879     8.500
    21   6 C        2.910    -0.051    29.266     8.871
    22   6 C        2.924    -0.033    28.834     8.806
    23   6 C        2.920    -0.041    29.013     8.833
    24   6 C        2.913    -0.033    28.816     8.802
    25   6 C        3.068    -0.017    28.358     8.732
    26   6 C        3.068    -0.017    28.359     8.732
    27   6 C        2.913    -0.033    28.816     8.802
    28   6 C        2.920    -0.041    29.011     8.833
    29   6 C        2.924    -0.033    28.831     8.805
    30   6 C        2.910    -0.051    29.264     8.870
    31   6 C        3.075     0.047    26.879     8.500
    32   6 C        2.920    -0.043    29.072     8.842
    33   6 C        2.924    -0.033    28.825     8.805
    34   6 C        2.924    -0.034    28.855     8.809
    35   6 C        2.920    -0.036    28.891     8.814
    36   7 N        1.913    -0.282    28.158     7.868
    37   6 C        3.163     0.054    26.458     8.407
    38   6 C        2.974     0.010    27.784     8.646
    39   6 C        2.927    -0.029    28.736     8.791
    40   6 C        2.919    -0.029    28.728     8.789
    41   6 C        2.920    -0.031    28.774     8.797
    42   6 C        2.919    -0.030    28.743     8.792
    43   6 C        2.923    -0.037    28.911     8.818
    44   6 C        3.064     0.013    27.658     8.624
    45   6 C        2.972     0.007    27.858     8.658
    46   6 C        2.924    -0.035    28.878     8.813
    47   6 C        2.919    -0.029    28.723     8.789
    48   6 C        2.920    -0.030    28.741     8.791
    49   6 C        2.919    -0.027    28.688     8.783
    50   6 C        2.925    -0.032    28.808     8.802
    51   6 C        2.923    -0.034    28.850     8.808
    52   6 C        2.921    -0.021    28.521     8.758
    53   1 H        0.926     0.066     2.130     2.282
    54   1 H        0.926     0.059     2.205     2.322
    55   1 H        0.926     0.054     2.273     2.358
    56   1 H        0.926     0.040     2.454     2.450
    57   1 H        0.926     0.037     2.485     2.465
    58   1 H        0.926     0.042     2.419     2.432
    59   1 H        0.926     0.027     2.632     2.537
    60   1 H        0.926     0.029     2.603     2.523
    61   1 H        0.926     0.028     2.615     2.529
    62   1 H        0.926     0.031     2.572     2.508
    63   1 H        0.926     0.031     2.572     2.508
    64   1 H        0.926     0.028     2.613     2.528
    65   1 H        0.926     0.029     2.600     2.521
    66   1 H        0.926     0.027     2.631     2.536
    67   1 H        0.926     0.042     2.419     2.432
    68   1 H        0.926     0.039     2.457     2.451
    69   1 H        0.926     0.036     2.503     2.474
    70   1 H        0.926     0.024     2.679     2.560
    71   1 H        0.926     0.050     2.318     2.381
    72   1 H        0.926     0.031     2.571     2.507
    73   1 H        0.926     0.029     2.595     2.519
    74   1 H        0.926     0.028     2.611     2.527
    75   1 H        0.926     0.026     2.643     2.543
    76   1 H        0.926     0.023     2.695     2.567
    77   1 H        0.926     0.033     2.543     2.494
    78   1 H        0.926     0.035     2.519     2.482
    79   1 H        0.926     0.035     2.510     2.478
    80   1 H        0.926     0.035     2.512     2.479
    81   1 H        0.926     0.059     2.214     2.327
    82   1 H        0.926     0.065     2.144     2.290

molecular dipole:
                 x           y           z       tot (Debye)
 q only:       -0.607       0.875       0.211
   full:       -0.843       0.417       0.139       2.417

 projected vibrational frequencies (cm⁻¹)
eigval :       -0.00    -0.00    -0.00     0.00     0.00     0.00
eigval :        8.46     9.99    12.50    13.53    18.93    23.22
eigval :       31.45    34.01    37.50    50.56    54.27    62.71
eigval :       66.89    78.62    83.25    87.39   102.33   106.04
eigval :      108.98   114.09   128.93   145.50   148.52   163.98
eigval :      173.69   190.48   204.47   232.04   233.84   240.19
eigval :      253.40   268.25   271.63   275.55   285.74   321.82
eigval :      339.63   364.50   370.41   371.54   374.71   376.69
eigval :      381.18   385.39   388.39   396.20   404.01   411.90
eigval :      414.61   423.47   434.99   446.00   466.84   477.24
eigval :      489.88   504.52   513.45   519.53   521.69   526.47
eigval :      533.94   541.17   545.61   557.08   582.53   586.80
eigval :      587.61   596.66   599.81   601.36   616.15   625.73
eigval :      630.15   637.91   654.23   665.31   669.38   673.91
eigval :      682.00   683.45   687.56   691.70   701.86   708.13
eigval :      709.34   734.43   756.04   759.33   764.61   769.58
eigval :      769.81   780.85   797.57   809.70   826.01   834.25
eigval :      866.34   870.49   872.77   873.70   878.33   878.75
eigval :      881.25   898.17   902.49   902.85   902.90   903.53
eigval :      914.41   917.61   921.09   921.50   924.45   926.68
eigval :      928.35   929.32   930.24   930.31   932.02   932.80
eigval :      935.93   942.50   955.67   976.03   987.71  1010.14
eigval :     1012.20  1019.60  1027.71  1034.64  1066.62  1070.48
eigval :     1073.84  1074.89  1079.71  1081.76  1083.63  1108.05
eigval :     1118.25  1119.16  1121.37  1134.89  1140.87  1143.65
eigval :     1153.05  1163.50  1177.01  1181.40  1181.51  1181.75
eigval :     1183.65  1190.07  1195.36  1198.86  1201.10  1206.90
eigval :     1212.99  1236.69  1244.81  1254.61  1265.55  1266.29
eigval :     1270.66  1273.33  1282.24  1283.91  1293.06  1302.21
eigval :     1302.92  1315.27  1315.84  1318.98  1321.29  1323.57
eigval :     1330.86  1357.80  1362.17  1362.75  1371.26  1392.48
eigval :     1399.56  1412.14  1414.13  1428.42  1429.64  1431.44
eigval :     1434.72  1453.04  1468.72  1476.43  1486.48  1488.34
eigval :     1490.64  1503.48  1540.28  1556.52  1560.43  1566.14
eigval :     1574.64  1575.51  1578.53  1582.43  1588.53  1589.78
eigval :     1593.21  1596.99  1599.26  1599.77  1602.34  1615.29
eigval :     3071.02  3071.86  3075.66  3076.02  3076.38  3076.66
eigval :     3079.03  3080.74  3081.52  3082.11  3083.15  3084.19
eigval :     3086.11  3086.27  3088.29  3089.86  3090.04  3090.42
eigval :     3093.03  3094.67  3095.34  3095.81  3096.92  3097.79
eigval :     3098.52  3101.60  3103.91  3106.41  3108.47  3111.12

   temp. (K)  partition function   enthalpy   heat capacity  entropy
                                   cal/mol     cal/K/mol   cal/K/mol   J/K/mol
 298.15  VIB  0.423E+21            24557.058    151.339    155.449
         ROT  0.162E+09              888.752      2.981     40.542
         INT  0.684E+29            25445.810    154.319    195.992
         TR   0.172E+29             1481.254      4.968     45.419
         TOT                       26927.0641   159.2876   241.4106  1010.0620

       T/K    H(0)-H(T)+PV         H(T)/Eh          T*S/Eh         G(T)/Eh
   ------------------------------------------------------------------------
    298.15    0.429110E-01    0.658387E+00    0.114702E+00    0.543685E+00
   ------------------------------------------------------------------------

         :::::::::::::::::::::::::::::::::::::::::::::::::::::
         ::                  THERMODYNAMIC                  ::
         :::::::::::::::::::::::::::::::::::::::::::::::::::::
         :: total free energy        -136.292882545938 Eh   ::
         ::.................................................::
         :: total energy             -136.836567466109 Eh   ::
         :: zero point energy           0.615475882196 Eh   ::
         :: G(RRHO) w/o ZPVE           -0.071790962025 Eh   ::
         :: G(RRHO) contrib.            0.543684920171 Eh   ::
         :::::::::::::::::::::::::::::::::::::::::::::::::::::

           -------------------------------------------------
          | TOTAL ENERGY             -136.836567466109 Eh   |
          | TOTAL ENTHALPY           -136.178180575874 Eh   |
          | TOTAL FREE ENERGY        -136.292882545938 Eh   |
          | GRADIENT NORM               0.000066794990 Eh/α |
          | HOMO-LUMO GAP               2.154599149206 eV   |
           -------------------------------------------------

 * finished run on 2025/07/18 at 12:03:55.772
