   * xtb version 6.7.1 (edcfbbe) compiled by 'albert@albert-system' on 2024-07-22

   ID    Z sym.   atoms
    1    9 F      1, 3, 4
    2    6 C      2, 5-8, 10-18, 20-35, 37-52
    3    7 N      9, 19, 36
    4    1 H      53-82

          program call               : xtb data2507/gas/CzB-FMPIM/CzB-FMPIM_gas_S0_finalOpt.xtbopt.xyz --gfn 2 --spinpol --tblite --uhf 2 --ohess vtight --parallel 40 --molden --ceasefiles --namespace data2507/gas/CzB-FMPIM/CzB-FMPIM_gas_T1_preOpt
 * total energy  :  -136.7424611 Eh     change       -0.7236272E-07 Eh
 * total energy  :  -136.7488175 Eh     change       -0.6356408E-02 Eh
 * total energy  :  -136.7518482 Eh     change       -0.3030672E-02 Eh
 * total energy  :  -136.7527192 Eh     change       -0.8710557E-03 Eh
 * total energy  :  -136.7536295 Eh     change       -0.9102409E-03 Eh
 * total energy  :  -136.7541201 Eh     change       -0.4905947E-03 Eh
 * total energy  :  -136.7543966 Eh     change       -0.2764992E-03 Eh
 * total energy  :  -136.7545685 Eh     change       -0.1719448E-03 Eh
 * total energy  :  -136.7547158 Eh     change       -0.1472835E-03 Eh
 * total energy  :  -136.7548314 Eh     change       -0.1155913E-03 Eh
 * total energy  :  -136.7552895 Eh     change       -0.2386585E-06 Eh
 * total energy  :  -136.7552897 Eh     change       -0.2215880E-06 Eh
 * total energy  :  -136.7552899 Eh     change       -0.2041042E-06 Eh
 * total energy  :  -136.7552901 Eh     change       -0.1771828E-06 Eh
 * total energy  :  -136.7552902 Eh     change       -0.1577542E-06 Eh
 * total energy  :  -136.7552904 Eh     change       -0.1572354E-06 Eh
 * total energy  :  -136.7552906 Eh     change       -0.1560607E-06 Eh
 * total energy  :  -136.7552905 Eh     change        0.1292474E-07 Eh
 * total energy  :  -136.7552906 Eh     change       -0.1553596E-07 Eh
   *** GEOMETRY OPTIMIZATION CONVERGED AFTER 69 ITERATIONS ***

 final structure:
================
82
 xtb: 6.7.1 (edcfbbe)
F           -1.82726007127024       -5.80157757290806       -0.22036775490073
C           -3.05338733613570       -5.40838544765546       -0.63488494610139
F           -3.93073091929479       -6.16483917927988        0.04076769596799
F           -3.13612931069073       -5.79255999483295       -1.92363693509433
C           -3.26947906291175       -3.94020289678427       -0.45705449970092
C           -4.08983209225977       -3.45438016310874        0.55950008598244
C           -4.25938624439330       -2.09770456286419        0.71550754388554
C           -3.60135308754143       -1.20198897576735       -0.13793857933498
N           -3.78176022315398        0.16786711896551       -0.00029663294513
C           -2.78562923809088        1.16518002954128       -0.01315671698071
C           -1.39790021532218        1.00172180017135        0.05142114696074
C           -0.58198649575186        2.15009216374551       -0.19125567428412
C            0.77329157633849        2.07702390236494       -0.16564162382324
C            1.45175471856383        0.85936152404926        0.11537777383895
C            2.88330430471368        0.76928553917552        0.11004961499964
C            3.54275267532175       -0.46152713922237       -0.09880245681369
C            4.91125276053058       -0.55273598891401       -0.10917060921576
C            5.70123176650241        0.58437112329247        0.09326565064799
N            7.09238262085154        0.49337768547213        0.08515412994234
C            7.95375573155211        1.32641353357749       -0.60326449058840
C            7.66846654621186        2.37419462952795       -1.46781412830372
C            8.73150590735838        3.03178941505877       -2.05786578521215
C           10.04884791677305        2.65512223367488       -1.80842009069127
C           10.33819934568936        1.59326216439655       -0.97258389025172
C            9.28749894767330        0.91863463664188       -0.36817457354096
C            9.21836726989992       -0.21564748875578        0.51228793350323
C           10.17908227816838       -1.02262223978950        1.10414067979555
C            9.76342174144048       -2.03848512297713        1.94385855319574
C            8.41124340007899       -2.23989936032105        2.20949656428835
C            7.43627454743569       -1.44822762603070        1.63215370859015
C            7.84574259533349       -0.44581670162327        0.76372501579648
C            5.06870378988810        1.81465395921612        0.30389065996260
C            3.69994328241373        1.90324437091720        0.30939513187000
C            0.63853072020363       -0.26190202760185        0.42529355331390
C           -0.72041787624792       -0.20271148585595        0.40487180514381
N           -3.36306818019483        2.38129528590327        0.01578778052311
C           -4.67233048842521        2.20894791655311        0.11662302377040
C           -5.57285325889124        3.34831605947284        0.13993095169176
C           -5.12827256649778        4.54041277898825        0.71494363682264
C           -5.94821882645731        5.65044104524174        0.74518310766356
C           -7.21814795302268        5.59243062774568        0.19196915868372
C           -7.65709183323805        4.42100559376537       -0.40430367903492
C           -6.84380598911449        3.30450975258014       -0.43459187706235
C           -4.99028279815719        0.81937659647956        0.12402276987810
C           -6.27810150360676        0.18093368126154        0.18263788524422
C           -6.60627438284071       -0.90300751169632       -0.64487649129657
C           -7.85439170128632       -1.48485686286446       -0.57064729004094
C           -8.79929954966119       -1.01225219396089        0.32843542576234
C           -8.48900559133851        0.06368353358162        1.14861643088408
C           -7.24756608003557        0.65825383379913        1.07811442042829
C           -2.77392035126550       -1.69960076166114       -1.15633976891791
C           -2.60944147833788       -3.05536093486202       -1.31160070465886
H           -4.58782945757017       -4.14320406711817        1.22378603113396
H           -4.88441565305820       -1.71769400723665        1.50831550360621
H           -1.08859003638821        3.07212513182158       -0.42739891095362
H            1.34967673639502        2.95674752548517       -0.40737608679694
H            2.96164084877126       -1.34725861776587       -0.30278690483706
H            5.39099382658700       -1.49894043213732       -0.31162731392200
H            6.65099091225678        2.65952311840465       -1.68686319461473
H            8.53525029534487        3.85264355429947       -2.73147618388987
H           10.85206586158148        3.19550562973541       -2.28649656771590
H           11.35833780839984        1.28801155696421       -0.79567023352613
H           11.22815661032688       -0.85340032025119        0.91448484081721
H           10.49473558524746       -2.68006576551282        2.41210417412226
H            8.11742156214790       -3.02898890360052        2.88551422880310
H            6.39295792226928       -1.59860353354590        1.86338665022771
H            5.67040946244502        2.68993144558310        0.49978506234184
H            3.24263403576420        2.85740537075552        0.51913326875756
H            1.11069050696664       -1.18030679045443        0.74016689934616
H           -1.28876881922697       -1.06289578269058        0.72051369320631
H           -4.13615345661606        4.56864783647440        1.13806214037748
H           -5.59912233527018        6.56558905460006        1.20055900608341
H           -7.86078167857174        6.46007453775926        0.21717260564514
H           -8.63848454366970        4.37874655621434       -0.85367743527916
H           -7.18389439154447        2.40479980755933       -0.92458960494471
H           -5.89065175581706       -1.25986086763734       -1.37045363667779
H           -8.09533267756282       -2.31200385650576       -1.22186870727415
H           -9.77186978187111       -1.47660846365840        0.38706859661038
H           -9.22047067482997        0.43573632990331        1.85072175660552
H           -7.00197552180685        1.48539198028162        1.72762132238645
H           -2.27715963716200       -1.00857404561277       -1.81968762023488
H           -1.98265589402609       -3.44230086109089       -2.10023983310316

 projected vibrational frequencies (cm⁻¹)
eigval :       -0.00    -0.00     0.00     0.00     0.00     0.00
eigval :        8.97    10.24    11.78    13.77    18.54    23.19
eigval :       32.16    34.91    39.75    53.45    56.54    61.64
eigval :       72.66    80.79    88.19    93.68   104.36   109.66
eigval :      115.46   118.89   137.05   147.84   158.07   162.83
eigval :      175.45   177.32   205.99   233.13   234.73   239.79
eigval :      244.64   265.69   271.31   276.38   287.58   313.07
eigval :      326.91   344.49   369.66   369.84   375.43   376.16
eigval :      379.19   384.58   386.95   391.00   395.87   401.38
eigval :      411.48   419.74   433.76   441.33   452.63   457.90
eigval :      464.16   494.11   500.44   507.56   517.33   520.10
eigval :      527.32   538.99   539.13   545.23   578.74   583.06
eigval :      584.89   589.35   593.30   595.16   609.05   614.47
eigval :      617.64   626.44   636.51   651.78   661.68   663.47
eigval :      674.36   676.03   676.78   681.87   684.98   685.84
eigval :      709.40   733.08   747.13   751.37   757.76   763.06
eigval :      769.60   779.84   785.43   799.90   812.77   815.32
eigval :      819.77   846.66   859.77   868.61   872.21   872.66
eigval :      875.54   895.04   896.50   902.50   902.83   904.59
eigval :      908.31   910.23   912.73   916.74   917.10   917.40
eigval :      919.25   925.95   926.64   927.00   927.95   929.54
eigval :      931.06   931.63   937.47   956.77   968.86   991.66
eigval :      997.70  1006.21  1009.25  1011.73  1040.04  1049.99
eigval :     1064.85  1070.40  1072.37  1073.94  1079.10  1081.39
eigval :     1115.54  1118.19  1121.25  1124.24  1134.10  1143.42
eigval :     1147.82  1152.90  1161.32  1175.81  1179.69  1179.82
eigval :     1180.68  1181.31  1190.89  1195.62  1200.14  1203.75
eigval :     1209.07  1233.24  1237.98  1244.55  1249.86  1261.09
eigval :     1265.56  1266.98  1272.92  1279.21  1281.35  1291.61
eigval :     1296.25  1307.53  1319.42  1321.45  1323.11  1330.41
eigval :     1333.69  1354.25  1354.41  1358.76  1365.70  1390.16
eigval :     1395.55  1406.38  1417.70  1419.96  1421.29  1425.15
eigval :     1427.55  1429.73  1433.61  1453.97  1466.73  1467.31
eigval :     1472.47  1482.46  1482.91  1485.67  1499.60  1503.36
eigval :     1522.29  1545.01  1549.96  1570.44  1571.67  1572.85
eigval :     1578.52  1584.89  1588.91  1589.90  1597.58  1606.87
eigval :     3075.61  3078.54  3079.99  3080.27  3080.39  3080.84
eigval :     3082.11  3083.47  3085.38  3085.92  3087.22  3088.86
eigval :     3088.91  3090.38  3092.52  3093.13  3094.80  3094.99
eigval :     3097.18  3098.61  3098.93  3099.11  3100.24  3100.99
eigval :     3102.24  3104.68  3105.33  3108.47  3109.63  3112.04

   temp. (K)  partition function   enthalpy   heat capacity  entropy
                                   cal/mol     cal/K/mol   cal/K/mol   J/K/mol
 298.15  VIB  0.310E+21            24753.802    153.441    155.983
         ROT  0.167E+09              888.752      2.981     40.605
         INT  0.516E+29            25642.554    156.422    196.588
         TR   0.172E+29             1481.254      4.968     45.419
         TOT                       27123.8082   161.3897   242.0069  1012.5570

       T/K    H(0)-H(T)+PV         H(T)/Eh          T*S/Eh         G(T)/Eh
   ------------------------------------------------------------------------
    298.15    0.432245E-01    0.654909E+00    0.114985E+00    0.539923E+00
   ------------------------------------------------------------------------

         :::::::::::::::::::::::::::::::::::::::::::::::::::::
         ::                  THERMODYNAMIC                  ::
         :::::::::::::::::::::::::::::::::::::::::::::::::::::
         :: total free energy        -136.215367100581 Eh   ::
         ::.................................................::
         :: total energy             -136.755290560448 Eh   ::
         :: zero point energy           0.611684223278 Eh   ::
         :: G(RRHO) w/o ZPVE           -0.071760763411 Eh   ::
         :: G(RRHO) contrib.            0.539923459867 Eh   ::
         :::::::::::::::::::::::::::::::::::::::::::::::::::::

           -------------------------------------------------
          | TOTAL ENERGY             -136.755290560448 Eh   |
          | TOTAL ENTHALPY           -136.100381797522 Eh   |
          | TOTAL FREE ENERGY        -136.215367100581 Eh   |
          | GRADIENT NORM               0.000089007145 Eh/α |
           -------------------------------------------------

 * finished run on 2025/07/18 at 12:08:19.871
