   * xtb version 6.7.1 (edcfbbe) compiled by 'albert@albert-system' on 2024-07-22

   ID    Z sym.   atoms
    1    9 F      1, 3, 4
    2    6 C      2, 5-8, 10-18, 20-35, 37-52
    3    7 N      9, 19, 36
    4    1 H      53-82

          program call               : xtb data2507/gas/CzB-FMPIM/CzB-FMPIM_gas_S0_crest.xyz --gfn 2 --ohess vtight --parallel 40 --molden --ceasefiles --namespace data2507/gas/CzB-FMPIM/CzB-FMPIM_gas_S0_finalOpt
          :  Hamiltonian                  GFN2-xTB          :
 * total energy  :  -136.8365540 Eh     change       -0.1802533E-08 Eh
 * total energy  :  -136.8365549 Eh     change       -0.9101563E-06 Eh
 * total energy  :  -136.8365561 Eh     change       -0.1149073E-05 Eh
 * total energy  :  -136.8365570 Eh     change       -0.9557824E-06 Eh
 * total energy  :  -136.8365578 Eh     change       -0.7508964E-06 Eh
 * total energy  :  -136.8365587 Eh     change       -0.8724105E-06 Eh
 * total energy  :  -136.8365595 Eh     change       -0.8789615E-06 Eh
 * total energy  :  -136.8365602 Eh     change       -0.6990475E-06 Eh
 * total energy  :  -136.8365609 Eh     change       -0.6708664E-06 Eh
 * total energy  :  -136.8365616 Eh     change       -0.7315161E-06 Eh
 * total energy  :  -136.8365639 Eh     change       -0.5261166E-06 Eh
 * total energy  :  -136.8365644 Eh     change       -0.4878140E-06 Eh
 * total energy  :  -136.8365648 Eh     change       -0.4179400E-06 Eh
 * total energy  :  -136.8365651 Eh     change       -0.3169864E-06 Eh
 * total energy  :  -136.8365654 Eh     change       -0.2612156E-06 Eh
 * total energy  :  -136.8365656 Eh     change       -0.2294093E-06 Eh
 * total energy  :  -136.8365659 Eh     change       -0.2207110E-06 Eh
 * total energy  :  -136.8365661 Eh     change       -0.2382122E-06 Eh
 * total energy  :  -136.8365661 Eh     change       -0.4924317E-08 Eh
   *** GEOMETRY OPTIMIZATION CONVERGED AFTER 22 ITERATIONS ***

 final structure:
================
82
 xtb: 6.7.1 (edcfbbe)
F           -1.52896116626202       -5.53409805618089       -0.22997849655558
C           -2.79901253847221       -5.22192720457919       -0.55746704392461
F           -3.58423808472096       -6.00409574656797        0.19397530034866
F           -2.96089432599846       -5.62693320537062       -1.82965333561143
C           -3.07761050342755       -3.75660004927481       -0.38694711762436
C           -3.90572501121837       -3.30172684508295        0.62972456856667
C           -4.12908302774950       -1.94624376742229        0.77390728637925
C           -3.52662399044721       -1.04446948842134       -0.09969885698547
N           -3.76184173335891        0.32786208702938        0.03366352825656
C           -2.82958109435066        1.33999223374933        0.07716747657500
C           -1.38941958977329        1.15795346624157        0.09454697622409
C           -0.58989947378498        2.14538254787588       -0.48257956053903
C            0.78298900695115        2.02654788918728       -0.47833771765070
C            1.40244016410041        0.91975681765396        0.10232651167927
C            2.86412404704793        0.78633181250088        0.09657410561456
C            3.46666744425129       -0.45082297719193       -0.12641313446449
C            4.84047701078986       -0.57819812640121       -0.14350691631629
C            5.64949830486745        0.53286625647480        0.08105274031013
N            7.04344619215335        0.40739000364842        0.07132134817222
C            7.92128311836336        1.20526461697061       -0.63664461867442
C            7.65813314135555        2.24594893242688       -1.51580117595443
C            8.73392670779959        2.86737394488794       -2.12055320144622
C           10.04328917781516        2.46346687038469       -1.86943706069614
C           10.31001089769871        1.41233804872628       -1.01526884211040
C            9.24516353828997        0.77204936410559       -0.39534608109665
C            9.15258593974562       -0.33949112275173        0.50928923782906
C           10.09639397483005       -1.15778090400898        1.11575099428583
C            9.66028863302084       -2.14686803771979        1.97430244760850
C            8.30370196386972       -2.31481306679021        2.24280426042601
C            7.34599092909696       -1.51310064366634        1.65176900200030
C            7.77642733766352       -0.53345952882999        0.76850155584452
C            5.05649262478451        1.77114355067681        0.31506823248450
C            3.68234955670810        1.89398214317078        0.31336045704302
C            0.60063103273636       -0.05221696575336        0.69862830752442
C           -0.77401526517763        0.06511570876269        0.70393455210819
N           -3.41270779991762        2.50662305709828        0.15520981530474
C           -4.75750647418990        2.28987416614772        0.16581919822887
C           -5.68697105358464        3.40915925302975        0.20343834527283
C           -5.26730763896685        4.61349998720235        0.76650259983512
C           -6.12105089534998        5.69815339917227        0.81444652161439
C           -7.40232458782587        5.59871568738225        0.29674030543859
C           -7.81998878285988        4.41085700589770       -0.28082382562971
C           -6.97015032546963        3.32212743558006       -0.33266249541171
C           -5.00376324177621        0.92953810689853        0.10442574471193
C           -6.24915713928968        0.17344312830123        0.10163307399920
C           -6.49004204533162       -0.81354196207064       -0.85260776251872
C           -7.67334213675402       -1.52822651249201       -0.83264323232165
C           -8.62872180525786       -1.26879791872259        0.13547699032143
C           -8.39948765781314       -0.28406861570856        1.08336617883647
C           -7.21859318507456        0.43247559265945        1.07017427422653
C           -2.69794347374892       -1.50784547062889       -1.12052119453443
C           -2.46928788007284       -2.86087530466680       -1.25986082490782
H           -4.37127164905942       -4.00311694737097        1.30424754826448
H           -4.76573407700128       -1.58253338745911        1.56532097433757
H           -1.07156992724886        2.99923490650559       -0.93272031136886
H            1.38643173404293        2.78782084722948       -0.95006057023312
H            2.85050972662294       -1.31663839343539       -0.31961368070455
H            5.29641813837168       -1.53527739813630       -0.34835491594441
H            6.64642771573172        2.55448198572823       -1.73224903272721
H            8.55505135440375        3.68231805647453       -2.80650052117970
H           10.85700369390624        2.97674116796816       -2.35985919582709
H           11.32345398418745        1.08781374654719       -0.83329273925477
H           11.14860680781297       -1.01609489822431        0.92010454186091
H           10.37746002627730       -2.79585913006953        2.45447310975361
H            7.99335170803369       -3.08681534139665        2.93150971144887
H            6.29875735353436       -1.63961825604619        1.88164567832110
H            5.68006764910349        2.62964869415646        0.51501864112915
H            3.23443882835747        2.85571027432382        0.51497742938344
H            1.06223814364310       -0.89617650462963        1.18967246791947
H           -1.36682365639794       -0.68470096496565        1.20730564591171
H           -4.26495759014569        4.67627906613432        1.16094700237491
H           -5.78804650709854        6.62594906546161        1.25674241901077
H           -8.07122371353844        6.44597421191478        0.33590745309343
H           -8.81330854561840        4.33352727773296       -0.69895187438288
H           -7.29716452528741        2.40643047846830       -0.80236845010088
H           -5.75632420572920       -1.00882223250263       -1.62200703475485
H           -7.85058174033367       -2.28861252999166       -1.57880267596994
H           -9.55126069855057       -1.82943049787187        0.14911514128962
H           -9.14324940937521       -0.07621441787790        1.83823102245647
H           -7.03484034955902        1.19969953720412        1.80796025289328
H           -2.23837913395542       -0.80317333117430       -1.79635118281101
H           -1.83065847664161       -3.22845654684283       -2.04820432598628

          :  Hamiltonian                  GFN2-xTB          :
         :: gradient norm              0.000042401382 Eh/a0 ::
         :: HOMO-LUMO gap              2.152288481716 eV    ::
         :: SCC energy              -139.162183494378 Eh    ::
         :: -> dispersion             -0.114199815972 Eh    ::
         :: repulsion energy           2.325617397081 Eh    ::

    * Orbital Energies and Occupations

         #    Occupation            Energy/Eh            Energy/eV
      -------------------------------------------------------------
         1        2.0000           -0.8819329             -23.9986
       ...           ...                  ...                  ...
       113        2.0000           -0.4184761             -11.3873
       114        2.0000           -0.4169911             -11.3469
       115        2.0000           -0.4168131             -11.3421
       116        2.0000           -0.4158891             -11.3169
       117        2.0000           -0.4150632             -11.2944
       118        2.0000           -0.4074044             -11.0860
       119        2.0000           -0.4038929             -10.9905
       120        2.0000           -0.4012648             -10.9190
       121        2.0000           -0.3966593             -10.7936
       122        2.0000           -0.3848406             -10.4720
       123        2.0000           -0.3772959             -10.2667
       124        2.0000           -0.3701563             -10.0725
       125        2.0000           -0.3609797              -9.8228 (HOMO)
       126                         -0.2818846              -7.6705 (LUMO)
       127                         -0.2680958              -7.2953
       128                         -0.2651388              -7.2148
       129                         -0.2521090              -6.8602
       130                         -0.2436143              -6.6291
       131                         -0.2353812              -6.4050
       132                         -0.2345962              -6.3837
       133                         -0.2334580              -6.3527
       134                         -0.2300900              -6.2611
       135                         -0.2219338              -6.0391
       136                         -0.2205434              -6.0013
       ...                                ...                  ...
       238                          0.7473289              20.3359
      -------------------------------------------------------------
                  HL-Gap            0.0790952 Eh            2.1523 eV

     #   Z          covCN         q      C6AA      α(0)
     1   9 F        0.791    -0.210    11.337     3.977
     2   6 C        3.336     0.486    17.279     6.582
     3   9 F        0.791    -0.204    11.274     3.966
     4   9 F        0.791    -0.208    11.314     3.973
     5   6 C        2.977    -0.027    28.674     8.784
     6   6 C        2.919    -0.022    28.550     8.762
     7   6 C        2.923    -0.034    28.850     8.808
     8   6 C        2.913     0.079    26.227     8.398
     9   7 N        2.851    -0.037    21.945     6.958
    10   6 C        3.151     0.121    25.085     8.192
    11   6 C        2.974    -0.001    28.045     8.687
    12   6 C        2.926    -0.029    28.720     8.789
    13   6 C        2.923    -0.032    28.809     8.802
    14   6 C        2.976     0.012    27.744     8.640
    15   6 C        2.976     0.006    27.877     8.661
    16   6 C        2.925    -0.033    28.830     8.805
    17   6 C        2.920    -0.043    29.075     8.842
    18   6 C        2.913     0.064    26.571     8.453
    19   7 N        2.802    -0.043    22.079     6.979
    20   6 C        3.075     0.046    26.879     8.500
    21   6 C        2.910    -0.051    29.266     8.871
    22   6 C        2.924    -0.033    28.834     8.806
    23   6 C        2.920    -0.041    29.013     8.833
    24   6 C        2.913    -0.033    28.816     8.802
    25   6 C        3.068    -0.017    28.358     8.732
    26   6 C        3.068    -0.017    28.359     8.732
    27   6 C        2.913    -0.033    28.816     8.802
    28   6 C        2.920    -0.041    29.011     8.833
    29   6 C        2.924    -0.033    28.832     8.806
    30   6 C        2.910    -0.051    29.264     8.870
    31   6 C        3.075     0.047    26.879     8.500
    32   6 C        2.920    -0.043    29.073     8.842
    33   6 C        2.924    -0.033    28.826     8.805
    34   6 C        2.924    -0.034    28.855     8.809
    35   6 C        2.920    -0.036    28.893     8.815
    36   7 N        1.914    -0.282    28.161     7.868
    37   6 C        3.163     0.054    26.460     8.407
    38   6 C        2.974     0.010    27.784     8.646
    39   6 C        2.927    -0.029    28.736     8.791
    40   6 C        2.919    -0.029    28.728     8.789
    41   6 C        2.920    -0.031    28.774     8.797
    42   6 C        2.919    -0.030    28.743     8.792
    43   6 C        2.923    -0.037    28.911     8.818
    44   6 C        3.064     0.013    27.657     8.624
    45   6 C        2.972     0.007    27.858     8.658
    46   6 C        2.924    -0.035    28.878     8.813
    47   6 C        2.919    -0.029    28.723     8.789
    48   6 C        2.920    -0.030    28.741     8.791
    49   6 C        2.919    -0.027    28.688     8.783
    50   6 C        2.925    -0.032    28.808     8.802
    51   6 C        2.922    -0.034    28.845     8.807
    52   6 C        2.922    -0.020    28.507     8.756
    53   1 H        0.926     0.067     2.121     2.277
    54   1 H        0.926     0.059     2.205     2.322
    55   1 H        0.926     0.054     2.269     2.355
    56   1 H        0.926     0.040     2.454     2.450
    57   1 H        0.926     0.037     2.484     2.465
    58   1 H        0.926     0.042     2.419     2.432
    59   1 H        0.926     0.027     2.631     2.537
    60   1 H        0.926     0.029     2.603     2.523
    61   1 H        0.926     0.028     2.615     2.529
    62   1 H        0.926     0.031     2.572     2.508
    63   1 H        0.926     0.031     2.572     2.508
    64   1 H        0.926     0.028     2.613     2.528
    65   1 H        0.926     0.029     2.600     2.522
    66   1 H        0.926     0.027     2.630     2.536
    67   1 H        0.926     0.042     2.420     2.432
    68   1 H        0.926     0.039     2.458     2.452
    69   1 H        0.926     0.036     2.505     2.475
    70   1 H        0.926     0.023     2.681     2.561
    71   1 H        0.926     0.050     2.318     2.381
    72   1 H        0.926     0.031     2.571     2.507
    73   1 H        0.926     0.029     2.595     2.519
    74   1 H        0.926     0.028     2.611     2.527
    75   1 H        0.926     0.026     2.644     2.543
    76   1 H        0.926     0.023     2.694     2.567
    77   1 H        0.926     0.033     2.542     2.493
    78   1 H        0.926     0.035     2.520     2.482
    79   1 H        0.926     0.035     2.510     2.478
    80   1 H        0.926     0.035     2.513     2.479
    81   1 H        0.926     0.059     2.213     2.326
    82   1 H        0.926     0.064     2.157     2.296

molecular dipole:
                 x           y           z       tot (Debye)
 q only:       -0.566       0.911       0.182
   full:       -0.821       0.456       0.150       2.418

 projected vibrational frequencies (cm⁻¹)
eigval :       -0.00    -0.00    -0.00     0.00     0.00     0.00
eigval :        8.46     9.99    12.70    13.32    18.98    23.09
eigval :       31.49    34.05    37.56    50.35    54.23    62.49
eigval :       66.81    78.57    83.28    87.50   102.40   105.94
eigval :      108.69   114.30   128.72   145.61   149.14   161.58
eigval :      174.85   189.95   204.53   232.04   233.90   240.07
eigval :      253.50   268.13   271.65   275.33   285.70   323.01
eigval :      338.78   364.52   370.67   371.66   374.13   376.69
eigval :      380.58   385.46   388.28   396.21   403.73   411.77
eigval :      414.74   423.47   435.02   445.86   466.69   477.15
eigval :      489.98   504.89   513.48   519.52   521.78   526.42
eigval :      533.99   541.16   545.57   557.02   582.52   586.79
eigval :      587.62   596.65   599.88   601.35   616.18   625.69
eigval :      630.24   637.88   654.14   665.05   669.46   673.92
eigval :      682.01   683.47   687.49   691.68   701.66   708.10
eigval :      709.31   734.63   756.04   759.43   764.62   769.59
eigval :      769.78   780.86   797.32   809.75   825.96   834.24
eigval :      866.33   870.34   872.72   873.73   878.30   878.77
eigval :      881.34   898.15   902.51   902.81   902.90   903.53
eigval :      914.25   917.64   921.08   921.51   924.35   926.66
eigval :      928.44   929.31   930.24   930.34   932.02   932.82
eigval :      936.02   942.47   955.68   976.05   987.73  1010.17
eigval :     1012.19  1019.55  1029.73  1034.28  1061.13  1070.54
eigval :     1073.90  1078.33  1079.77  1081.77  1083.59  1107.95
eigval :     1118.19  1119.19  1121.36  1134.96  1140.17  1143.64
eigval :     1153.12  1163.31  1177.10  1181.38  1181.51  1181.75
eigval :     1183.65  1189.57  1195.38  1198.89  1201.10  1206.87
eigval :     1212.99  1236.69  1244.82  1254.48  1265.39  1266.32
eigval :     1270.72  1273.40  1282.22  1284.06  1293.18  1302.30
eigval :     1302.84  1315.23  1315.84  1319.08  1321.33  1323.84
eigval :     1331.00  1357.80  1362.15  1363.00  1371.19  1392.47
eigval :     1399.59  1411.94  1414.13  1428.40  1429.61  1431.41
eigval :     1434.74  1452.90  1468.60  1476.43  1486.36  1488.38
eigval :     1490.48  1503.38  1539.27  1556.49  1560.41  1566.15
eigval :     1574.78  1575.52  1578.52  1582.43  1588.48  1589.75
eigval :     1593.31  1596.98  1599.25  1599.76  1602.29  1615.29
eigval :     3071.02  3071.96  3075.65  3076.05  3076.41  3076.75
eigval :     3078.95  3080.78  3081.56  3082.13  3083.17  3084.15
eigval :     3086.09  3086.27  3088.34  3089.89  3090.04  3090.35
eigval :     3093.07  3094.70  3095.36  3095.81  3096.98  3097.72
eigval :     3097.94  3102.09  3103.92  3106.72  3107.83  3111.71

   temp. (K)  partition function   enthalpy   heat capacity  entropy
                                   cal/mol     cal/K/mol   cal/K/mol   J/K/mol
 298.15  VIB  0.429E+21            24559.848    151.338    155.475
         ROT  0.162E+09              888.752      2.981     40.549
         INT  0.695E+29            25448.600    154.319    196.023
         TR   0.172E+29             1481.254      4.968     45.419
         TOT                       26929.8543   159.2867   241.4422  1010.1942

       T/K    H(0)-H(T)+PV         H(T)/Eh          T*S/Eh         G(T)/Eh
   ------------------------------------------------------------------------
    298.15    0.429155E-01    0.658379E+00    0.114717E+00    0.543662E+00
   ------------------------------------------------------------------------

         :::::::::::::::::::::::::::::::::::::::::::::::::::::
         ::                  THERMODYNAMIC                  ::
         :::::::::::::::::::::::::::::::::::::::::::::::::::::
         :: total free energy        -136.292903924891 Eh   ::
         ::.................................................::
         :: total energy             -136.836566097297 Eh   ::
         :: zero point energy           0.615463702540 Eh   ::
         :: G(RRHO) w/o ZPVE           -0.071801530134 Eh   ::
         :: G(RRHO) contrib.            0.543662172406 Eh   ::
         :::::::::::::::::::::::::::::::::::::::::::::::::::::

           -------------------------------------------------
          | TOTAL ENERGY             -136.836566097297 Eh   |
          | TOTAL ENTHALPY           -136.178186940165 Eh   |
          | TOTAL FREE ENERGY        -136.292903924891 Eh   |
          | GRADIENT NORM               0.000042416666 Eh/α |
          | HOMO-LUMO GAP               2.152288977298 eV   |
           -------------------------------------------------

 * finished run on 2025/07/18 at 12:08:06.834
