   * xtb version 6.7.1 (edcfbbe) compiled by 'albert@albert-system' on 2024-07-22

   ID    Z sym.   atoms
    1    9 F      1, 3, 4
    2    6 C      2, 5-8, 10-18, 20-35, 37-52
    3    7 N      9, 19, 36
    4    1 H      53-82

          program call               : xtb data2507/gas/CzB-FMPIM/CzB-FMPIM_gas_T1_crest.xyz --gfn 2 --spinpol --tblite --uhf 2 --ohess vtight --parallel 40 --molden --ceasefiles --namespace data2507/gas/CzB-FMPIM/CzB-FMPIM_gas_T1_finalOpt
 * total energy  :  -136.7552542 Eh     change        0.2844897E-07 Eh
 * total energy  :  -136.7552673 Eh     change       -0.1306581E-04 Eh
 * total energy  :  -136.7552736 Eh     change       -0.6268171E-05 Eh
 * total energy  :  -136.7552747 Eh     change       -0.1118834E-05 Eh
 * total energy  :  -136.7552756 Eh     change       -0.9375581E-06 Eh
 * total energy  :  -136.7552763 Eh     change       -0.6550364E-06 Eh
 * total energy  :  -136.7552770 Eh     change       -0.7116271E-06 Eh
 * total energy  :  -136.7552777 Eh     change       -0.7231661E-06 Eh
 * total energy  :  -136.7552782 Eh     change       -0.5201796E-06 Eh
 * total energy  :  -136.7552787 Eh     change       -0.5252308E-06 Eh
 * total energy  :  -136.7552820 Eh     change       -0.9271425E-06 Eh
 * total energy  :  -136.7552828 Eh     change       -0.8142159E-06 Eh
 * total energy  :  -136.7552834 Eh     change       -0.6172601E-06 Eh
 * total energy  :  -136.7552840 Eh     change       -0.5773128E-06 Eh
 * total energy  :  -136.7552845 Eh     change       -0.5241291E-06 Eh
 * total energy  :  -136.7552850 Eh     change       -0.5166803E-06 Eh
 * total energy  :  -136.7552855 Eh     change       -0.4391499E-06 Eh
 * total energy  :  -136.7552859 Eh     change       -0.4220223E-06 Eh
 * total energy  :  -136.7552859 Eh     change       -0.9803244E-08 Eh
   *** GEOMETRY OPTIMIZATION CONVERGED AFTER 22 ITERATIONS ***

 final structure:
================
82
 xtb: 6.7.1 (edcfbbe)
F           -1.91180798498343       -5.75501403418615       -0.22537962048640
C           -3.15422215763451       -5.34758025607120       -0.57068456308533
F           -4.00145280186251       -6.08256073561423        0.16402252935202
F           -3.31906120066603       -5.74482244401410       -1.84818259090338
C           -3.33719099459819       -3.87408208287347       -0.39975110345794
C           -4.13737780112647       -3.36194512897953        0.61975512151637
C           -4.27867808984821       -2.00057789161061        0.76311441880361
C           -3.61254138953791       -1.12680996384292       -0.10661954193185
N           -3.76684060535823        0.24758667722945        0.01691361963059
C           -2.75398673756754        1.22718980987004       -0.01894524327296
C           -1.36875570349641        1.04036201789758        0.03542362239663
C           -0.53494886059163        2.17066633653006       -0.23023507875239
C            0.81902292213885        2.07537898358687       -0.20975965721961
C            1.47875936599745        0.85157737010758        0.08920264699654
C            2.90850817732970        0.73835907155615        0.08393109730600
C            3.54793762756836       -0.50728499753756       -0.09864112350285
C            4.91464424330821       -0.62140674142446       -0.10474488821149
C            5.72333297466425        0.50635051812909        0.07507577813581
N            7.11265301150453        0.39081561748102        0.07441101907878
C            7.99189496954180        1.19315905952057       -0.62762386234290
C            7.72925253107916        2.22612707935227       -1.51681236642743
C            8.80654405747482        2.85166757851290       -2.11580505046740
C           10.11583059495102        2.45778933742989       -1.85095440347665
C           10.38242361920493        1.40999572505425       -0.99015602087604
C            9.31710403422900        0.76738506905949       -0.37652604490880
C            9.22367814842848       -0.34582336723842        0.52829543195753
C           10.16697279046246       -1.15646718881611        1.14273859622962
C            9.72922380160588       -2.14617969717062        2.00224079063424
C            8.37241670266609       -2.31774326528038        2.26521115122488
C            7.41454492785246       -1.52177472011612        1.66563066144284
C            7.84599510510686       -0.54618778765450        0.77750725425562
C            5.11112214795955        1.75146933021302        0.25682657868070
C            3.74402152136947        1.86279854315294        0.25876726637946
C            0.64807983668025       -0.25152577689217        0.41830135142347
C           -0.70974672463676       -0.17037114749863        0.40175297815399
N           -3.30997874350876        2.45341735955446        0.00022293119111
C           -4.62100156596432        2.30494653884139        0.11664280459759
C           -5.50196591433792        3.45955854204849        0.13638538948900
C           -5.03173972381472        4.65010312176236        0.69386000571814
C           -5.83302356345215        5.77376954493374        0.72078306776769
C           -7.10948207693332        5.73090179058142        0.18140228389570
C           -7.57390275319480        4.56067662784367       -0.39767963654852
C           -6.77948979551603        3.43058016064758       -0.42426645737275
C           -4.96257619318926        0.92153477574607        0.14462784427776
C           -6.26056945772170        0.30591987703173        0.22377593956639
C           -6.61648700304439       -0.77953790357607       -0.59000424589607
C           -7.87347938093654       -1.33913119271228       -0.49645263574717
C           -8.79969900290014       -0.84243513404317        0.40902553232785
C           -8.46171011677102        0.23521664184949        1.21587150092807
C           -7.21125863145392        0.80789187127094        1.12570690489711
C           -2.80493562733935       -1.65094875475792       -1.12760661310411
C           -2.66885971979706       -3.01116789055102       -1.27030549972393
H           -4.64168742734434       -4.03382644087998        1.29649608672305
H           -4.88796101408132       -1.60021304828979        1.55816596963718
H           -1.02724939349090        3.09718398902497       -0.47874857804301
H            1.40855557259961        2.94141084821317       -0.46859919288912
H            2.95275423260721       -1.38752775827142       -0.28486973206029
H            5.37883122658192       -1.57956661143386       -0.28613882671486
H            6.71797982952969        2.52410080643933       -1.74747056107233
H            8.62807383694537        3.66043892173145       -2.80870422023620
H           10.93076817837368        2.97325920539144       -2.33664584937383
H           11.39619068081431        1.09110181467950       -0.80110855453233
H           11.21982103571798       -1.01003727335473        0.95505537379839
H           10.44672212763906       -2.79018188124684        2.48819428214547
H            8.06127567250943       -3.08646721495109        2.95677047454517
H            6.36762031153754       -1.64844239900669        1.89473565525678
H            5.72706089642414        2.62083240146336        0.43394076667691
H            3.30275613644879        2.82894053536844        0.44681675919736
H            1.10590866335692       -1.17300715831835        0.74497174406833
H           -1.29091607473140       -1.01688204358777        0.73083694108044
H           -4.03485887840770        4.66632951810774        1.10629574208753
H           -5.46419527312171        6.68776110910446        1.16273271252545
H           -7.73748253377387        6.60926539702259        0.20395995016483
H           -8.56053584815631        4.52994737876213       -0.83638551019924
H           -7.13946877222031        2.53134831086285       -0.90076139219033
H           -5.91522430642795       -1.15515960486715       -1.32013246045447
H           -8.13603285986515       -2.16768284656525       -1.13745400429482
H           -9.77931646626817       -1.28946733159663        0.48290254215782
H           -9.17855152146586        0.62587356954358        1.92293254484488
H           -6.94410173047191        1.63664417048091        1.76456673025092
H           -2.30161964603263       -0.97660173488083       -1.80306795013092
H           -2.05796214816718       -3.41878629257580       -2.06102429680930

 projected vibrational frequencies (cm⁻¹)
eigval :       -0.00    -0.00    -0.00     0.00     0.00     0.00
eigval :        9.02    10.08    13.27    14.47    18.57    23.55
eigval :       31.80    34.86    39.39    52.95    56.09    61.63
eigval :       72.59    81.87    88.24    93.65   103.90   109.20
eigval :      115.19   119.05   136.65   147.47   158.32   162.47
eigval :      175.33   177.17   206.21   232.68   234.74   239.55
eigval :      244.52   265.64   271.27   276.45   287.26   312.98
eigval :      326.88   344.43   369.63   369.80   375.61   375.96
eigval :      378.92   384.25   386.84   390.88   395.81   401.20
eigval :      411.47   419.71   433.93   441.34   452.48   457.75
eigval :      464.35   494.03   500.24   507.77   517.30   520.26
eigval :      527.30   538.96   539.08   545.24   578.69   583.07
eigval :      584.89   589.34   593.33   595.22   609.19   614.46
eigval :      617.52   626.45   636.57   651.79   661.65   663.53
eigval :      674.36   676.00   676.90   681.91   684.83   686.43
eigval :      709.42   733.49   747.08   751.31   757.66   762.98
eigval :      769.52   779.73   785.47   799.66   812.72   814.88
eigval :      819.40   845.21   859.72   868.61   872.05   872.49
eigval :      875.54   895.08   896.51   902.39   902.72   904.51
eigval :      908.25   909.90   912.58   916.66   916.85   917.33
eigval :      919.15   925.75   926.70   927.03   927.91   929.53
eigval :      930.89   931.55   937.27   956.46   969.12   991.94
eigval :      997.78  1006.64  1009.90  1011.71  1039.68  1048.54
eigval :     1065.19  1070.23  1073.39  1073.81  1079.37  1081.45
eigval :     1115.16  1118.28  1121.27  1124.28  1134.20  1143.29
eigval :     1147.78  1152.94  1161.12  1175.77  1179.46  1179.77
eigval :     1180.55  1181.24  1191.04  1195.47  1199.74  1203.60
eigval :     1209.34  1233.20  1237.67  1244.77  1250.10  1261.15
eigval :     1265.49  1267.17  1273.20  1279.58  1281.42  1291.47
eigval :     1296.25  1307.33  1319.32  1321.38  1322.89  1330.40
eigval :     1333.89  1354.26  1354.36  1358.93  1365.68  1390.24
eigval :     1395.73  1406.51  1417.52  1419.99  1421.50  1425.40
eigval :     1427.58  1429.68  1433.63  1454.29  1466.84  1467.25
eigval :     1472.50  1482.56  1483.19  1485.66  1499.37  1503.43
eigval :     1522.12  1545.26  1550.46  1570.09  1571.57  1572.73
eigval :     1578.33  1584.79  1588.86  1589.83  1597.70  1606.77
eigval :     3075.48  3078.39  3079.85  3080.17  3080.28  3080.73
eigval :     3082.13  3083.47  3085.35  3085.91  3087.15  3088.75
eigval :     3088.87  3090.25  3092.32  3093.07  3094.77  3094.81
eigval :     3097.11  3098.43  3098.94  3099.07  3100.21  3101.20
eigval :     3102.34  3104.57  3105.17  3108.28  3109.59  3111.86

   temp. (K)  partition function   enthalpy   heat capacity  entropy
                                   cal/mol     cal/K/mol   cal/K/mol   J/K/mol
 298.15  VIB  0.272E+21            24755.936    153.431    155.859
         ROT  0.167E+09              888.752      2.981     40.606
         INT  0.455E+29            25644.689    156.411    196.466
         TR   0.172E+29             1481.254      4.968     45.419
         TOT                       27125.9428   161.3796   241.8847  1012.0455

       T/K    H(0)-H(T)+PV         H(T)/Eh          T*S/Eh         G(T)/Eh
   ------------------------------------------------------------------------
    298.15    0.432279E-01    0.654894E+00    0.114927E+00    0.539967E+00
   ------------------------------------------------------------------------

         :::::::::::::::::::::::::::::::::::::::::::::::::::::
         ::                  THERMODYNAMIC                  ::
         :::::::::::::::::::::::::::::::::::::::::::::::::::::
         :: total free energy        -136.215319013412 Eh   ::
         ::.................................................::
         :: total energy             -136.755285906757 Eh   ::
         :: zero point energy           0.611666169753 Eh   ::
         :: G(RRHO) w/o ZPVE           -0.071699276408 Eh   ::
         :: G(RRHO) contrib.            0.539966893345 Eh   ::
         :::::::::::::::::::::::::::::::::::::::::::::::::::::

           -------------------------------------------------
          | TOTAL ENERGY             -136.755285906757 Eh   |
          | TOTAL ENTHALPY           -136.100391795617 Eh   |
          | TOTAL FREE ENERGY        -136.215319013412 Eh   |
          | GRADIENT NORM               0.000067908957 Eh/α |
           -------------------------------------------------

 * finished run on 2025/07/18 at 12:12:58.537
