   * xtb version 6.7.1 (edcfbbe) compiled by 'albert@albert-system' on 2024-07-22

   ID    Z sym.   atoms
    1    6 C      1, 3-11, 13, 15-23, 25-33, 35, 37-44
    2    8 O      2, 24
    3    7 N      12, 14, 34, 36
    4    1 H      45-74

          program call               : xtb data2507/gas/1MOBI/1MOBI.xyz --gfn 2 --ohess vtight --parallel 40 --molden --ceasefiles --namespace data2507/gas/1MOBI/1MOBI_gas_S0_preOpt
          :  Hamiltonian                  GFN2-xTB          :
 * total energy  :  -116.4823631 Eh     change       -0.1305196E-08 Eh
 * total energy  :  -116.4936342 Eh     change       -0.1127109E-01 Eh
 * total energy  :  -116.4966675 Eh     change       -0.3033301E-02 Eh
 * total energy  :  -116.4981883 Eh     change       -0.1520851E-02 Eh
 * total energy  :  -116.5001835 Eh     change       -0.1995195E-02 Eh
 * total energy  :  -116.5017038 Eh     change       -0.1520264E-02 Eh
 * total energy  :  -116.5030160 Eh     change       -0.1312198E-02 Eh
 * total energy  :  -116.5040730 Eh     change       -0.1057054E-02 Eh
 * total energy  :  -116.5048847 Eh     change       -0.8116999E-03 Eh
 * total energy  :  -116.5054968 Eh     change       -0.6120299E-03 Eh
 * total energy  :  -116.5079444 Eh     change       -0.3560824E-06 Eh
 * total energy  :  -116.5079447 Eh     change       -0.3298117E-06 Eh
 * total energy  :  -116.5079450 Eh     change       -0.2985428E-06 Eh
 * total energy  :  -116.5079453 Eh     change       -0.3095715E-06 Eh
 * total energy  :  -116.5079457 Eh     change       -0.3487797E-06 Eh
 * total energy  :  -116.5079461 Eh     change       -0.4540605E-06 Eh
 * total energy  :  -116.5079468 Eh     change       -0.6486578E-06 Eh
 * total energy  :  -116.5079477 Eh     change       -0.9468824E-06 Eh
 * total energy  :  -116.5079478 Eh     change       -0.8344898E-08 Eh
   *** GEOMETRY OPTIMIZATION CONVERGED AFTER 94 ITERATIONS ***

 final structure:
================
74
 xtb: 6.7.1 (edcfbbe)
C            1.05884782881009        3.99263655140182        0.25488379117504
O            1.64711461723686        2.71866084119243        0.17622835884902
C            0.83586114091322        1.62023834431981        0.15019085596139
C           -0.54344423077483        1.67354222187101        0.19727727527806
C           -1.35107327623939        0.53032729730292        0.16155759792775
C           -2.78120520025562        0.73878962432016        0.17718524152391
C           -3.75069883172108       -0.16200718815090       -0.05310569648891
C           -5.17229542348621        0.11689294332294       -0.07183763993870
C           -5.73717351559953        1.30326934473485        0.40701813446892
C           -7.09723349942941        1.51880550965090        0.35242067792387
C           -7.94133930741918        0.55278047771234       -0.19040490667558
N           -9.31823247162539        0.78993888237755       -0.26610744965226
C           -9.91523317791449        1.96551250305290       -0.63789431249086
N          -11.20665425014670        1.91779753289879       -0.67493027088358
C          -11.53528209944961        0.63940217045815       -0.29483725629442
C          -12.78054332920821        0.04197038816853       -0.14126497566217
C          -12.81347683662049       -1.27025845683743        0.28049285824399
C          -11.64291283039795       -1.97743085386792        0.56064169226258
C          -10.39559995703498       -1.40430861781861        0.41363606745544
C          -10.35230686223901       -0.09345079346856       -0.03519901204023
C           -7.39765641190171       -0.63519836003421       -0.67166643154231
C           -6.03782595025694       -0.84704735340407       -0.60096490398232
C           -0.70721626040954       -0.72583557500924        0.10516812988621
O           -1.49088250245956       -1.84382270142187        0.10261704542121
C           -0.87727035628956       -3.10879887078271        0.13436773828680
C            0.67503878302163       -0.77791430741492        0.06122457602960
C            1.47627368809850        0.36421974529079        0.07340273024293
C            2.91738835405278        0.31568731372850       -0.01392500438242
C            3.69072244425094       -0.77957254867338        0.06938212089916
C            5.13308008096786       -0.81287248092537       -0.05079283267611
C            5.89755521329369        0.29000624752166       -0.44551815298107
C            7.26786972888392        0.20415888533622       -0.56127903592316
C            7.92399875020633       -0.99077973035151       -0.27467947389826
N            9.31352201966321       -1.08991719810959       -0.40311923055285
C           10.00010768677828       -2.13822281556321       -0.95689253463802
N           11.28140123633509       -1.97192885552454       -0.99893428888266
C           11.50838338517559       -0.74226687363722       -0.43037416090089
C           12.70138682423620       -0.06804453150768       -0.19954606676066
C           12.63201280832920        1.16311677819804        0.41719251476316
C           11.41216320389439        1.71427996229982        0.81332665326079
C           10.21517783402060        1.06254868651162        0.59315092988733
C           10.27352737207748       -0.16416662087721       -0.04983094998087
C            7.17922642342312       -2.10107526001364        0.11448559262923
C            5.80821206530521       -2.00896588052941        0.21752752639428
H            0.47818591694429        4.11244709596337        1.17525301784567
H            1.88850403527348        4.69826737765701        0.26110486830883
H            0.41911815190221        4.19654284108007       -0.60997860831856
H           -1.04314469921392        2.62839298605172        0.24999532712766
H           -3.06402820218101        1.76836473933310        0.36016128019576
H           -3.48259607219523       -1.18021938393339       -0.28435880046892
H           -5.10768681261265        2.06159466238096        0.84583465682904
H           -7.51820056418482        2.43400280001068        0.74238402390219
H           -9.33820787262095        2.83164448787326       -0.90033046564189
H          -13.68091156529673        0.59957040307309       -0.34228029153833
H          -13.76479534885345       -1.76502796634391        0.40901090371791
H          -11.71577285261659       -2.99843403939753        0.90512225936521
H           -9.49698711107690       -1.95277187542576        0.65282674950336
H           -8.04304764948599       -1.37692588143180       -1.11712159808844
H           -5.62566636261901       -1.77117656082152       -0.97976119500111
H           -0.28745778169425       -3.29639521939754       -0.76896581926774
H           -1.69453095191718       -3.82753121464427        0.18211166584893
H           -0.24258878685812       -3.22801778267850        1.01823392615669
H            1.16777376074152       -1.73285029554962       -0.00482803710436
H            3.37619039851362        1.28380680731508       -0.14808239122184
H            3.23862217789345       -1.74483591934269        0.25668586484480
H            5.41180033716367        1.22293998079234       -0.68392439642946
H            7.83800037453736        1.05638184063892       -0.89883555168236
H            9.49340606516536       -3.00162849729226       -1.34391346231266
H           13.64110491617363       -0.50771240155125       -0.49211969911793
H           13.54038738700157        1.71438257806589        0.61027565665311
H           11.40556120025898        2.67410901591913        1.30840368437943
H            9.27890132761458        1.48762948317758        0.92208070075832
H            7.68223117687797       -3.02912615855499        0.34292885519997
H            5.24252549926219       -2.87812128067895        0.52181135400164

          :  Hamiltonian                  GFN2-xTB          :
         :: gradient norm              0.000079482452 Eh/a0 ::
         :: HOMO-LUMO gap              1.963683880754 eV    ::
         :: SCC energy              -118.487567233987 Eh    ::
         :: -> dispersion             -0.088299994510 Eh    ::
         :: repulsion energy           1.979619482097 Eh    ::

    * Orbital Energies and Occupations

         #    Occupation            Energy/Eh            Energy/eV
      -------------------------------------------------------------
         1        2.0000           -0.7234085             -19.6849
       ...           ...                  ...                  ...
        95        2.0000           -0.4215836             -11.4719
        96        2.0000           -0.4207893             -11.4503
        97        2.0000           -0.4194335             -11.4134
        98        2.0000           -0.4186176             -11.3912
        99        2.0000           -0.3975320             -10.8174
       100        2.0000           -0.3913222             -10.6484
       101        2.0000           -0.3882583             -10.5650
       102        2.0000           -0.3879433             -10.5565
       103        2.0000           -0.3810228             -10.3682
       104        2.0000           -0.3791411             -10.3170
       105        2.0000           -0.3782994             -10.2941
       106        2.0000           -0.3766233             -10.2484
       107        2.0000           -0.3593656              -9.7788 (HOMO)
       108                         -0.2872016              -7.8152 (LUMO)
       109                         -0.2605741              -7.0906
       110                         -0.2414629              -6.5705
       111                         -0.2375221              -6.4633
       112                         -0.2359829              -6.4214
       113                         -0.2352939              -6.4027
       114                         -0.2231750              -6.0729
       115                         -0.2144901              -5.8366
       116                         -0.2074570              -5.6452
       117                         -0.1993939              -5.4258
       118                         -0.1879791              -5.1152
       ...                                ...                  ...
       206                          0.7064960              19.2247
      -------------------------------------------------------------
                  HL-Gap            0.0721641 Eh            1.9637 eV

     #   Z          covCN         q      C6AA      α(0)
     1   6 C        3.643     0.038    20.276     6.473
     2   8 O        1.705    -0.268    18.447     5.799
     3   6 C        2.865     0.129    25.177     8.225
     4   6 C        2.928    -0.077    29.913     8.969
     5   6 C        2.967    -0.008    28.206     8.711
     6   6 C        2.904    -0.032    28.805     8.800
     7   6 C        2.901    -0.044    29.086     8.843
     8   6 C        2.969     0.014    27.694     8.632
     9   6 C        2.923    -0.033    28.821     8.804
    10   6 C        2.920    -0.045    29.111     8.848
    11   6 C        2.913     0.058    26.697     8.473
    12   7 N        2.825    -0.035    21.918     6.953
    13   6 C        3.162     0.102    25.445     8.245
    14   7 N        1.880    -0.273    27.930     7.834
    15   6 C        3.219     0.065    25.868     8.271
    16   6 C        2.910    -0.040    28.992     8.829
    17   6 C        2.923    -0.039    28.963     8.826
    18   6 C        2.926    -0.037    28.916     8.818
    19   6 C        2.908    -0.049    29.225     8.864
    20   6 C        3.099     0.033    27.140     8.537
    21   6 C        2.918    -0.043    29.065     8.841
    22   6 C        2.930    -0.034    28.848     8.808
    23   6 C        2.859     0.130    25.150     8.220
    24   8 O        1.704    -0.266    18.405     5.792
    25   6 C        3.642     0.038    20.288     6.476
    26   6 C        2.920    -0.076    29.895     8.966
    27   6 C        2.969    -0.008    28.216     8.713
    28   6 C        2.902    -0.033    28.830     8.804
    29   6 C        2.901    -0.042    29.049     8.837
    30   6 C        2.969     0.014    27.708     8.634
    31   6 C        2.924    -0.034    28.837     8.806
    32   6 C        2.919    -0.042    29.054     8.839
    33   6 C        2.913     0.058    26.691     8.472
    34   7 N        2.825    -0.035    21.916     6.953
    35   6 C        3.162     0.102    25.446     8.245
    36   7 N        1.880    -0.272    27.923     7.833
    37   6 C        3.219     0.065    25.868     8.271
    38   6 C        2.910    -0.040    28.991     8.829
    39   6 C        2.923    -0.039    28.962     8.825
    40   6 C        2.926    -0.037    28.914     8.818
    41   6 C        2.908    -0.049    29.224     8.864
    42   6 C        3.099     0.033    27.141     8.538
    43   6 C        2.919    -0.045    29.114     8.848
    44   6 C        2.929    -0.034    28.845     8.808
    45   1 H        0.924     0.040     2.445     2.445
    46   1 H        0.925     0.062     2.180     2.309
    47   1 H        0.924     0.040     2.446     2.446
    48   1 H        0.926     0.042     2.425     2.435
    49   1 H        0.925     0.036     2.501     2.473
    50   1 H        0.926     0.061     2.183     2.310
    51   1 H        0.926     0.039     2.459     2.452
    52   1 H        0.926     0.037     2.484     2.465
    53   1 H        0.926     0.037     2.486     2.466
    54   1 H        0.926     0.045     2.377     2.411
    55   1 H        0.926     0.033     2.549     2.497
    56   1 H        0.926     0.031     2.566     2.505
    57   1 H        0.926     0.029     2.602     2.522
    58   1 H        0.926     0.042     2.419     2.432
    59   1 H        0.926     0.039     2.456     2.451
    60   1 H        0.924     0.041     2.441     2.444
    61   1 H        0.925     0.061     2.182     2.310
    62   1 H        0.924     0.041     2.438     2.442
    63   1 H        0.926     0.046     2.373     2.409
    64   1 H        0.926     0.056     2.242     2.342
    65   1 H        0.925     0.034     2.533     2.489
    66   1 H        0.926     0.043     2.404     2.425
    67   1 H        0.926     0.043     2.410     2.428
    68   1 H        0.926     0.037     2.484     2.465
    69   1 H        0.926     0.046     2.376     2.410
    70   1 H        0.926     0.033     2.548     2.496
    71   1 H        0.926     0.032     2.564     2.504
    72   1 H        0.926     0.029     2.598     2.521
    73   1 H        0.926     0.038     2.481     2.463
    74   1 H        0.926     0.036     2.498     2.471

molecular dipole:
                 x           y           z       tot (Debye)
 q only:       -0.009      -0.053       0.283
   full:       -0.024      -0.078       0.488       1.257

 projected vibrational frequencies (cm⁻¹)
eigval :       -0.00    -0.00     0.00     0.00     0.00     0.00
eigval :        5.02     7.46     9.66    11.57    23.26    24.33
eigval :       38.90    54.28    56.44    60.97    62.71    71.01
eigval :       73.98    87.93    91.78    98.82   102.55   133.96
eigval :      146.13   164.58   169.50   179.61   180.71   205.84
eigval :      215.81   215.95   222.83   232.53   236.10   247.48
eigval :      264.39   290.78   293.37   311.55   327.86   343.80
eigval :      364.45   376.79   378.69   384.02   386.63   399.46
eigval :      399.51   403.85   412.01   441.82   452.19   466.31
eigval :      473.59   482.80   483.82   509.23   515.51   541.82
eigval :      549.05   549.14   553.98   563.98   590.36   597.02
eigval :      597.05   612.41   617.24   620.49   625.66   631.02
eigval :      667.12   673.77   682.21   687.26   692.89   713.21
eigval :      713.79   722.69   775.89   776.12   776.67   778.61
eigval :      783.20   804.17   804.46   820.62   821.39   828.18
eigval :      834.15   834.24   840.50   855.43   859.56   861.28
eigval :      862.09   873.09   874.11   876.09   878.23   901.36
eigval :      901.58   907.45   911.81   912.98   921.70   922.00
eigval :      927.02   927.88   974.67   974.71   984.68   986.08
eigval :     1027.09  1028.17  1037.03  1062.01  1062.09  1063.52
eigval :     1098.07  1098.59  1118.58  1121.25  1135.00  1139.29
eigval :     1141.12  1150.58  1150.97  1156.38  1166.71  1173.39
eigval :     1173.59  1182.32  1189.48  1191.38  1198.99  1201.62
eigval :     1206.06  1215.34  1216.03  1233.72  1237.87  1257.22
eigval :     1266.16  1267.75  1271.84  1279.90  1282.61  1293.30
eigval :     1296.08  1298.80  1310.88  1323.69  1333.08  1335.76
eigval :     1343.82  1358.87  1362.66  1362.88  1385.28  1387.30
eigval :     1398.97  1404.86  1411.03  1412.50  1419.38  1423.57
eigval :     1425.13  1468.31  1472.74  1473.44  1484.10  1484.60
eigval :     1485.92  1490.12  1497.88  1499.92  1517.93  1518.31
eigval :     1526.72  1556.54  1558.03  1566.49  1585.19  1585.67
eigval :     1585.76  1594.63  1617.67  1617.91  1633.29  1636.49
eigval :     2929.96  2930.52  2944.05  2944.40  3021.71  3024.37
eigval :     3045.23  3055.06  3073.73  3076.93  3077.14  3078.62
eigval :     3082.60  3083.06  3083.09  3089.48  3091.55  3093.13
eigval :     3093.34  3097.53  3098.22  3098.67  3099.50  3106.20
eigval :     3109.88  3109.97  3123.60  3128.17  3156.68  3156.79

   temp. (K)  partition function   enthalpy   heat capacity  entropy
                                   cal/mol     cal/K/mol   cal/K/mol   J/K/mol
 298.15  VIB  0.895E+19            21983.293    133.831    141.081
         ROT  0.108E+09              888.752      2.981     39.743
         INT  0.968E+27            22872.046    136.811    180.824
         TR   0.133E+29             1481.254      4.968     44.910
         TOT                       24353.2995   141.7796   225.7340   944.4711

       T/K    H(0)-H(T)+PV         H(T)/Eh          T*S/Eh         G(T)/Eh
   ------------------------------------------------------------------------
    298.15    0.388095E-01    0.610672E+00    0.107254E+00    0.503419E+00
   ------------------------------------------------------------------------

         :::::::::::::::::::::::::::::::::::::::::::::::::::::
         ::                  THERMODYNAMIC                  ::
         :::::::::::::::::::::::::::::::::::::::::::::::::::::
         :: total free energy        -116.004529169250 Eh   ::
         ::.................................................::
         :: total energy             -116.507947751889 Eh   ::
         :: zero point energy           0.571862643696 Eh   ::
         :: G(RRHO) w/o ZPVE           -0.068444061057 Eh   ::
         :: G(RRHO) contrib.            0.503418582638 Eh   ::
         :::::::::::::::::::::::::::::::::::::::::::::::::::::

           -------------------------------------------------
          | TOTAL ENERGY             -116.507947751889 Eh   |
          | TOTAL ENTHALPY           -115.897275655182 Eh   |
          | TOTAL FREE ENERGY        -116.004529169250 Eh   |
          | GRADIENT NORM               0.000079473602 Eh/α |
          | HOMO-LUMO GAP               1.963683920243 eV   |
           -------------------------------------------------

 * finished run on 2025/09/12 at 04:02:52.250
