   * xtb version 6.7.1 (edcfbbe) compiled by 'albert@albert-system' on 2024-07-22

   ID    Z sym.   atoms
    1    6 C      1, 3-11, 13, 15-23, 25-33, 35, 37-44
    2    8 O      2, 24
    3    7 N      12, 14, 34, 36
    4    1 H      45-74

          program call               : xtb data2507/gas/1MOBI/1MOBI_gas_T1_crest.xyz --gfn 2 --spinpol --tblite --uhf 2 --ohess vtight --parallel 40 --molden --ceasefiles --namespace data2507/gas/1MOBI/1MOBI_gas_T1_finalOpt
 * total energy  :  -116.4503160 Eh     change        0.8870074E-08 Eh
 * total energy  :  -116.4503379 Eh     change       -0.2186688E-04 Eh
 * total energy  :  -116.4503452 Eh     change       -0.7307924E-05 Eh
 * total energy  :  -116.4503466 Eh     change       -0.1390864E-05 Eh
 * total energy  :  -116.4503485 Eh     change       -0.1865902E-05 Eh
 * total energy  :  -116.4503506 Eh     change       -0.2150435E-05 Eh
 * total energy  :  -116.4503529 Eh     change       -0.2286371E-05 Eh
 * total energy  :  -116.4503546 Eh     change       -0.1688645E-05 Eh
 * total energy  :  -116.4503559 Eh     change       -0.1319191E-05 Eh
 * total energy  :  -116.4503572 Eh     change       -0.1238722E-05 Eh
 * total energy  :  -116.4503584 Eh     change       -0.1244714E-05 Eh
 * total energy  :  -116.4503594 Eh     change       -0.9701931E-06 Eh
 * total energy  :  -116.4503601 Eh     change       -0.7076100E-06 Eh
 * total energy  :  -116.4503605 Eh     change       -0.4045074E-06 Eh
 * total energy  :  -116.4503608 Eh     change       -0.2743721E-06 Eh
 * total energy  :  -116.4503611 Eh     change       -0.3013475E-06 Eh
 * total energy  :  -116.4503612 Eh     change       -0.1843777E-06 Eh
 * total energy  :  -116.4503614 Eh     change       -0.1672537E-06 Eh
 * total energy  :  -116.4503614 Eh     change       -0.4649195E-08 Eh
   *** GEOMETRY OPTIMIZATION CONVERGED AFTER 19 ITERATIONS ***

 final structure:
================
74
 xtb: 6.7.1 (edcfbbe)
C            0.49149824568320       -3.13406765277743        1.21063315501977
O            1.24695384462290       -1.99908429776326        0.86783935811933
C            0.59657147540333       -0.85413242834832        0.52881090693420
C           -0.75779330172449       -0.71964941328381        0.49299377392162
C           -1.39653028044416        0.49985601413958        0.13323509943592
C           -2.77984597735876        0.67210267304585        0.08503676226406
C           -3.74731821773842       -0.28449326948896        0.35995653009042
C           -5.14903871631597       -0.08966910506009        0.30842877407369
C           -5.76259057016413        1.13625624794352       -0.03287042134860
C           -7.12772668013013        1.26528706261702       -0.06973388419992
C           -7.95458033525272        0.17789491117667        0.22891848146896
N           -9.34192909319097        0.32420270025752        0.19543378560841
C          -10.05239254965090        1.40358360625874        0.65341357659442
N          -11.33508757773158        1.27936369995116        0.54796020643142
C          -11.53683593720581        0.05035934585959       -0.03105835434643
C          -12.71722549116972       -0.58481980210562       -0.39639353409657
C          -12.61957635234037       -1.82480349850628       -0.99223040276465
C          -11.38202602973763       -2.42156207657297       -1.23792919333041
C          -10.19687337495687       -1.80883664501520       -0.88182294638557
C          -10.28647826940793       -0.57410569189246       -0.25801276679378
C           -7.37220063972626       -1.04275655449139        0.58251616983157
C           -6.00707160304085       -1.16952563358694        0.61824468379783
C           -0.53033083005637        1.61461704372372       -0.19702622514918
O           -1.18052187084721        2.76126193903421       -0.53021317356216
C           -0.42487501730377        3.89862545918893       -0.86473654964954
C            0.82400295038717        1.47941551153140       -0.16358001502540
C            1.46277235070004        0.25919121016762        0.19366240475914
C            2.84612754161196        0.08637857925215        0.23832204966432
C            3.81282318619524        1.03753466012879       -0.05789634228983
C            5.21466219874053        0.84595616563640       -0.00062061622269
C            5.82992567532757       -0.36043080583658        0.40130152705498
C            7.19535079109322       -0.48984271297250        0.43607940292479
C            8.02043486821822        0.57659265851423        0.06693935793678
N            9.40961946522246        0.45225527485076        0.10852007078663
C           10.29241038957864        1.39899124346874        0.56028929529835
N           11.53007753085903        1.02548765154330        0.53838968215457
C           11.51790781311128       -0.24976669385844        0.02845977029751
C           12.56921772834700       -1.11901801309198       -0.23493481781941
C           12.26272405329660       -2.34859916428217       -0.77925871767749
C           10.94697324602092       -2.70939469503718       -1.07358895952513
C            9.88708865506847       -1.86172277479139       -0.81872323603364
C           10.18317728674504       -0.63436853501059       -0.24621723473939
C            7.43610008864372        1.78602461558445       -0.32206837567858
C            6.07129391656609        1.91359276881206       -0.35438712206309
H            1.21720499466593       -3.91258475403926        1.44162855622109
H           -0.13326398038283       -2.94906333481763        2.09022184227296
H           -0.13895627244313       -3.46235819329260        0.37816456679924
H           -1.39097136585116       -1.55332095369407        0.74353551844834
H           -3.10838415384909        1.65963199182983       -0.20004979242075
H           -3.43087607370198       -1.27967746501771        0.64019429641131
H           -5.15082826969142        1.98985641089914       -0.27683325878775
H           -7.57586095746634        2.20794620908667       -0.34845023516386
H           -9.56553796850173        2.25555896157949        1.08791256039937
H          -13.66867702981033       -0.10938707706927       -0.22118946393744
H          -13.51793397158485       -2.34627330403619       -1.28772352658475
H          -11.35072902747541       -3.38586726339270       -1.72319670066585
H           -9.24450364760565       -2.26953654063764       -1.09637668999359
H           -8.00477290334431       -1.87514776063067        0.85151374169130
H           -5.56978976490320       -2.11690832685547        0.89957462800872
H            0.20651130487240        4.21997899483019       -0.03028756946778
H           -1.15046029380440        4.67924542408137       -1.08884331617532
H            0.19893269308075        3.72037810752916       -1.74639050866117
H            1.45710165146461        2.31401940365740       -0.41112976405728
H            3.17537949297026       -0.89775541337994        0.53416035191292
H            3.49536765741875        2.02394664648125       -0.36645607892951
H            5.21911014639741       -1.19714357099251        0.70027053723260
H            7.64375057049184       -1.41143076363218        0.77552397601027
H            9.95942300383085        2.35133805103517        0.92611770252239
H           13.58473051629499       -0.82583629289441       -0.02338391646960
H           13.05630624570316       -3.04845285146692       -0.99538028769366
H           10.75344637976956       -3.67532712138971       -1.51614719473562
H            8.87566172337665       -2.14247981726538       -1.07053503737147
H            8.06854471597130        2.61193096953347       -0.61310449863663
H            5.63294660745787        2.85105436274615       -0.66541297944600

 projected vibrational frequencies (cm⁻¹)
eigval :       -0.00    -0.00    -0.00     0.00     0.00     0.00
eigval :        5.70    10.70    13.57    16.58    19.74    28.18
eigval :       36.06    56.69    59.16    60.54    69.90    72.03
eigval :       75.65    90.45   101.89   105.46   132.99   138.76
eigval :      158.80   163.92   176.68   187.81   193.56   209.88
eigval :      215.61   216.22   217.47   228.68   237.52   244.02
eigval :      255.92   263.01   287.94   306.20   321.65   348.31
eigval :      362.65   369.83   374.45   379.16   380.61   394.79
eigval :      398.72   398.77   420.15   438.60   446.32   464.21
eigval :      465.28   478.72   488.45   499.34   500.77   536.33
eigval :      547.85   548.43   550.74   557.74   592.32   595.66
eigval :      597.35   598.46   615.90   617.49   621.43   632.19
eigval :      657.34   671.44   671.82   676.05   686.57   689.95
eigval :      713.07   713.26   762.31   763.90   769.04   775.64
eigval :      775.68   800.20   801.40   802.46   805.29   808.97
eigval :      809.75   830.60   831.02   842.64   843.67   854.45
eigval :      859.00   871.10   871.41   873.31   876.37   886.86
eigval :      888.31   900.68   901.01   907.89   910.27   918.94
eigval :      919.59   925.28   925.38   925.71   956.71   965.16
eigval :     1018.11  1018.24  1034.06  1048.43  1062.13  1062.19
eigval :     1095.41  1096.86  1117.49  1117.57  1122.52  1135.46
eigval :     1136.39  1143.20  1148.58  1149.87  1154.44  1161.41
eigval :     1173.18  1173.58  1178.58  1186.53  1196.66  1200.89
eigval :     1201.33  1209.24  1213.39  1215.19  1233.42  1241.32
eigval :     1246.88  1250.61  1266.45  1267.62  1279.76  1280.47
eigval :     1293.96  1294.72  1309.89  1315.47  1336.37  1337.15
eigval :     1347.14  1361.63  1362.48  1369.85  1375.12  1387.36
eigval :     1394.58  1399.96  1400.53  1411.43  1414.85  1424.88
eigval :     1430.77  1431.35  1449.79  1468.21  1468.24  1478.85
eigval :     1480.33  1482.32  1484.31  1488.69  1492.45  1510.19
eigval :     1510.81  1514.67  1515.64  1517.13  1531.74  1563.06
eigval :     1572.39  1584.60  1584.65  1588.29  1614.11  1614.41
eigval :     2933.82  2934.00  2947.21  2947.39  3025.21  3025.41
eigval :     3064.27  3064.57  3073.66  3074.15  3078.01  3078.13
eigval :     3081.67  3084.06  3084.18  3087.66  3090.22  3093.77
eigval :     3094.30  3095.56  3102.29  3102.55  3109.31  3109.59
eigval :     3110.08  3110.23  3127.06  3127.32  3158.66  3158.70

   temp. (K)  partition function   enthalpy   heat capacity  entropy
                                   cal/mol     cal/K/mol   cal/K/mol   J/K/mol
 298.15  VIB  0.184E+19            22037.432    135.337    139.524
         ROT  0.113E+09              888.752      2.981     39.829
         INT  0.208E+27            22926.184    138.318    179.353
         TR   0.133E+29             1481.254      4.968     44.910
         TOT                       24407.4383   143.2858   224.2631   938.3167

       T/K    H(0)-H(T)+PV         H(T)/Eh          T*S/Eh         G(T)/Eh
   ------------------------------------------------------------------------
    298.15    0.388957E-01    0.607901E+00    0.106555E+00    0.501346E+00
   ------------------------------------------------------------------------

         :::::::::::::::::::::::::::::::::::::::::::::::::::::
         ::                  THERMODYNAMIC                  ::
         :::::::::::::::::::::::::::::::::::::::::::::::::::::
         :: total free energy        -115.949015321767 Eh   ::
         ::.................................................::
         :: total energy             -116.450361434303 Eh   ::
         :: zero point energy           0.569005008569 Eh   ::
         :: G(RRHO) w/o ZPVE           -0.067658896033 Eh   ::
         :: G(RRHO) contrib.            0.501346112536 Eh   ::
         :::::::::::::::::::::::::::::::::::::::::::::::::::::

           -------------------------------------------------
          | TOTAL ENERGY             -116.450361434303 Eh   |
          | TOTAL ENTHALPY           -115.842460697002 Eh   |
          | TOTAL FREE ENERGY        -115.949015321767 Eh   |
          | GRADIENT NORM               0.000129677662 Eh/α |
           -------------------------------------------------

 * finished run on 2025/09/12 at 04:13:52.767
