   * xtb version 6.7.1 (edcfbbe) compiled by 'albert@albert-system' on 2024-07-22

   ID    Z sym.   atoms
    1    6 C      1, 3-11, 13, 15-23, 25-33, 35, 37-44
    2    8 O      2, 24
    3    7 N      12, 14, 34, 36
    4    1 H      45-74

          program call               : xtb data2507/gas/1MOBI/1MOBI_gas_S0_finalOpt.xtbopt.xyz --gfn 2 --spinpol --tblite --uhf 2 --ohess vtight --parallel 40 --molden --ceasefiles --namespace data2507/gas/1MOBI/1MOBI_gas_T1_preOpt
 * total energy  :  -116.4405847 Eh     change        0.4311818E-07 Eh
 * total energy  :  -116.4478027 Eh     change       -0.7218060E-02 Eh
 * total energy  :  -116.4499946 Eh     change       -0.2191811E-02 Eh
 * total energy  :  -116.4500781 Eh     change       -0.8349733E-04 Eh
 * total energy  :  -116.4501147 Eh     change       -0.3663278E-04 Eh
 * total energy  :  -116.4501326 Eh     change       -0.1789165E-04 Eh
 * total energy  :  -116.4501457 Eh     change       -0.1316486E-04 Eh
 * total energy  :  -116.4501529 Eh     change       -0.7170957E-05 Eh
 * total energy  :  -116.4501598 Eh     change       -0.6856294E-05 Eh
 * total energy  :  -116.4501692 Eh     change       -0.9469015E-05 Eh
 * total energy  :  -116.4502966 Eh     change       -0.5660553E-06 Eh
 * total energy  :  -116.4502975 Eh     change       -0.8526588E-06 Eh
 * total energy  :  -116.4502981 Eh     change       -0.6269490E-06 Eh
 * total energy  :  -116.4502985 Eh     change       -0.4266727E-06 Eh
 * total energy  :  -116.4502988 Eh     change       -0.2346490E-06 Eh
 * total energy  :  -116.4502992 Eh     change       -0.4548104E-06 Eh
 * total energy  :  -116.4502994 Eh     change       -0.1967952E-06 Eh
 * total energy  :  -116.4502997 Eh     change       -0.2391892E-06 Eh
 * total energy  :  -116.4502997 Eh     change       -0.7533323E-07 Eh
   *** GEOMETRY OPTIMIZATION CONVERGED AFTER 68 ITERATIONS ***

 final structure:
================
74
 xtb: 6.7.1 (edcfbbe)
C            0.47995559761044       -3.06180386189570        1.50669529786353
O            1.23955687624548       -1.92977972028500        1.16320756962819
C            0.59295811649017       -0.78467818978775        0.81733417829409
C           -0.76087066035287       -0.65002212875703        0.76717426137552
C           -1.39564037950957        0.56974469362980        0.40115322577748
C           -2.77772201628948        0.73298674850990        0.30790374457159
C           -3.74593139890988       -0.23648943580599        0.53022920348889
C           -5.14555920699485       -0.05958036869573        0.40774570160468
C           -5.75743931076986        1.16090380870830        0.04462550791963
C           -7.11988974181208        1.26907721954185       -0.07259590205620
C           -7.94508346430482        0.16518167635479        0.16331901604716
N           -9.32992414602866        0.28817604475683        0.04315778835152
C          -10.08815768054093        1.34864967699674        0.46715635336386
N          -11.35886602478928        1.20335073893319        0.27704820791949
C          -11.50010216720913       -0.02118366819596       -0.32876708369162
C          -12.64235796253864       -0.67226162158033       -0.77782985912449
C          -12.48327627121086       -1.90208272679543       -1.38146277206057
C          -11.22154163819443       -2.47340659132953       -1.55376390604172
C          -10.07355065246936       -1.84469006106955       -1.11374918334352
C          -10.22638468007427       -0.62035909253161       -0.48179748332504
C           -7.36542384504725       -1.04955851486047        0.54088433796498
C           -6.00307047415943       -1.15532618212439        0.65756559030891
C           -0.52615152739612        1.69166922379264        0.10543064572503
O           -1.17294490297660        2.84452464647206       -0.21272739143961
C           -0.41385497605770        3.98877961170447       -0.51445911139292
C            0.82777359900992        1.55520058966431        0.14937507083866
C            1.46270417458628        0.32765525052162        0.48811535200739
C            2.84514754864396        0.14363015855712        0.50879455424105
C            3.81446612033437        1.09156927302982        0.21101495835990
C            5.21419123838376        0.87739063298160        0.20320176765278
C            5.82500922538622       -0.35679455389237        0.51813306585152
C            7.18744606638118       -0.51221757059616        0.47324708826706
C            8.01320986784424        0.55541437792012        0.10936151745492
N            9.39924778019582        0.40104489681119        0.06053760973998
C           10.33075252367385        1.30204153593769        0.50730613029790
N           11.55552970577483        0.90664311321015        0.38233798277976
C           11.48099673916830       -0.33528753852902       -0.19950639371539
C           12.49238982806489       -1.20706106235211       -0.58350649146822
C           12.12248133123238       -2.39519898692720       -1.17818497671108
C           10.78228039616714       -2.71261702780981       -1.40444622252774
C            9.76126339929822       -1.86188963988099       -1.02952399084631
C           10.12278718567518       -0.67708122935233       -0.40725142867390
C            7.43468014606675        1.79351534247069       -0.18664114588999
C            6.07285511421329        1.94655312393859       -0.14094849920696
H            1.20275095059440       -3.83909616836972        1.75052484640499
H           -0.15333341050132       -2.86993167993033        2.37866206616845
H           -0.14251337344300       -3.39575860746521        0.67046033396752
H           -1.39679026241882       -1.48452883698671        1.00776103638551
H           -3.10403266706537        1.72101523702052        0.02196665540532
H           -3.43113594609376       -1.23079971866961        0.81533648675598
H           -5.14604279533082        2.02663351972577       -0.15315580782306
H           -7.56591053822716        2.20770841731192       -0.36783625674624
H           -9.64610673931300        2.20321453032944        0.94255757463873
H          -13.61183647312016       -0.21621303381570       -0.65908305379136
H          -13.35075805146227       -2.43526998691839       -1.74127837555895
H          -11.14102236320893       -3.43024602510420       -2.04805771445277
H           -9.10080611683947       -2.28538910764860       -1.27145623168688
H           -7.99956507567306       -1.89449122131317        0.76308151111139
H           -5.56807004802473       -2.09862131940810        0.95563741837349
H            0.20970805145616        4.29098848984738        0.33291052894697
H           -1.13704106988944        4.77460518901837       -0.72785476187125
H            0.21823036837958        3.83000627478888       -1.39395764953655
H            1.46355809683289        2.39286245414088       -0.08030483333263
H            3.17105480422061       -0.84897237205488        0.77895615830436
H            3.50065429660003        2.09234305880173       -0.05159508130774
H            5.21370309764094       -1.19601648592239        0.80897887950377
H            7.63454655968961       -1.45721690205383        0.74307756065287
H           10.04389779751320        2.23725632023002        0.94867843387195
H           13.52612900769001       -0.94684342064182       -0.42338850540570
H           12.88384050418768       -3.09555118045380       -1.48822884163195
H           10.53799899502161       -3.64613964397727       -1.88943094988428
H            8.72908767366789       -2.10736452105215       -1.22861694197169
H            8.06808027095948        2.62129238012080       -0.47025669906650
H            5.63799710443294        2.90569944431980       -0.38311125051667

 projected vibrational frequencies (cm⁻¹)
eigval :       -0.00    -0.00     0.00     0.00     0.00     0.00
eigval :        5.41    10.43    14.15    16.41    19.41    27.99
eigval :       36.11    57.08    58.97    60.74    69.80    72.22
eigval :       75.47    90.41   101.62   105.57   131.74   139.35
eigval :      159.05   163.88   176.34   188.34   193.51   209.41
eigval :      215.60   216.16   217.50   228.44   237.28   243.87
eigval :      255.80   263.04   287.88   306.42   321.79   348.51
eigval :      362.86   369.84   374.39   379.27   380.49   394.65
eigval :      398.53   398.68   420.07   438.80   446.06   463.65
eigval :      465.23   478.44   488.45   499.41   501.02   536.52
eigval :      547.69   548.35   550.79   557.67   592.24   595.57
eigval :      597.34   598.40   616.05   617.50   621.48   632.13
eigval :      657.39   671.53   671.92   676.33   686.51   689.74
eigval :      713.08   713.25   762.32   763.89   768.98   775.51
eigval :      775.54   800.09   801.38   802.50   805.15   808.98
eigval :      809.84   830.62   831.04   842.67   843.69   854.44
eigval :      859.05   870.91   871.30   873.26   876.37   887.00
eigval :      888.36   900.58   900.91   907.87   910.28   918.86
eigval :      919.47   924.90   925.52   925.87   956.86   965.18
eigval :     1018.16  1018.30  1034.06  1048.46  1062.13  1062.15
eigval :     1095.41  1096.79  1117.43  1117.49  1122.45  1135.38
eigval :     1136.16  1143.00  1148.62  1149.89  1154.52  1161.63
eigval :     1172.95  1173.58  1178.85  1186.34  1196.69  1200.92
eigval :     1201.24  1208.18  1213.59  1215.22  1233.37  1241.46
eigval :     1246.86  1250.53  1266.41  1267.69  1279.68  1280.35
eigval :     1293.89  1294.66  1309.67  1315.46  1335.91  1337.17
eigval :     1347.18  1361.61  1362.51  1369.90  1375.07  1387.41
eigval :     1394.10  1399.55  1399.96  1411.42  1414.77  1424.75
eigval :     1430.69  1431.28  1449.85  1467.70  1467.80  1478.96
eigval :     1480.46  1482.52  1484.40  1488.69  1492.24  1510.08
eigval :     1510.69  1514.58  1515.59  1517.06  1531.97  1563.09
eigval :     1572.39  1584.64  1584.70  1588.28  1614.11  1614.40
eigval :     2933.82  2933.99  2947.32  2947.50  3025.35  3025.49
eigval :     3064.28  3064.62  3073.67  3074.22  3077.95  3077.99
eigval :     3081.59  3083.91  3083.93  3087.55  3089.68  3093.70
eigval :     3094.19  3095.47  3102.10  3102.33  3109.34  3109.57
eigval :     3110.23  3110.35  3127.13  3127.28  3158.45  3158.57

   temp. (K)  partition function   enthalpy   heat capacity  entropy
                                   cal/mol     cal/K/mol   cal/K/mol   J/K/mol
 298.15  VIB  0.197E+19            22040.085    135.346    139.606
         ROT  0.116E+09              888.752      2.981     39.883
         INT  0.229E+27            22928.838    138.326    179.489
         TR   0.133E+29             1481.254      4.968     44.910
         TOT                       24410.0917   143.2946   224.3993   938.8865

       T/K    H(0)-H(T)+PV         H(T)/Eh          T*S/Eh         G(T)/Eh
   ------------------------------------------------------------------------
    298.15    0.389000E-01    0.607884E+00    0.106619E+00    0.501264E+00
   ------------------------------------------------------------------------

         :::::::::::::::::::::::::::::::::::::::::::::::::::::
         ::                  THERMODYNAMIC                  ::
         :::::::::::::::::::::::::::::::::::::::::::::::::::::
         :: total free energy        -115.949035550945 Eh   ::
         ::.................................................::
         :: total energy             -116.450299735536 Eh   ::
         :: zero point energy           0.568983560444 Eh   ::
         :: G(RRHO) w/o ZPVE           -0.067719375854 Eh   ::
         :: G(RRHO) contrib.            0.501264184591 Eh   ::
         :::::::::::::::::::::::::::::::::::::::::::::::::::::

           -------------------------------------------------
          | TOTAL ENERGY             -116.450299735536 Eh   |
          | TOTAL ENTHALPY           -115.842416217837 Eh   |
          | TOTAL FREE ENERGY        -115.949035550945 Eh   |
          | GRADIENT NORM               0.000065619359 Eh/α |
           -------------------------------------------------

 * finished run on 2025/09/12 at 04:09:04.330
