   * xtb version 6.7.1 (edcfbbe) compiled by 'albert@albert-system' on 2024-07-22

   ID    Z sym.   atoms
    1    6 C      1, 3-11, 13, 15-23, 25-33, 35, 37-44
    2    8 O      2, 24
    3    7 N      12, 14, 34, 36
    4    1 H      45-74

          program call               : xtb data2507/gas/1MOBI/1MOBI_gas_S0_crest.xyz --gfn 2 --ohess vtight --parallel 40 --molden --ceasefiles --namespace data2507/gas/1MOBI/1MOBI_gas_S0_finalOpt
          :  Hamiltonian                  GFN2-xTB          :
 * total energy  :  -116.5095025 Eh     change       -0.1054829E-08 Eh
 * total energy  :  -116.5095040 Eh     change       -0.1512774E-05 Eh
 * total energy  :  -116.5095058 Eh     change       -0.1749835E-05 Eh
 * total energy  :  -116.5095092 Eh     change       -0.3428966E-05 Eh
 * total energy  :  -116.5095109 Eh     change       -0.1747442E-05 Eh
 * total energy  :  -116.5095130 Eh     change       -0.2062894E-05 Eh
 * total energy  :  -116.5095156 Eh     change       -0.2580279E-05 Eh
 * total energy  :  -116.5095174 Eh     change       -0.1781496E-05 Eh
 * total energy  :  -116.5095187 Eh     change       -0.1300673E-05 Eh
 * total energy  :  -116.5095201 Eh     change       -0.1434446E-05 Eh
 * total energy  :  -116.5095657 Eh     change       -0.4263710E-06 Eh
 * total energy  :  -116.5095661 Eh     change       -0.3997402E-06 Eh
 * total energy  :  -116.5095663 Eh     change       -0.2878466E-06 Eh
 * total energy  :  -116.5095666 Eh     change       -0.2470444E-06 Eh
 * total energy  :  -116.5095668 Eh     change       -0.2525721E-06 Eh
 * total energy  :  -116.5095672 Eh     change       -0.3769784E-06 Eh
 * total energy  :  -116.5095678 Eh     change       -0.5673295E-06 Eh
 * total energy  :  -116.5095686 Eh     change       -0.7890728E-06 Eh
 * total energy  :  -116.5095686 Eh     change       -0.9482505E-08 Eh
   *** GEOMETRY OPTIMIZATION CONVERGED AFTER 68 ITERATIONS ***

 final structure:
================
74
 xtb: 6.7.1 (edcfbbe)
C            0.49277822638735       -2.91577136156984        1.78870331971847
O            1.26027008393151       -1.82283027020944        1.35120027460982
C            0.61704363734176       -0.69394715250588        0.92812591397428
C           -0.75790655607895       -0.56035150804870        0.89067292760402
C           -1.37981308617593        0.61093351650195        0.45354688357157
C           -2.81474647131804        0.76114977253686        0.38344281910382
C           -3.73271761690686       -0.20064017111621        0.57790549438098
C           -5.16800022783970       -0.04439905445208        0.47477613219275
C           -5.79634571899058        1.17937351567771        0.22005775560252
C           -7.16675448136524        1.26728319914169        0.10911095274993
C           -7.95944884180182        0.13063166771088        0.25327262428400
N           -9.35065562216439        0.22723533740988        0.14096739212557
C          -10.14107594561019        1.21307276132215        0.66985860732000
N          -11.40570844537091        1.05379496156468        0.45333822356420
C          -11.50737300321470       -0.10214850021348       -0.28174331838074
C          -12.62711779408544       -0.73546886613035       -0.80748246329100
C          -12.42741258421753       -1.88878364497551       -1.53618302218224
C          -11.14804454939405       -2.40228357950958       -1.75611026060004
C          -10.02220577692284       -1.79058382077291       -1.24214198950616
C          -10.21609271825512       -0.64439281810862       -0.48704744043066
C           -7.35396407482695       -1.09248053007738        0.52750224152429
C           -5.98218258087383       -1.17187004564638        0.63217059210757
C           -0.55977397361532        1.69267698499825        0.06024944768811
O           -1.20375331450138        2.82864213875452       -0.34175182211302
C           -0.43715578552814        3.93692194389562       -0.74054325968112
C            0.81511806958244        1.55578259522338        0.08858703679380
C            1.43708626481452        0.37722854045199        0.50622390000838
C            2.87084901499656        0.20354388969430        0.51883611170130
C            3.79316888408215        1.08121119646734        0.08886871665454
C            5.22617059657672        0.87703685895050        0.08149039658008
C            5.84546103594060       -0.27653281242039        0.57437205057397
C            7.21411571700483       -0.42800186466117        0.52662839490705
C            8.01334222839006        0.57062038129630       -0.02519559008227
N            9.40324072767943        0.42087801843344       -0.08124588385365
C           10.33517792057917        1.38118208897392        0.21145915902241
N           11.56042606029178        0.98075416855791        0.11196576667540
C           11.48420476271664       -0.33134377077018       -0.28737037535000
C           12.49415135065273       -1.24362039744974       -0.56863914188371
C           12.12077192870655       -2.50584533086635       -0.97898372211871
C           10.77827717382019       -2.86025699687526       -1.12371195360111
C            9.75895765280610       -1.97083973088908       -0.84841950875614
C           10.12522814783817       -0.70736595120466       -0.41138735970344
C            7.41680990952251        1.73278210363961       -0.50682777423678
C            6.04779122952952        1.87822025456346       -0.44949163981264
H            1.21175413764218       -3.67999510201016        2.08091136380456
H           -0.12582317583560       -2.65449356322582        2.65349973029878
H           -0.14355279395709       -3.30805526817014        0.98865800138465
H           -1.38438070816561       -1.37535558141381        1.21088100329008
H           -3.13393465562050        1.75819777964519        0.12034314295127
H           -3.41445234000165       -1.20729013350175        0.81549248508678
H           -5.20530544128763        2.07349167839161        0.10135837990403
H           -7.63419740489450        2.21732418741039       -0.10448359005522
H           -9.72561196475923        2.02371386300887        1.23754100296029
H          -13.61071494976654       -0.32387879259620       -0.64905330307507
H          -13.27622689773056       -2.40613507932290       -1.95830638848538
H          -11.03642053760682       -3.29923028705565       -2.34726102611653
H           -9.03518773925276       -2.18339079949701       -1.43481866190391
H           -7.96434562625982       -1.97038891260350        0.67558584772457
H           -5.52491566186250       -2.12786361397128        0.84472008531307
H            0.20293913031758        4.29844026317498        0.07089215755086
H           -1.15678719818699        4.71190619101500       -1.00107033604970
H            0.17743294419199        3.70786435723018       -1.61726336551536
H            1.44114736765460        2.37627143185153       -0.21807315621982
H            3.18639274638187       -0.75297273761021        0.90700029240452
H            3.48178221050926        2.03713647994653       -0.31137613271312
H            5.24968909990306       -1.06359548712244        1.00862827161672
H            7.67653690043658       -1.31434474066275        0.93404075266531
H           10.04880975363234        2.36744979239934        0.52338141219615
H           13.52907279218378       -0.95803184033174       -0.47197340764888
H           12.88067574180912       -3.23909700249545       -1.20530888145448
H           10.53132641000119       -3.85507964087886       -1.46394527510529
H            8.72402642022067       -2.24722627481077       -0.98295437781929
H            8.03077146914514        2.51013212307082       -0.93729128237588
H            5.59755381382806        2.78280645215227       -0.83295215446504

          :  Hamiltonian                  GFN2-xTB          :
         :: gradient norm              0.000080087996 Eh/a0 ::
         :: HOMO-LUMO gap              1.921687635392 eV    ::
         :: SCC energy              -118.489914962758 Eh    ::
         :: -> dispersion             -0.088092511634 Eh    ::
         :: repulsion energy           1.980346377122 Eh    ::

    * Orbital Energies and Occupations

         #    Occupation            Energy/Eh            Energy/eV
      -------------------------------------------------------------
         1        2.0000           -0.7236700             -19.6921
       ...           ...                  ...                  ...
        95        2.0000           -0.4254126             -11.5761
        96        2.0000           -0.4217835             -11.4773
        97        2.0000           -0.4196972             -11.4205
        98        2.0000           -0.4196237             -11.4185
        99        2.0000           -0.3979696             -10.8293
       100        2.0000           -0.3917795             -10.6609
       101        2.0000           -0.3884253             -10.5696
       102        2.0000           -0.3882482             -10.5648
       103        2.0000           -0.3813805             -10.3779
       104        2.0000           -0.3794052             -10.3241
       105        2.0000           -0.3784452             -10.2980
       106        2.0000           -0.3769690             -10.2578
       107        2.0000           -0.3596488              -9.7865 (HOMO)
       108                         -0.2890281              -7.8649 (LUMO)
       109                         -0.2615266              -7.1165
       110                         -0.2416857              -6.5766
       111                         -0.2378870              -6.4732
       112                         -0.2361846              -6.4269
       113                         -0.2361462              -6.4259
       114                         -0.2234011              -6.0791
       115                         -0.2143966              -5.8340
       116                         -0.2078464              -5.6558
       117                         -0.1997666              -5.4359
       118                         -0.1884544              -5.1281
       ...                                ...                  ...
       206                          0.7059425              19.2097
      -------------------------------------------------------------
                  HL-Gap            0.0706207 Eh            1.9217 eV

     #   Z          covCN         q      C6AA      α(0)
     1   6 C        3.643     0.038    20.275     6.473
     2   8 O        1.705    -0.268    18.448     5.799
     3   6 C        2.866     0.129    25.173     8.224
     4   6 C        2.919    -0.076    29.891     8.965
     5   6 C        2.969    -0.007    28.202     8.711
     6   6 C        2.901    -0.033    28.833     8.804
     7   6 C        2.901    -0.042    29.043     8.836
     8   6 C        2.969     0.014    27.706     8.634
     9   6 C        2.923    -0.033    28.820     8.804
    10   6 C        2.920    -0.044    29.092     8.845
    11   6 C        2.913     0.058    26.690     8.471
    12   7 N        2.825    -0.035    21.918     6.953
    13   6 C        3.161     0.102    25.448     8.246
    14   7 N        1.880    -0.272    27.921     7.833
    15   6 C        3.218     0.065    25.872     8.272
    16   6 C        2.910    -0.040    28.991     8.829
    17   6 C        2.923    -0.039    28.962     8.825
    18   6 C        2.926    -0.037    28.915     8.818
    19   6 C        2.908    -0.049    29.225     8.864
    20   6 C        3.099     0.033    27.140     8.537
    21   6 C        2.918    -0.043    29.066     8.841
    22   6 C        2.929    -0.034    28.858     8.810
    23   6 C        2.866     0.129    25.172     8.224
    24   8 O        1.705    -0.268    18.446     5.799
    25   6 C        3.643     0.038    20.276     6.473
    26   6 C        2.919    -0.076    29.889     8.965
    27   6 C        2.969    -0.007    28.203     8.711
    28   6 C        2.902    -0.034    28.838     8.805
    29   6 C        2.901    -0.042    29.041     8.836
    30   6 C        2.969     0.014    27.706     8.634
    31   6 C        2.924    -0.034    28.835     8.806
    32   6 C        2.919    -0.042    29.049     8.838
    33   6 C        2.913     0.058    26.690     8.472
    34   7 N        2.825    -0.035    21.918     6.953
    35   6 C        3.161     0.102    25.447     8.246
    36   7 N        1.880    -0.272    27.923     7.833
    37   6 C        3.218     0.065    25.871     8.272
    38   6 C        2.910    -0.040    28.992     8.829
    39   6 C        2.923    -0.039    28.962     8.825
    40   6 C        2.926    -0.037    28.914     8.818
    41   6 C        2.908    -0.049    29.225     8.864
    42   6 C        3.099     0.033    27.140     8.537
    43   6 C        2.919    -0.045    29.110     8.848
    44   6 C        2.929    -0.034    28.843     8.808
    45   1 H        0.925     0.062     2.180     2.309
    46   1 H        0.924     0.040     2.444     2.445
    47   1 H        0.924     0.040     2.451     2.448
    48   1 H        0.926     0.045     2.380     2.413
    49   1 H        0.926     0.057     2.237     2.339
    50   1 H        0.925     0.034     2.530     2.487
    51   1 H        0.926     0.044     2.398     2.422
    52   1 H        0.926     0.038     2.469     2.457
    53   1 H        0.926     0.038     2.481     2.463
    54   1 H        0.926     0.046     2.375     2.410
    55   1 H        0.926     0.033     2.548     2.496
    56   1 H        0.926     0.031     2.566     2.505
    57   1 H        0.926     0.029     2.606     2.524
    58   1 H        0.926     0.042     2.420     2.433
    59   1 H        0.926     0.036     2.500     2.472
    60   1 H        0.924     0.040     2.445     2.445
    61   1 H        0.925     0.062     2.178     2.308
    62   1 H        0.924     0.040     2.448     2.447
    63   1 H        0.926     0.045     2.380     2.412
    64   1 H        0.926     0.057     2.236     2.338
    65   1 H        0.925     0.034     2.532     2.489
    66   1 H        0.926     0.044     2.401     2.423
    67   1 H        0.926     0.043     2.410     2.428
    68   1 H        0.926     0.037     2.484     2.465
    69   1 H        0.926     0.046     2.376     2.410
    70   1 H        0.926     0.033     2.548     2.496
    71   1 H        0.926     0.032     2.564     2.504
    72   1 H        0.926     0.029     2.601     2.522
    73   1 H        0.926     0.038     2.480     2.463
    74   1 H        0.926     0.036     2.497     2.471

molecular dipole:
                 x           y           z       tot (Debye)
 q only:       -0.025      -0.238       0.033
   full:       -0.043      -0.491      -0.091       1.273

 projected vibrational frequencies (cm⁻¹)
eigval :       -0.00    -0.00    -0.00     0.00     0.00     0.00
eigval :        3.61     5.71     7.51    14.37    19.83    25.18
eigval :       36.60    55.37    56.91    59.61    61.66    69.87
eigval :       72.28    78.89    82.74    96.85   101.07   133.35
eigval :      136.80   158.01   161.24   170.84   180.72   208.84
eigval :      215.57   215.83   220.46   228.49   236.33   243.33
eigval :      262.41   285.91   292.37   313.52   329.62   353.16
eigval :      370.03   374.41   376.08   379.17   381.38   399.23
eigval :      399.42   400.44   428.05   438.21   444.77   471.64
eigval :      474.80   483.43   486.61   508.48   516.28   542.41
eigval :      548.93   549.00   554.67   563.18   595.24   597.03
eigval :      600.13   602.18   618.75   620.68   622.73   630.67
eigval :      665.39   672.61   683.68   688.86   691.39   695.77
eigval :      713.77   713.81   776.08   776.19   779.41   780.99
eigval :      783.07   804.15   804.68   820.16   820.66   823.65
eigval :      832.36   834.15   834.46   854.37   859.03   860.92
eigval :      861.28   873.00   873.59   875.78   877.83   901.35
eigval :      901.50   911.21   912.70   921.61   921.76   923.81
eigval :      926.85   927.31   974.30   974.69   985.52   985.85
eigval :     1027.46  1027.89  1040.31  1061.88  1061.94  1065.15
eigval :     1098.00  1098.50  1121.14  1121.35  1136.14  1136.98
eigval :     1141.30  1150.52  1150.84  1153.47  1160.54  1170.75
eigval :     1173.42  1173.45  1189.40  1190.61  1195.41  1200.94
eigval :     1203.76  1215.29  1216.22  1233.99  1240.08  1257.88
eigval :     1265.81  1268.13  1276.64  1281.14  1283.17  1291.84
eigval :     1295.86  1296.66  1310.69  1318.15  1330.71  1340.92
eigval :     1344.51  1353.44  1362.70  1362.95  1386.03  1387.58
eigval :     1401.08  1404.98  1412.30  1414.36  1420.89  1423.85
eigval :     1431.55  1462.85  1472.86  1472.91  1484.00  1484.64
eigval :     1485.77  1489.05  1498.27  1499.73  1517.42  1517.71
eigval :     1532.72  1553.30  1557.71  1563.35  1584.11  1585.67
eigval :     1585.72  1594.57  1617.51  1617.76  1630.99  1634.34
eigval :     2929.65  2929.82  2943.33  2943.51  3024.03  3024.12
eigval :     3055.97  3056.50  3073.58  3073.74  3076.87  3077.02
eigval :     3082.81  3082.89  3084.34  3089.35  3091.35  3092.95
eigval :     3093.26  3096.69  3100.36  3101.24  3107.24  3107.50
eigval :     3110.05  3110.06  3125.77  3126.24  3156.76  3156.94

   temp. (K)  partition function   enthalpy   heat capacity  entropy
                                   cal/mol     cal/K/mol   cal/K/mol   J/K/mol
 298.15  VIB  0.298E+20            22073.045    133.772    142.756
         ROT  0.117E+09              888.752      2.981     39.896
         INT  0.348E+28            22961.797    136.753    182.652
         TR   0.133E+29             1481.254      4.968     44.910
         TOT                       24443.0510   141.7207   227.5619   952.1188

       T/K    H(0)-H(T)+PV         H(T)/Eh          T*S/Eh         G(T)/Eh
   ------------------------------------------------------------------------
    298.15    0.389525E-01    0.610590E+00    0.108122E+00    0.502468E+00
   ------------------------------------------------------------------------

         :::::::::::::::::::::::::::::::::::::::::::::::::::::
         ::                  THERMODYNAMIC                  ::
         :::::::::::::::::::::::::::::::::::::::::::::::::::::
         :: total free energy        -116.007100601183 Eh   ::
         ::.................................................::
         :: total energy             -116.509568585634 Eh   ::
         :: zero point energy           0.571637483463 Eh   ::
         :: G(RRHO) w/o ZPVE           -0.069169499012 Eh   ::
         :: G(RRHO) contrib.            0.502467984451 Eh   ::
         :::::::::::::::::::::::::::::::::::::::::::::::::::::

           -------------------------------------------------
          | TOTAL ENERGY             -116.509568585634 Eh   |
          | TOTAL ENTHALPY           -115.898978620903 Eh   |
          | TOTAL FREE ENERGY        -116.007100601183 Eh   |
          | GRADIENT NORM               0.000080105866 Eh/α |
          | HOMO-LUMO GAP               1.921687714183 eV   |
           -------------------------------------------------

 * finished run on 2025/09/12 at 04:08:55.410
