   * xtb version 6.7.1 (edcfbbe) compiled by 'albert@albert-system' on 2024-07-22

   ID    Z sym.   atoms
    1    6 C      1-8, 10-18, 20, 22, 24, 26, 28, 30-32
    2    7 N      9, 19, 21, 25, 29
    3    8 O      23, 27
    4    1 H      33-63

          program call               : xtb data2507/toluene/1CM/1CM_toluene_T1_crest.xyz --gfn 2 --uhf 2 --gbsa toluene --ohess vtight --parallel 40 --molden --ceasefiles --namespace data2507/toluene/1CM/1CM_toluene_T1_finalOpt
      * Solvation model:               GBSA
        Solvent                        toluene
        Solvent mass                       9.2140E+01 g/mol
          :  Hamiltonian                  GFN2-xTB          :
 * total energy  :   -92.1563198 Eh     change       -0.3987891E-07 Eh
 * total energy  :   -92.1566633 Eh     change       -0.3434250E-03 Eh
 * total energy  :   -92.1569184 Eh     change       -0.2551361E-03 Eh
 * total energy  :   -92.1569762 Eh     change       -0.5776311E-04 Eh
 * total energy  :   -92.1570360 Eh     change       -0.5986294E-04 Eh
 * total energy  :   -92.1570730 Eh     change       -0.3696448E-04 Eh
 * total energy  :   -92.1571068 Eh     change       -0.3382842E-04 Eh
 * total energy  :   -92.1571487 Eh     change       -0.4188178E-04 Eh
 * total energy  :   -92.1571863 Eh     change       -0.3754809E-04 Eh
 * total energy  :   -92.1572100 Eh     change       -0.2372055E-04 Eh
 * total energy  :   -92.1574769 Eh     change       -0.3528080E-06 Eh
 * total energy  :   -92.1574772 Eh     change       -0.3064400E-06 Eh
 * total energy  :   -92.1574775 Eh     change       -0.2681796E-06 Eh
 * total energy  :   -92.1574777 Eh     change       -0.2419743E-06 Eh
 * total energy  :   -92.1574779 Eh     change       -0.1729981E-06 Eh
 * total energy  :   -92.1574782 Eh     change       -0.2919980E-06 Eh
 * total energy  :   -92.1574785 Eh     change       -0.2624980E-06 Eh
 * total energy  :   -92.1574787 Eh     change       -0.2736616E-06 Eh
 * total energy  :   -92.1574787 Eh     change       -0.5525237E-08 Eh
   *** GEOMETRY OPTIMIZATION CONVERGED AFTER 94 ITERATIONS ***

 final structure:
================
63
 xtb: 6.7.1 (edcfbbe)
C            0.43819443059266        1.40618853278667        2.89027083091410
C            1.95024583814086        1.44128984812930        2.70218485951057
C            2.55166752240456        0.03809802150101        2.68103756732991
C            4.06755122710190        0.07505099653479        2.49453866157573
C            4.71164462402496       -1.31384910002369        2.46219285641421
C            4.40208770963090       -2.10159629397495        1.18668085163466
C            5.15311813520572       -1.55947087384332       -0.03396548651339
C            4.33405209265451       -1.67474785965267       -1.33017574105043
N            3.17573408181536       -0.82907773847778       -1.28381851198775
C            3.22276831874775        0.55335773098186       -1.38939034393821
C            4.29751407254947        1.37027720482923       -1.67083541181405
C            4.06805699850378        2.75995968568896       -1.71828275464866
C            2.80861961573499        3.27903149796983       -1.49434925623050
C            1.71518454613969        2.45501773180337       -1.21774488598800
C            1.92100419198138        1.07546678321941       -1.16803648468360
C            1.06666513645405       -0.03934901797437       -0.92722985654088
C           -0.28754736310717       -0.16403239781741       -0.66279730110414
C           -0.82102257475480       -1.45202261266805       -0.47202994311011
N           -2.13740838554968       -1.67001946058014       -0.21752875969468
C           -3.21917649456176       -0.83325246805358       -0.12677813324516
N           -3.11253544606694        0.49210735301852       -0.28531242898298
C           -4.24992088677818        1.14653202019812       -0.18057886980541
O           -4.26366662869151        2.47082301050699       -0.32641806285791
C           -3.01781136648164        3.09539319445023       -0.59331244312196
N           -5.45401650699955        0.60729283405010        0.06431145429228
C           -5.43239140861170       -0.71974947084349        0.20814053053785
O           -6.57787521227661       -1.35376452041746        0.45702374228255
C           -7.74699134876074       -0.55296984429661        0.54714940279840
N           -4.36968348594008       -1.49304387844882        0.12609064133818
C            0.02017739012813       -2.60824604223111       -0.54382489850214
C            1.37058495394108       -2.49325494103172       -0.81438817072395
C            1.90421856252808       -1.21796786446054       -1.00429026049352
H            0.03022863847405        2.41470268086154        2.90118113993438
H           -0.03268686339498        0.85159274908403        2.08040290218401
H            0.17915993718375        0.92253471687170        3.83055043475921
H            2.40268948832664        2.01947850845424        3.51167096234231
H            2.18388368739675        1.94495425076745        1.76131962399128
H            2.08321002846521       -0.52314880154962        1.87030354912726
H            2.31272100488347       -0.47243139739360        3.61762078344569
H            4.50463056555117        0.64229978270583        3.32018980935866
H            4.29346718051723        0.61823484526207        1.57463150436323
H            4.35580928527235       -1.88204438877358        3.32456910473912
H            5.79473021621326       -1.20929411610412        2.56121775490576
H            4.66519817267354       -3.14978921941250        1.34102928329082
H            3.32693916360223       -2.06182708854060        1.01145645953993
H            6.09041353005013       -2.09977260666562       -0.17047746603183
H            5.39562767737391       -0.50846595378706        0.12239253386176
H            4.01361441367440       -2.70648398617220       -1.48167924198616
H            4.95237101209875       -1.37130216507161       -2.18027126614753
H            5.28526632449094        0.98079402576196       -1.85856586432046
H            4.89430660663497        3.41937371615908       -1.93390859505460
H            2.66069037005934        4.34862213509874       -1.53459944089551
H            0.73641711329678        2.87191698959422       -1.04278773366057
H           -0.93817579016835        0.68948252657632       -0.60261548430006
H           -2.42740574601288       -2.62854248208719       -0.08152389683265
H           -2.31916819654790        2.92360709108819        0.22828822020066
H           -3.23816722557636        4.15618120544601       -0.68993142010450
H           -2.58402576758781        2.70849397089514       -1.51834280134361
H           -8.55637993614793       -1.24607370329297        0.76572873090933
H           -7.92935016059743       -0.03070036172363       -0.39406819475607
H           -7.64629309588380        0.18791117134098        1.34255770722926
H           -0.42315266256564       -3.57963640657946       -0.39211845846720
H            1.98171235454684       -3.37975542319514       -0.87274633207067

          :  Hamiltonian                  GFN2-xTB          :
         :: gradient norm              0.000044470797 Eh/a0 ::
         :: HOMO-LUMO gap              0.039074664967 eV    ::
         :: SCC energy               -93.483280926629 Eh    ::
         :: -> dispersion             -0.072939919320 Eh    ::
         :: -> Gsolv                  -0.046242903002 Eh    ::
         :: repulsion energy           1.325802184883 Eh    ::

    * Orbital Energies and Occupations

         #    Occupation            Energy/Eh            Energy/eV
      -------------------------------------------------------------
         1        2.0000           -0.7367127             -20.0470
       ...           ...                  ...                  ...
        73        2.0000           -0.4276968             -11.6382
        74        2.0000           -0.4260219             -11.5926
        75        2.0000           -0.4250235             -11.5655
        76        2.0000           -0.4238670             -11.5340
        77        2.0000           -0.4225276             -11.4976
        78        2.0000           -0.4219530             -11.4819
        79        2.0000           -0.4160857             -11.3223
        80        2.0000           -0.3988516             -10.8533
        81        2.0000           -0.3903921             -10.6231
        82        2.0000           -0.3861363             -10.5073
        83        2.0000           -0.3832443             -10.4286
        84        1.0000           -0.3637822              -9.8990
        85        0.6804           -0.2542241              -6.9178 (HOMO)
        86        0.3196           -0.2527881              -6.8787 (LUMO)
        87        0.0000           -0.2389847              -6.5031
        88                         -0.2215923              -6.0298
        89                         -0.1977252              -5.3804
        90                         -0.1909248              -5.1953
        91                         -0.1214507              -3.3048
        92                         -0.1020251              -2.7762
        93                         -0.0686973              -1.8693
        94                         -0.0067295              -0.1831
        95                          0.0023021               0.0626
        96                          0.0202652               0.5514
       ...                                ...                  ...
       159                          0.7382838              20.0897
      -------------------------------------------------------------
                  HL-Gap            0.0014360 Eh            0.0391 eV

     #   Z          covCN         q      C6AA      α(0)
     1   6 C        3.752    -0.100    22.469     6.760
     2   6 C        3.801    -0.054    21.542     6.608
     3   6 C        3.802    -0.058    21.616     6.619
     4   6 C        3.802    -0.059    21.635     6.622
     5   6 C        3.801    -0.060    21.658     6.626
     6   6 C        3.801    -0.064    21.725     6.636
     7   6 C        3.802    -0.066    21.764     6.642
     8   6 C        3.741    -0.012    20.858     6.516
     9   7 N        2.794     0.015    20.983     6.803
    10   6 C        3.068     0.040    27.035     8.526
    11   6 C        2.908    -0.048    29.204     8.861
    12   6 C        2.918    -0.047    29.176     8.858
    13   6 C        2.915    -0.031    28.773     8.796
    14   6 C        2.910    -0.044    29.084     8.843
    15   6 C        3.052    -0.020    28.454     8.748
    16   6 C        3.059    -0.012    28.246     8.716
    17   6 C        2.906    -0.065    29.615     8.923
    18   6 C        2.898     0.079    26.229     8.397
    19   7 N        2.714    -0.141    24.061     7.285
    20   6 C        2.939     0.254    22.753     7.823
    21   7 N        1.832    -0.377    30.688     8.209
    22   6 C        2.912     0.346    21.148     7.541
    23   8 O        1.708    -0.267    18.418     5.794
    24   6 C        3.657     0.029    20.367     6.478
    25   7 N        1.832    -0.417    31.852     8.363
    26   6 C        2.902     0.352    21.040     7.521
    27   8 O        1.708    -0.268    18.445     5.799
    28   6 C        3.655     0.028    20.400     6.484
    29   7 N        1.849    -0.391    31.106     8.266
    30   6 C        2.921    -0.084    30.091     8.996
    31   6 C        2.902    -0.048    29.189     8.859
    32   6 C        3.054     0.038    27.095     8.537
    33   1 H        0.925     0.031     2.574     2.509
    34   1 H        0.925     0.027     2.636     2.539
    35   1 H        0.925     0.030     2.581     2.512
    36   1 H        0.924     0.030     2.587     2.515
    37   1 H        0.924     0.031     2.577     2.511
    38   1 H        0.924     0.027     2.628     2.535
    39   1 H        0.924     0.028     2.617     2.530
    40   1 H        0.924     0.030     2.586     2.515
    41   1 H        0.924     0.033     2.542     2.494
    42   1 H        0.924     0.034     2.530     2.487
    43   1 H        0.924     0.036     2.502     2.474
    44   1 H        0.924     0.037     2.488     2.466
    45   1 H        0.925     0.042     2.417     2.431
    46   1 H        0.924     0.054     2.267     2.355
    47   1 H        0.925     0.057     2.230     2.335
    48   1 H        0.924     0.067     2.117     2.275
    49   1 H        0.924     0.068     2.108     2.271
    50   1 H        0.926     0.040     2.449     2.447
    51   1 H        0.926     0.031     2.571     2.507
    52   1 H        0.926     0.031     2.571     2.507
    53   1 H        0.926     0.027     2.622     2.532
    54   1 H        0.926     0.057     2.235     2.338
    55   1 H        0.860     0.210     1.056     1.609
    56   1 H        0.924     0.062     2.172     2.305
    57   1 H        0.925     0.084     1.940     2.178
    58   1 H        0.924     0.062     2.180     2.309
    59   1 H        0.925     0.084     1.939     2.177
    60   1 H        0.924     0.062     2.170     2.304
    61   1 H        0.924     0.063     2.165     2.301
    62   1 H        0.926     0.027     2.636     2.539
    63   1 H        0.926     0.048     2.345     2.394

molecular dipole:
                 x           y           z       tot (Debye)
 q only:        3.913      -0.581      -0.423
   full:        3.686      -0.702      -0.440       9.603

 projected vibrational frequencies (cm⁻¹)
eigval :       -0.00    -0.00     0.00     0.00     0.00     0.00
eigval :       15.20    20.86    25.19    33.80    38.65    45.09
eigval :       46.56    77.34    81.01    83.70    87.07   103.49
eigval :      111.98   122.87   129.83   130.59   155.43   157.76
eigval :      163.99   172.92   194.59   196.43   211.29   211.99
eigval :      225.02   239.65   245.24   253.74   268.09   279.28
eigval :      296.28   315.43   340.05   354.91   385.16   402.09
eigval :      406.33   415.64   437.05   445.50   471.26   483.49
eigval :      500.95   524.47   547.87   549.34   551.71   569.43
eigval :      570.46   582.50   636.29   642.07   650.75   663.07
eigval :      675.75   677.89   708.70   719.08   726.53   729.37
eigval :      736.20   761.01   784.38   797.65   805.58   824.36
eigval :      826.74   829.32   845.75   864.39   886.74   893.76
eigval :      899.43   919.76   937.85   944.98   959.40   976.54
eigval :      988.59  1000.13  1006.23  1013.06  1044.12  1044.88
eigval :     1057.29  1061.55  1072.78  1082.31  1089.47  1106.10
eigval :     1110.54  1116.07  1119.14  1125.33  1128.96  1134.02
eigval :     1134.90  1141.83  1150.04  1165.84  1173.87  1182.27
eigval :     1190.42  1206.25  1220.62  1227.85  1233.77  1240.30
eigval :     1252.30  1264.00  1267.30  1282.17  1286.13  1288.41
eigval :     1295.42  1298.45  1305.40  1315.88  1335.11  1347.59
eigval :     1351.03  1354.05  1355.47  1365.49  1372.49  1375.07
eigval :     1380.77  1393.77  1395.83  1404.87  1408.17  1415.63
eigval :     1425.04  1432.77  1437.68  1441.45  1451.09  1461.93
eigval :     1463.72  1469.28  1470.92  1484.23  1489.84  1494.77
eigval :     1495.48  1496.13  1500.59  1503.15  1504.87  1508.24
eigval :     1535.04  1561.55  2953.90  2954.17  2959.13  2960.41
eigval :     2962.77  2966.31  2966.80  2972.31  2972.50  2976.90
eigval :     2980.48  2981.45  2982.50  2985.69  2994.72  3000.37
eigval :     3006.30  3014.91  3019.07  3022.93  3028.35  3029.90
eigval :     3030.28  3074.49  3087.77  3090.16  3098.00  3099.79
eigval :     3103.03  3147.20  3401.58

   temp. (K)  partition function   enthalpy   heat capacity  entropy
                                   cal/mol     cal/K/mol   cal/K/mol   J/K/mol
 298.15  VIB  0.144E+15            18231.534    109.045    115.042
         ROT  0.252E+08              888.752      2.981     36.847
         INT  0.363E+22            19120.286    112.026    151.890
         TR   0.873E+28             1481.254      4.968     44.070
         TOT                       20601.5402   116.9943   195.9600   819.8967

       T/K    H(0)-H(T)+PV         H(T)/Eh          T*S/Eh         G(T)/Eh
   ------------------------------------------------------------------------
    298.15    0.328306E-01    0.544811E+00    0.931069E-01    0.451704E+00
   ------------------------------------------------------------------------

         :::::::::::::::::::::::::::::::::::::::::::::::::::::
         ::                  THERMODYNAMIC                  ::
         :::::::::::::::::::::::::::::::::::::::::::::::::::::
         :: total free energy         -91.705775162494 Eh   ::
         ::.................................................::
         :: total energy              -92.157478740460 Eh   ::
         :: zero point energy           0.511979858076 Eh   ::
         :: G(RRHO) w/o ZPVE           -0.060276280109 Eh   ::
         :: G(RRHO) contrib.            0.451703577967 Eh   ::
         :::::::::::::::::::::::::::::::::::::::::::::::::::::

           -------------------------------------------------
          | TOTAL ENERGY              -92.157478740460 Eh   |
          | TOTAL ENTHALPY            -91.612668238364 Eh   |
          | TOTAL FREE ENERGY         -91.705775162494 Eh   |
          | GRADIENT NORM               0.000044060121 Eh/α |
          | HOMO-LUMO GAP               0.039074988232 eV   |
           -------------------------------------------------

 * finished run on 2025/09/13 at 14:53:38.721
