   * xtb version 6.7.1 (edcfbbe) compiled by 'albert@albert-system' on 2024-07-22

   ID    Z sym.   atoms
    1    6 C      1-8, 10-18, 20, 22, 24, 26, 28, 30-32
    2    7 N      9, 19, 21, 25, 29
    3    8 O      23, 27
    4    1 H      33-63

          program call               : xtb data2507/toluene/1CM/1CM_toluene_S0_crest.xyz --gfn 2 --gbsa toluene --ohess vtight --parallel 40 --molden --ceasefiles --namespace data2507/toluene/1CM/1CM_toluene_S0_finalOpt
      * Solvation model:               GBSA
        Solvent                        toluene
        Solvent mass                       9.2140E+01 g/mol
          :  Hamiltonian                  GFN2-xTB          :
 * total energy  :   -92.2646407 Eh     change       -0.1796508E-08 Eh
 * total energy  :   -92.2648155 Eh     change       -0.1747859E-03 Eh
 * total energy  :   -92.2648989 Eh     change       -0.8336579E-04 Eh
 * total energy  :   -92.2649234 Eh     change       -0.2455567E-04 Eh
 * total energy  :   -92.2649440 Eh     change       -0.2060162E-04 Eh
 * total energy  :   -92.2649764 Eh     change       -0.3236858E-04 Eh
 * total energy  :   -92.2649953 Eh     change       -0.1889218E-04 Eh
 * total energy  :   -92.2650206 Eh     change       -0.2533493E-04 Eh
 * total energy  :   -92.2650338 Eh     change       -0.1315402E-04 Eh
 * total energy  :   -92.2650429 Eh     change       -0.9179298E-05 Eh
 * total energy  :   -92.2660594 Eh     change       -0.7170065E-06 Eh
 * total energy  :   -92.2660601 Eh     change       -0.7669017E-06 Eh
 * total energy  :   -92.2660609 Eh     change       -0.7649244E-06 Eh
 * total energy  :   -92.2660616 Eh     change       -0.7571800E-06 Eh
 * total energy  :   -92.2660623 Eh     change       -0.6929100E-06 Eh
 * total energy  :   -92.2660630 Eh     change       -0.6585635E-06 Eh
 * total energy  :   -92.2660636 Eh     change       -0.6194927E-06 Eh
 * total energy  :   -92.2660642 Eh     change       -0.6156905E-06 Eh
 * total energy  :   -92.2660642 Eh     change       -0.5755922E-08 Eh
   *** GEOMETRY OPTIMIZATION CONVERGED AFTER 68 ITERATIONS ***

 final structure:
================
63
 xtb: 6.7.1 (edcfbbe)
C            0.40875035365958        2.42967318264075        2.18517278040533
C            0.80749140128301        1.01426227378800        2.58521456848572
C            2.32451132160765        0.84276085788801        2.62461314143011
C            2.72647382394674       -0.57878384556001        3.01374873305014
C            4.24234087534130       -0.79562259455840        3.04827502189923
C            4.89057205685549       -0.80804246891594        1.66179524459294
C            4.57780045344737       -2.08546676462239        0.87387598425833
C            4.44192979540737       -1.82836007659659       -0.63294543043170
N            3.33051187832392       -0.95749532736809       -0.91997626660478
C            3.39339893161745        0.38802399517869       -1.19909250048266
C            4.49597961834920        1.20416365594856       -1.42615045161105
C            4.27103526735368        2.53897082307685       -1.69990002914617
C            2.98150253353719        3.06723919773205       -1.75289129946577
C            1.87953954928558        2.26566990946713       -1.53431973828738
C            2.08105164805754        0.91946297190055       -1.25513668901447
C            1.19144345832571       -0.17092711594944       -0.98052573371783
C           -0.18976966024702       -0.26034479008553       -0.88363601311163
C           -0.74917659148821       -1.49454282144480       -0.59254798544006
N           -2.13099040175252       -1.68845544233710       -0.46453998487796
C           -3.14663887081149       -0.81321565384393       -0.42827124752623
N           -4.35454113489881       -1.38870598640826       -0.27134426432686
C           -5.36804684102725       -0.54841314759777       -0.22599668766822
O           -6.60153439657477       -1.01196947143825       -0.08185131474235
C           -6.75238573521347       -2.42273738434295        0.00770552037787
N           -5.28027066270213        0.77882641969053       -0.31147876635608
C           -4.04378707175235        1.23438608810596       -0.46459011908984
O           -3.84366404462387        2.54042084568353       -0.55944568634691
C           -4.99101847226980        3.37695032068485       -0.48670331582724
N           -2.94607829674001        0.49675812045736       -0.53627525337487
C            0.06547575573280       -2.62394101213079       -0.42240949009704
C            1.43965417633818       -2.54701994316886       -0.51264432769540
C            2.01119530158365       -1.30881897549166       -0.78189584248531
H           -0.67402641132440        2.51989950504643        2.12329987610553
H            0.77579353516644        3.15203092610134        2.91168555646910
H            0.82814178551369        2.67573688560949        1.21232739997786
H            0.38516884075051        0.30808383743571        1.86553528273842
H            0.38708322475132        0.77990693808718        3.56696713295785
H            2.75001731032616        1.55008143481904        3.34091266791539
H            2.72165616256355        1.08969659775027        1.63864352194110
H            2.26202167431755       -1.27662107055167        2.31365454152430
H            2.32002997389037       -0.79591472099955        4.00519602763432
H            4.45696169445670       -1.74282245005107        3.54931974800291
H            4.69324897510023        0.00140838914474        3.64394872733356
H            4.53675486244702        0.06159427302623        1.10888351872646
H            5.97182724725993       -0.70343044233627        1.77234059504755
H            3.64067986545748       -2.51177609420696        1.23211197487528
H            5.36065997828913       -2.82835933418647        1.03323197973347
H            4.28926682395673       -2.77733154662109       -1.15751653516274
H            5.35129519686273       -1.36641994045629       -1.02017846925929
H            5.50368012354927        0.81903571055941       -1.38859485291229
H            5.11423316244445        3.19051642969806       -1.87748627774857
H            2.84855688773968        4.11694570656157       -1.96959371845934
H            0.87796301347256        2.66771596793607       -1.57756358019162
H           -0.82123855467121        0.60036045508537       -1.01617711444080
H           -2.43509984533186       -2.64271696429428       -0.33943555791382
H           -6.20328807230660       -2.81402696581309        0.86619848244727
H           -6.38286321095492       -2.90601299110871       -0.89881126292268
H           -7.81998086293878       -2.59295548535598        0.12483407722059
H           -5.50865815726671        3.23685878334428        0.46385633423405
H           -5.68351661806115        3.14998865740904       -1.29920006151202
H           -4.61357999358399        4.39314546575464       -0.57433712605246
H           -0.39968387423350       -3.57648842672485       -0.21012711079907
H            2.04010907985496       -3.43292454275505       -0.37847550671238

          :  Hamiltonian                  GFN2-xTB          :
         :: gradient norm              0.000056097702 Eh/a0 ::
         :: HOMO-LUMO gap              2.856148092914 eV    ::
         :: SCC energy               -93.614989947745 Eh    ::
         :: -> dispersion             -0.073066749029 Eh    ::
         :: -> Gsolv                  -0.043246122296 Eh    ::
         :: repulsion energy           1.348925708777 Eh    ::

    * Orbital Energies and Occupations

         #    Occupation            Energy/Eh            Energy/eV
      -------------------------------------------------------------
         1        2.0000           -0.7472430             -20.3335
       ...           ...                  ...                  ...
        72        2.0000           -0.4305213             -11.7151
        73        2.0000           -0.4284186             -11.6579
        74        2.0000           -0.4246444             -11.5552
        75        2.0000           -0.4239239             -11.5356
        76        2.0000           -0.4206029             -11.4452
        77        2.0000           -0.4194019             -11.4125
        78        2.0000           -0.4184174             -11.3857
        79        2.0000           -0.4142506             -11.2723
        80        2.0000           -0.4011754             -10.9165
        81        2.0000           -0.3973967             -10.8137
        82        2.0000           -0.3924409             -10.6789
        83        2.0000           -0.3801719             -10.3450
        84        2.0000           -0.3600804              -9.7983 (HOMO)
        85                         -0.2551189              -6.9421 (LUMO)
        86                         -0.2501379              -6.8066
        87                         -0.2486831              -6.7670
        88                         -0.2178823              -5.9289
        89                         -0.1921166              -5.2278
        90                         -0.1868589              -5.0847
        91                         -0.1271083              -3.4588
        92                         -0.0936672              -2.5488
        93                         -0.0612865              -1.6677
        94                         -0.0082635              -0.2249
        95                          0.0066673               0.1814
       ...                                ...                  ...
       159                          0.7421031              20.1937
      -------------------------------------------------------------
                  HL-Gap            0.1049615 Eh            2.8561 eV

     #   Z          covCN         q      C6AA      α(0)
     1   6 C        3.752    -0.101    22.491     6.763
     2   6 C        3.801    -0.052    21.501     6.602
     3   6 C        3.802    -0.058    21.624     6.621
     4   6 C        3.802    -0.058    21.613     6.619
     5   6 C        3.801    -0.060    21.647     6.624
     6   6 C        3.801    -0.062    21.696     6.632
     7   6 C        3.802    -0.067    21.791     6.646
     8   6 C        3.740    -0.005    20.754     6.500
     9   7 N        2.795    -0.036    21.945     6.957
    10   6 C        3.083     0.046    26.884     8.500
    11   6 C        2.909    -0.053    29.318     8.879
    12   6 C        2.923    -0.035    28.861     8.810
    13   6 C        2.920    -0.043    29.078     8.843
    14   6 C        2.911    -0.034    28.845     8.807
    15   6 C        3.072    -0.019    28.401     8.738
    16   6 C        3.070    -0.014    28.297     8.722
    17   6 C        2.913    -0.054    29.337     8.882
    18   6 C        2.906     0.057    26.713     8.475
    19   7 N        2.718    -0.166    24.596     7.366
    20   6 C        2.932     0.288    22.129     7.715
    21   7 N        1.852    -0.404    31.457     8.313
    22   6 C        2.909     0.354    21.009     7.516
    23   8 O        1.708    -0.256    18.238     5.766
    24   6 C        3.657     0.022    20.487     6.497
    25   7 N        1.834    -0.398    31.300     8.291
    26   6 C        2.918     0.354    21.001     7.515
    27   8 O        1.708    -0.253    18.183     5.757
    28   6 C        3.656     0.023    20.481     6.496
    29   7 N        1.839    -0.362    30.280     8.155
    30   6 C        2.929    -0.061    29.523     8.911
    31   6 C        2.909    -0.052    29.292     8.875
    32   6 C        3.086     0.043    26.950     8.510
    33   1 H        0.925     0.026     2.639     2.540
    34   1 H        0.925     0.036     2.508     2.477
    35   1 H        0.925     0.036     2.501     2.473
    36   1 H        0.924     0.020     2.732     2.585
    37   1 H        0.924     0.024     2.673     2.557
    38   1 H        0.924     0.031     2.575     2.509
    39   1 H        0.924     0.031     2.568     2.506
    40   1 H        0.924     0.029     2.606     2.525
    41   1 H        0.924     0.027     2.630     2.536
    42   1 H        0.924     0.034     2.537     2.491
    43   1 H        0.924     0.033     2.539     2.492
    44   1 H        0.925     0.042     2.425     2.435
    45   1 H        0.924     0.034     2.534     2.489
    46   1 H        0.925     0.049     2.338     2.391
    47   1 H        0.924     0.045     2.384     2.415
    48   1 H        0.924     0.051     2.305     2.374
    49   1 H        0.924     0.059     2.209     2.325
    50   1 H        0.926     0.034     2.527     2.486
    51   1 H        0.926     0.033     2.548     2.496
    52   1 H        0.926     0.028     2.615     2.529
    53   1 H        0.926     0.028     2.612     2.528
    54   1 H        0.926     0.060     2.198     2.319
    55   1 H        0.860     0.202     1.097     1.641
    56   1 H        0.924     0.067     2.124     2.279
    57   1 H        0.924     0.066     2.127     2.281
    58   1 H        0.925     0.091     1.870     2.139
    59   1 H        0.924     0.067     2.116     2.275
    60   1 H        0.924     0.067     2.115     2.275
    61   1 H        0.925     0.091     1.874     2.141
    62   1 H        0.926     0.030     2.580     2.512
    63   1 H        0.926     0.046     2.369     2.407

molecular dipole:
                 x           y           z       tot (Debye)
 q only:        1.571      -1.286       0.199
   full:        1.268      -1.497       0.198       5.012

 projected vibrational frequencies (cm⁻¹)
eigval :       -0.00    -0.00    -0.00     0.00     0.00     0.00
eigval :       13.30    20.67    26.23    40.36    43.95    45.96
eigval :       52.32    71.16    83.22    94.46    98.49   108.20
eigval :      118.19   124.23   127.81   134.71   138.36   146.02
eigval :      159.87   174.83   190.01   210.95   218.05   225.79
eigval :      233.00   238.67   252.45   269.48   275.13   286.73
eigval :      296.85   326.80   351.68   396.77   398.59   404.40
eigval :      419.88   427.64   436.10   450.98   489.04   490.78
eigval :      532.19   537.33   560.82   564.02   577.34   580.28
eigval :      586.60   618.12   620.83   651.53   673.54   675.29
eigval :      706.81   708.81   735.91   750.00   759.66   767.36
eigval :      771.57   785.21   808.67   822.95   839.63   863.88
eigval :      867.44   876.19   888.91   893.12   903.86   921.62
eigval :      930.15   936.11   946.33   978.38   983.34  1003.40
eigval :     1013.17  1026.25  1044.42  1051.10  1052.16  1072.06
eigval :     1077.96  1083.09  1097.40  1110.70  1113.40  1115.03
eigval :     1123.82  1125.11  1136.46  1142.77  1145.71  1158.31
eigval :     1162.09  1166.89  1177.61  1181.41  1183.50  1201.10
eigval :     1218.56  1222.88  1231.06  1247.30  1258.46  1268.89
eigval :     1276.43  1282.94  1288.07  1296.07  1315.56  1318.47
eigval :     1322.91  1328.61  1347.20  1354.38  1355.64  1359.73
eigval :     1364.31  1367.66  1368.80  1378.44  1380.93  1399.04
eigval :     1403.33  1412.93  1422.37  1431.23  1433.30  1439.97
eigval :     1458.33  1459.03  1460.27  1474.02  1482.14  1485.95
eigval :     1488.95  1491.57  1493.54  1495.64  1501.17  1501.31
eigval :     1505.44  1534.13  1552.02  1568.57  1580.44  1584.31
eigval :     1598.05  1615.07  2940.98  2951.91  2954.83  2960.60
eigval :     2966.31  2969.50  2970.06  2971.78  2972.97  2979.86
eigval :     2980.75  2981.44  2985.38  2988.97  2989.36  2996.33
eigval :     3007.98  3016.62  3022.70  3026.17  3033.08  3034.12
eigval :     3037.29  3066.73  3072.71  3077.39  3084.49  3092.70
eigval :     3097.63  3143.38  3421.55

   temp. (K)  partition function   enthalpy   heat capacity  entropy
                                   cal/mol     cal/K/mol   cal/K/mol   J/K/mol
 298.15  VIB  0.626E+14            17801.158    106.604    112.708
         ROT  0.252E+08              888.752      2.981     36.846
         INT  0.158E+22            18689.910    109.585    149.553
         TR   0.873E+28             1481.254      4.968     44.070
         TOT                       20171.1640   114.5528   193.6235   810.1206

       T/K    H(0)-H(T)+PV         H(T)/Eh          T*S/Eh         G(T)/Eh
   ------------------------------------------------------------------------
    298.15    0.321448E-01    0.550933E+00    0.919968E-01    0.458937E+00
   ------------------------------------------------------------------------

         :::::::::::::::::::::::::::::::::::::::::::::::::::::
         ::                  THERMODYNAMIC                  ::
         :::::::::::::::::::::::::::::::::::::::::::::::::::::
         :: total free energy         -91.807127718930 Eh   ::
         ::.................................................::
         :: total energy              -92.266064242779 Eh   ::
         :: zero point energy           0.518788483163 Eh   ::
         :: G(RRHO) w/o ZPVE           -0.059851959313 Eh   ::
         :: G(RRHO) contrib.            0.458936523849 Eh   ::
         :::::::::::::::::::::::::::::::::::::::::::::::::::::

           -------------------------------------------------
          | TOTAL ENERGY              -92.266064242779 Eh   |
          | TOTAL ENTHALPY            -91.715130963676 Eh   |
          | TOTAL FREE ENERGY         -91.807127718930 Eh   |
          | GRADIENT NORM               0.000056094983 Eh/α |
          | HOMO-LUMO GAP               2.856148301194 eV   |
           -------------------------------------------------

 * finished run on 2025/09/13 at 14:38:07.698
