   * xtb version 6.7.1 (edcfbbe) compiled by 'albert@albert-system' on 2024-07-22

   ID    Z sym.   atoms
    1    6 C      1-8, 10-18, 20, 22, 24, 26, 28, 30-32
    2    7 N      9, 19, 21, 25, 29
    3    8 O      23, 27
    4    1 H      33-63

          program call               : xtb data2507/toluene/1CM/1CM.xyz --gfn 2 --gbsa toluene --ohess vtight --parallel 40 --molden --ceasefiles --namespace data2507/toluene/1CM/1CM_toluene_S0_preOpt
      * Solvation model:               GBSA
        Solvent                        toluene
        Solvent mass                       9.2140E+01 g/mol
          :  Hamiltonian                  GFN2-xTB          :
 * total energy  :   -92.2469015 Eh     change       -0.7002967E-09 Eh
 * total energy  :   -92.2593080 Eh     change       -0.1240655E-01 Eh
 * total energy  :   -92.2629181 Eh     change       -0.3610049E-02 Eh
 * total energy  :   -92.2632968 Eh     change       -0.3787488E-03 Eh
 * total energy  :   -92.2635200 Eh     change       -0.2231577E-03 Eh
 * total energy  :   -92.2635902 Eh     change       -0.7019550E-04 Eh
 * total energy  :   -92.2636754 Eh     change       -0.8516796E-04 Eh
 * total energy  :   -92.2637356 Eh     change       -0.6022101E-04 Eh
 * total energy  :   -92.2637826 Eh     change       -0.4706925E-04 Eh
 * total energy  :   -92.2638374 Eh     change       -0.5471529E-04 Eh
 * total energy  :   -92.2640081 Eh     change       -0.2736239E-06 Eh
 * total energy  :   -92.2640083 Eh     change       -0.2291853E-06 Eh
 * total energy  :   -92.2640085 Eh     change       -0.1737118E-06 Eh
 * total energy  :   -92.2640087 Eh     change       -0.1710388E-06 Eh
 * total energy  :   -92.2640088 Eh     change       -0.1778114E-06 Eh
 * total energy  :   -92.2640090 Eh     change       -0.2007121E-06 Eh
 * total energy  :   -92.2640092 Eh     change       -0.1740770E-06 Eh
 * total energy  :   -92.2640093 Eh     change       -0.1274830E-06 Eh
 * total energy  :   -92.2640094 Eh     change       -0.8495967E-07 Eh
   *** GEOMETRY OPTIMIZATION CONVERGED AFTER 88 ITERATIONS ***

 final structure:
================
63
 xtb: 6.7.1 (edcfbbe)
C           -7.73109931466839        1.67873348375398        1.50562838749337
C           -6.48639431042697        2.48498423763873        1.86078235918708
C           -5.68482674096734        2.93633148767767        0.63751214505210
C           -5.11444467914560        1.80759455964112       -0.22477183595088
C           -4.07707190582725        0.95452923304508        0.50376366980175
C           -3.48444335435655       -0.15258149733864       -0.37056599993134
C           -2.56134352414035        0.37370956229028       -1.46785744972434
C           -1.90558047326067       -0.75800042657044       -2.26969494319924
N           -1.01153940940054       -1.55539691864567       -1.47074056910276
C           -1.28881676943934       -2.77317806682619       -0.89671714877500
C           -2.43599727968926       -3.55429579596765       -0.96968710854564
C           -2.44631467814108       -4.75940091710461       -0.29557451562163
C           -1.34464832893383       -5.19348540476917        0.44062709379468
C           -0.20025680837550       -4.42634917569744        0.51968454583248
C           -0.16577550170314       -3.20933359407681       -0.15047407469543
C            0.82890588509690       -2.18465517002347       -0.28491552923492
C            2.11779208209889       -2.03615112550906        0.20418871554907
C            2.83449621380921       -0.89310789715325       -0.12766593162722
N            4.13105365540985       -0.78160409815579        0.39128538945941
C            5.06870270642610        0.16947295845676        0.26959437827451
N            6.20272123312182       -0.10025368940139        0.94560108109092
C            7.14126267934866        0.81871897732384        0.84683508452711
O            8.29608108475986        0.65157687613218        1.47526699929134
C            8.45109973056173       -0.54135858262328        2.23283375002451
N            7.04762269397686        1.95122108906095        0.14987712810124
C            5.88984451118546        2.11146985906016       -0.47708501669306
O            5.69275419500716        3.20346650143939       -1.20013994362237
C            6.75710119256794        4.14520011906089       -1.25087650497964
N            4.87010198104940        1.26571444720847       -0.45683622527534
C            2.26664903079838        0.09026795607347       -0.94596097202649
C            0.98421211069151       -0.04460319801356       -1.43794588356655
C            0.25793348367449       -1.18229395028524       -1.10796265002279
H           -7.46505574551812        0.72440090027914        1.05846758459004
H           -8.31840368782398        1.47958622572953        2.39990950427206
H           -8.35360864491137        2.22879587979444        0.80242299252327
H           -5.85020947937798        1.89823434551342        2.52585294986377
H           -6.79157565679133        3.37899968387643        2.41154674530472
H           -4.85896063933940        3.56667807312439        0.97847825932361
H           -6.33203632594110        3.55533679789866        0.01000100545131
H           -4.65260630595503        2.26453180439014       -1.10237479642800
H           -5.92550918684287        1.16824437130857       -0.57724976982861
H           -4.54539825959293        0.48574724188059        1.37091677956608
H           -3.27151846507421        1.59618168908559        0.86965351349051
H           -2.91612747526865       -0.83154792729762        0.26978079654682
H           -4.29806640150287       -0.72488242933020       -0.82232995430256
H           -1.78054832072253        0.98855635915425       -1.01570507117079
H           -3.12361104749517        0.99596449495116       -2.16462099785247
H           -1.33612763721214       -0.33321662931356       -3.10252245159700
H           -2.67458269368260       -1.41394019199765       -2.68250454442713
H           -3.30126568058750       -3.23637845487865       -1.53027515321876
H           -3.32886515121650       -5.38097230760503       -0.33868718641619
H           -1.39257979033006       -6.14243261122451        0.95414427008415
H            0.65406258344104       -4.76102361626839        1.08921911377066
H            2.55783208695491       -2.79718915457490        0.83270179067361
H            4.43415443494292       -1.54881966593167        0.97340962525677
H            7.69436672363032       -0.59913788867142        3.01749211623952
H            9.44743997022260       -0.48259506798380        2.66452662261392
H            8.36163966627939       -1.41891816910728        1.58963086129206
H            7.65600907731499        3.68710276802075       -1.66699728917530
H            6.98587348407402        4.51950022182184       -0.25147818081946
H            6.40141244016632        4.94881499351307       -1.89149294464945
H            2.85471641062521        0.96010588744663       -1.18322352790353
H            0.56937132640143        0.72732953674372       -2.06670308794543

          :  Hamiltonian                  GFN2-xTB          :
         :: gradient norm              0.000029380238 Eh/a0 ::
         :: HOMO-LUMO gap              2.847953820136 eV    ::
         :: SCC energy               -93.612970954875 Eh    ::
         :: -> dispersion             -0.066047781032 Eh    ::
         :: -> Gsolv                  -0.045569084650 Eh    ::
         :: repulsion energy           1.348961539046 Eh    ::

    * Orbital Energies and Occupations

         #    Occupation            Energy/Eh            Energy/eV
      -------------------------------------------------------------
         1        2.0000           -0.7473433             -20.3362
       ...           ...                  ...                  ...
        72        2.0000           -0.4304606             -11.7134
        73        2.0000           -0.4290929             -11.6762
        74        2.0000           -0.4250468             -11.5661
        75        2.0000           -0.4237872             -11.5318
        76        2.0000           -0.4207764             -11.4499
        77        2.0000           -0.4195208             -11.4157
        78        2.0000           -0.4184175             -11.3857
        79        2.0000           -0.4106414             -11.1741
        80        2.0000           -0.4012938             -10.9198
        81        2.0000           -0.3989452             -10.8559
        82        2.0000           -0.3932142             -10.6999
        83        2.0000           -0.3802538             -10.3472
        84        2.0000           -0.3602608              -9.8032 (HOMO)
        85                         -0.2556005              -6.9552 (LUMO)
        86                         -0.2504846              -6.8160
        87                         -0.2488342              -6.7711
        88                         -0.2183883              -5.9426
        89                         -0.1926607              -5.2426
        90                         -0.1852404              -5.0406
        91                         -0.1273472              -3.4653
        92                         -0.0928291              -2.5260
        93                         -0.0623808              -1.6975
        94                         -0.0085824              -0.2335
        95                          0.0063530               0.1729
       ...                                ...                  ...
       159                          0.7417014              20.1827
      -------------------------------------------------------------
                  HL-Gap            0.1046604 Eh            2.8480 eV

     #   Z          covCN         q      C6AA      α(0)
     1   6 C        3.751    -0.101    22.490     6.763
     2   6 C        3.799    -0.053    21.525     6.606
     3   6 C        3.801    -0.058    21.624     6.621
     4   6 C        3.801    -0.060    21.650     6.625
     5   6 C        3.801    -0.059    21.632     6.622
     6   6 C        3.801    -0.058    21.620     6.620
     7   6 C        3.801    -0.065    21.754     6.640
     8   6 C        3.740    -0.006    20.771     6.503
     9   7 N        2.796    -0.037    21.949     6.958
    10   6 C        3.083     0.045    26.904     8.503
    11   6 C        2.910    -0.052    29.281     8.873
    12   6 C        2.923    -0.034    28.855     8.809
    13   6 C        2.919    -0.044    29.084     8.844
    14   6 C        2.912    -0.035    28.872     8.811
    15   6 C        3.070    -0.022    28.470     8.749
    16   6 C        3.068    -0.018    28.380     8.735
    17   6 C        2.919    -0.061    29.528     8.911
    18   6 C        2.905     0.058    26.697     8.472
    19   7 N        2.719    -0.165    24.562     7.361
    20   6 C        2.930     0.286    22.165     7.721
    21   7 N        1.853    -0.403    31.434     8.310
    22   6 C        2.907     0.353    21.019     7.518
    23   8 O        1.708    -0.255    18.224     5.764
    24   6 C        3.656     0.022    20.491     6.498
    25   7 N        1.834    -0.397    31.264     8.286
    26   6 C        2.917     0.353    21.022     7.519
    27   8 O        1.708    -0.252    18.171     5.755
    28   6 C        3.656     0.022    20.489     6.497
    29   7 N        1.839    -0.363    30.319     8.160
    30   6 C        2.922    -0.057    29.418     8.895
    31   6 C        2.910    -0.051    29.266     8.871
    32   6 C        3.083     0.041    26.999     8.518
    33   1 H        0.925     0.036     2.498     2.472
    34   1 H        0.925     0.030     2.592     2.518
    35   1 H        0.925     0.033     2.547     2.496
    36   1 H        0.924     0.030     2.589     2.516
    37   1 H        0.924     0.026     2.649     2.545
    38   1 H        0.924     0.027     2.636     2.539
    39   1 H        0.924     0.029     2.594     2.519
    40   1 H        0.924     0.031     2.577     2.511
    41   1 H        0.924     0.036     2.509     2.477
    42   1 H        0.924     0.034     2.527     2.486
    43   1 H        0.924     0.029     2.604     2.523
    44   1 H        0.924     0.032     2.561     2.503
    45   1 H        0.924     0.035     2.516     2.481
    46   1 H        0.924     0.042     2.417     2.431
    47   1 H        0.924     0.048     2.343     2.394
    48   1 H        0.924     0.052     2.292     2.368
    49   1 H        0.924     0.059     2.206     2.323
    50   1 H        0.926     0.035     2.514     2.480
    51   1 H        0.926     0.033     2.543     2.494
    52   1 H        0.926     0.029     2.599     2.521
    53   1 H        0.926     0.029     2.605     2.524
    54   1 H        0.926     0.030     2.582     2.513
    55   1 H        0.860     0.203     1.093     1.638
    56   1 H        0.924     0.067     2.124     2.279
    57   1 H        0.925     0.091     1.868     2.137
    58   1 H        0.924     0.066     2.125     2.280
    59   1 H        0.924     0.068     2.110     2.272
    60   1 H        0.924     0.068     2.112     2.272
    61   1 H        0.925     0.091     1.870     2.138
    62   1 H        0.926     0.061     2.183     2.311
    63   1 H        0.926     0.045     2.377     2.411

molecular dipole:
                 x           y           z       tot (Debye)
 q only:       -1.397      -0.416      -0.231
   full:       -1.146      -0.488      -0.101       3.176

 projected vibrational frequencies (cm⁻¹)
eigval :       -0.00    -0.00     0.00     0.00     0.00     0.00
eigval :       11.44    13.44    22.36    26.71    29.76    40.86
eigval :       52.91    54.55    81.52    87.21    94.03    99.87
eigval :      105.40   119.55   124.78   125.74   133.55   140.66
eigval :      159.18   170.22   185.43   199.58   216.13   228.06
eigval :      233.59   237.38   252.13   263.01   271.15   278.70
eigval :      293.62   325.10   336.47   372.71   393.71   415.56
eigval :      422.27   425.74   448.66   465.73   501.13   527.12
eigval :      532.25   539.66   560.88   566.38   576.49   581.45
eigval :      585.67   619.29   619.74   650.55   672.48   673.80
eigval :      707.11   709.69   728.65   753.75   766.21   766.58
eigval :      769.36   782.12   809.71   812.59   839.27   851.39
eigval :      861.32   876.28   882.09   898.52   899.42   907.53
eigval :      917.95   923.65   953.16   978.85   989.87  1002.64
eigval :     1013.53  1028.44  1031.35  1043.90  1053.10  1064.24
eigval :     1072.06  1077.59  1099.05  1114.08  1114.60  1119.72
eigval :     1126.41  1133.32  1135.95  1149.15  1151.72  1154.76
eigval :     1159.78  1162.96  1169.34  1180.87  1184.08  1208.84
eigval :     1217.34  1230.81  1241.03  1243.54  1257.83  1270.56
eigval :     1274.29  1287.97  1297.50  1305.70  1313.31  1318.14
eigval :     1326.93  1334.21  1351.15  1353.61  1363.46  1363.65
eigval :     1364.38  1368.21  1372.86  1375.23  1383.17  1399.81
eigval :     1403.36  1412.05  1424.77  1431.18  1433.02  1441.95
eigval :     1457.50  1458.38  1460.58  1470.11  1473.01  1484.60
eigval :     1485.89  1487.37  1490.89  1492.23  1498.22  1503.70
eigval :     1512.74  1535.97  1554.62  1568.48  1580.05  1584.75
eigval :     1598.96  1616.53  2945.80  2951.52  2956.12  2960.19
eigval :     2963.95  2967.58  2969.42  2972.89  2975.61  2976.96
eigval :     2980.98  2981.58  2984.24  2985.50  2988.25  2990.71
eigval :     2992.76  2999.05  3023.64  3027.35  3033.24  3033.57
eigval :     3041.75  3070.19  3072.60  3077.45  3086.54  3094.37
eigval :     3096.57  3137.16  3419.28

   temp. (K)  partition function   enthalpy   heat capacity  entropy
                                   cal/mol     cal/K/mol   cal/K/mol   J/K/mol
 298.15  VIB  0.618E+15            17989.934    105.773    115.030
         ROT  0.441E+08              888.752      2.981     37.962
         INT  0.273E+23            18878.686    108.754    152.993
         TR   0.873E+28             1481.254      4.968     44.070
         TOT                       20359.9404   113.7217   197.0632   824.5124

       T/K    H(0)-H(T)+PV         H(T)/Eh          T*S/Eh         G(T)/Eh
   ------------------------------------------------------------------------
    298.15    0.324456E-01    0.550807E+00    0.936311E-01    0.457176E+00
   ------------------------------------------------------------------------

         :::::::::::::::::::::::::::::::::::::::::::::::::::::
         ::                  THERMODYNAMIC                  ::
         :::::::::::::::::::::::::::::::::::::::::::::::::::::
         :: total free energy         -91.806833517067 Eh   ::
         ::.................................................::
         :: total energy              -92.264009412630 Eh   ::
         :: zero point energy           0.518361352116 Eh   ::
         :: G(RRHO) w/o ZPVE           -0.061185456553 Eh   ::
         :: G(RRHO) contrib.            0.457175895563 Eh   ::
         :::::::::::::::::::::::::::::::::::::::::::::::::::::

           -------------------------------------------------
          | TOTAL ENERGY              -92.264009412630 Eh   |
          | TOTAL ENTHALPY            -91.713202430223 Eh   |
          | TOTAL FREE ENERGY         -91.806833517067 Eh   |
          | GRADIENT NORM               0.000029380781 Eh/α |
          | HOMO-LUMO GAP               2.847953357401 eV   |
           -------------------------------------------------

 * finished run on 2025/09/13 at 14:24:31.573
