   * xtb version 6.7.1 (edcfbbe) compiled by 'albert@albert-system' on 2024-07-22

   ID    Z sym.   atoms
    1    6 C      1-8, 10-18, 20, 22, 24, 26, 28, 30-32
    2    7 N      9, 19, 21, 25, 29
    3    8 O      23, 27
    4    1 H      33-63

          program call               : xtb data2507/toluene/1CM/1CM_toluene_S0_finalOpt.xtbopt.xyz --gfn 2 --uhf 2 --gbsa toluene --ohess vtight --parallel 40 --molden --ceasefiles --namespace data2507/toluene/1CM/1CM_toluene_T1_preOpt
      * Solvation model:               GBSA
        Solvent                        toluene
        Solvent mass                       9.2140E+01 g/mol
          :  Hamiltonian                  GFN2-xTB          :
 * total energy  :   -92.1522264 Eh     change       -0.3806379E-07 Eh
 * total energy  :   -92.1555563 Eh     change       -0.3329959E-02 Eh
 * total energy  :   -92.1564705 Eh     change       -0.9141125E-03 Eh
 * total energy  :   -92.1565955 Eh     change       -0.1250939E-03 Eh
 * total energy  :   -92.1566756 Eh     change       -0.8002718E-04 Eh
 * total energy  :   -92.1566929 Eh     change       -0.1730175E-04 Eh
 * total energy  :   -92.1567051 Eh     change       -0.1227133E-04 Eh
 * total energy  :   -92.1567117 Eh     change       -0.6543619E-05 Eh
 * total energy  :   -92.1567167 Eh     change       -0.5037032E-05 Eh
 * total energy  :   -92.1567224 Eh     change       -0.5622494E-05 Eh
 * total energy  :   -92.1567732 Eh     change       -0.1195680E-05 Eh
 * total energy  :   -92.1567745 Eh     change       -0.1375820E-05 Eh
 * total energy  :   -92.1567762 Eh     change       -0.1652712E-05 Eh
 * total energy  :   -92.1567781 Eh     change       -0.1907345E-05 Eh
 * total energy  :   -92.1567800 Eh     change       -0.1847682E-05 Eh
 * total energy  :   -92.1567817 Eh     change       -0.1701712E-05 Eh
 * total energy  :   -92.1567828 Eh     change       -0.1188532E-05 Eh
 * total energy  :   -92.1567839 Eh     change       -0.1093371E-05 Eh
 * total energy  :   -92.1567840 Eh     change       -0.2554914E-07 Eh
   *** GEOMETRY OPTIMIZATION CONVERGED AFTER 44 ITERATIONS ***

 final structure:
================
63
 xtb: 6.7.1 (edcfbbe)
C            0.45903076154101        2.41978517436253        2.23961709468792
C            0.86214638364571        1.00831931301437        2.64886830347915
C            2.37920114613041        0.83261493128191        2.65999643449780
C            2.78278712092943       -0.58989235268169        3.04426457374689
C            4.29771673675581       -0.81489646581866        3.05085852070454
C            4.92423742393564       -0.82162537113213        1.65401271740668
C            4.57843637361020       -2.08776471751050        0.86239203324517
C            4.41414969721957       -1.81953920857822       -0.64263277920999
N            3.29939974550627       -0.95039235342955       -0.89443669184146
C            3.37676536440468        0.40541123539983       -1.17548900223742
C            4.48684669129582        1.19378276496862       -1.40315591197681
C            4.27629217576519        2.56148891650089       -1.67092195047220
C            3.00253597726647        3.09061033228344       -1.70825329274746
C            1.87404206327591        2.29718003533786       -1.48193015664254
C            2.06171600942292        0.94150524329977       -1.21314854171292
C            1.16893647810325       -0.13541132049175       -0.93746618877785
C           -0.20531430493664       -0.22393348609265       -0.81042126481550
C           -0.77294969675727       -1.47636198418784       -0.51582686547556
N           -2.11173190820135       -1.65297160698980       -0.36436609574868
C           -3.16465106724626       -0.77571261267195       -0.41030055006387
N           -4.36402337543224       -1.37493688769796       -0.23239712707433
C           -5.39163865086764       -0.55847487162110       -0.26653476873379
O           -6.62505390352319       -1.03888040131095       -0.10770894338290
C           -6.74144723738907       -2.44023805048861        0.08321672756137
N           -5.33928122246198        0.76924781513816       -0.45147978876983
C           -4.09958897465315        1.24163795477706       -0.61230839568173
O           -3.93166209587442        2.55073996554221       -0.80122642381602
C           -5.10382415162396        3.35064423010666       -0.82159942893118
N           -2.98619079022946        0.53574564713279       -0.60565881662742
C            0.05415282143500       -2.63864821030918       -0.36689519140662
C            1.42865615155110       -2.55330662201060       -0.48153426948042
C            1.99516146087190       -1.30880886344235       -0.75103541139363
H           -0.62462899708958        2.51233821877620        2.19981049884481
H            0.84306472178479        3.15030955365114        2.94895237823578
H            0.85750146697692        2.65255375665823        1.25470735369348
H            0.42267428277993        0.29538909671555        1.94622239428902
H            0.46047131993530        0.78684492037907        3.64130619590383
H            2.81984450830459        1.53973225516662        3.36714595830163
H            2.75798937799806        1.07813684924968        1.66653048509633
H            2.29936733592989       -1.28742177334362        2.35662024303916
H            2.39526705297592       -0.80247235657635        4.04408540652065
H            4.51554353467090       -1.76591101065592        3.54292009784479
H            4.76296212636707       -0.02373132995411        3.64298535025282
H            4.57664567072865        0.06087100756326        1.11780418410808
H            6.00825998655285       -0.73548702551060        1.74968760131395
H            3.64436203914349       -2.50728095861387        1.23569416333442
H            5.35655498014149       -2.84020855039790        0.99496807051414
H            4.24613828916604       -2.76700824600654       -1.16399621330107
H            5.31676561914866       -1.35630870406383       -1.04267500558901
H            5.49117718578216        0.80167637934395       -1.38048973892681
H            5.13082439646051        3.19538893738880       -1.84942531202722
H            2.86957465741966        4.14240914455744       -1.91665533466125
H            0.88126086873751        2.71778289548064       -1.51313574489322
H           -0.84816381965539        0.63129926733439       -0.91951808324252
H           -2.43238455487539       -2.59379349475285       -0.18015647357639
H           -6.18873830735525       -2.75515774264052        0.97100195980978
H           -6.35389151805236       -2.97988970989288       -0.78380073769678
H           -7.80516990749596       -2.63007257468020        0.20705332313531
H           -5.64954888993858        3.25970940328981        0.11955600491492
H           -5.76334975062779        3.04680362263224       -1.63695149337611
H           -4.75587246953411        4.37085483460112       -0.96826894447049
H           -0.41741934850000       -3.58607896717483       -0.15885245737084
H            2.03411787486808       -3.43839424269955       -0.36844235022495

          :  Hamiltonian                  GFN2-xTB          :
         :: gradient norm              0.000082406850 Eh/a0 ::
         :: HOMO-LUMO gap              0.051802204672 eV    ::
         :: SCC energy               -93.482179707407 Eh    ::
         :: -> dispersion             -0.072725245193 Eh    ::
         :: -> Gsolv                  -0.046452106571 Eh    ::
         :: repulsion energy           1.325395744457 Eh    ::

    * Orbital Energies and Occupations

         #    Occupation            Energy/Eh            Energy/eV
      -------------------------------------------------------------
         1        2.0000           -0.7364243             -20.0391
       ...           ...                  ...                  ...
        73        2.0000           -0.4261131             -11.5951
        74        2.0000           -0.4249077             -11.5623
        75        2.0000           -0.4242683             -11.5449
        76        2.0000           -0.4234752             -11.5233
        77        2.0000           -0.4219034             -11.4806
        78        2.0000           -0.4205537             -11.4438
        79        2.0000           -0.4160340             -11.3209
        80        2.0000           -0.3974667             -10.8156
        81        2.0000           -0.3914250             -10.6512
        82        2.0000           -0.3829765             -10.4213
        83        2.0000           -0.3821463             -10.3987
        84        1.0001           -0.3631611              -9.8821
        85        0.7314           -0.2532367              -6.8909 (HOMO)
        86        0.2686           -0.2513328              -6.8391 (LUMO)
        87        0.0000           -0.2381944              -6.4816
        88                         -0.2210709              -6.0156
        89                         -0.1967747              -5.3545
        90                         -0.1901891              -5.1753
        91                         -0.1205554              -3.2805
        92                         -0.1011475              -2.7524
        93                         -0.0676022              -1.8396
        94                         -0.0070212              -0.1911
        95                          0.0018835               0.0513
        96                          0.0192457               0.5237
       ...                                ...                  ...
       159                          0.7400146              20.1368
      -------------------------------------------------------------
                  HL-Gap            0.0019039 Eh            0.0518 eV

     #   Z          covCN         q      C6AA      α(0)
     1   6 C        3.752    -0.101    22.495     6.764
     2   6 C        3.801    -0.052    21.501     6.602
     3   6 C        3.802    -0.059    21.632     6.622
     4   6 C        3.802    -0.058    21.624     6.621
     5   6 C        3.801    -0.060    21.658     6.626
     6   6 C        3.801    -0.064    21.722     6.636
     7   6 C        3.802    -0.066    21.770     6.643
     8   6 C        3.741    -0.012    20.864     6.517
     9   7 N        2.794     0.015    20.997     6.806
    10   6 C        3.064     0.040    27.032     8.526
    11   6 C        2.908    -0.049    29.221     8.864
    12   6 C        2.918    -0.047    29.164     8.856
    13   6 C        2.915    -0.030    28.755     8.793
    14   6 C        2.909    -0.043    29.075     8.842
    15   6 C        3.053    -0.019    28.441     8.746
    16   6 C        3.058    -0.010    28.212     8.710
    17   6 C        2.906    -0.060    29.498     8.906
    18   6 C        2.899     0.079    26.245     8.400
    19   7 N        2.712    -0.140    24.041     7.282
    20   6 C        2.938     0.252    22.787     7.829
    21   7 N        1.845    -0.404    31.466     8.313
    22   6 C        2.903     0.349    21.093     7.530
    23   8 O        1.708    -0.269    18.454     5.800
    24   6 C        3.657     0.027    20.408     6.484
    25   7 N        1.832    -0.419    31.911     8.371
    26   6 C        2.911     0.349    21.095     7.531
    27   8 O        1.708    -0.266    18.407     5.793
    28   6 C        3.656     0.028    20.392     6.483
    29   7 N        1.834    -0.363    30.312     8.159
    30   6 C        2.921    -0.085    30.137     9.003
    31   6 C        2.902    -0.046    29.150     8.853
    32   6 C        3.057     0.037    27.116     8.540
    33   1 H        0.925     0.026     2.648     2.545
    34   1 H        0.925     0.035     2.512     2.478
    35   1 H        0.925     0.036     2.496     2.471
    36   1 H        0.924     0.020     2.735     2.586
    37   1 H        0.924     0.024     2.668     2.555
    38   1 H        0.924     0.031     2.569     2.506
    39   1 H        0.924     0.032     2.560     2.502
    40   1 H        0.924     0.029     2.600     2.521
    41   1 H        0.924     0.028     2.613     2.528
    42   1 H        0.924     0.035     2.512     2.479
    43   1 H        0.924     0.036     2.508     2.477
    44   1 H        0.925     0.044     2.400     2.423
    45   1 H        0.924     0.038     2.477     2.461
    46   1 H        0.925     0.055     2.262     2.352
    47   1 H        0.924     0.054     2.273     2.358
    48   1 H        0.924     0.066     2.134     2.285
    49   1 H        0.924     0.070     2.085     2.258
    50   1 H        0.926     0.039     2.458     2.452
    51   1 H        0.926     0.032     2.556     2.500
    52   1 H        0.926     0.031     2.573     2.508
    53   1 H        0.926     0.027     2.627     2.535
    54   1 H        0.926     0.064     2.155     2.296
    55   1 H        0.860     0.208     1.068     1.619
    56   1 H        0.924     0.061     2.183     2.311
    57   1 H        0.924     0.061     2.188     2.313
    58   1 H        0.925     0.085     1.932     2.173
    59   1 H        0.924     0.062     2.177     2.307
    60   1 H        0.924     0.062     2.182     2.310
    61   1 H        0.925     0.084     1.941     2.179
    62   1 H        0.926     0.027     2.632     2.537
    63   1 H        0.926     0.049     2.328     2.386

molecular dipole:
                 x           y           z       tot (Debye)
 q only:        3.238      -1.667       0.260
   full:        2.907      -1.879       0.254       8.823

 projected vibrational frequencies (cm⁻¹)
eigval :       -0.00    -0.00    -0.00     0.00     0.00     0.00
eigval :        9.67    16.04    22.27    36.51    41.66    43.77
eigval :       52.63    68.37    79.68    83.86    91.07   105.99
eigval :      108.93   118.93   126.99   129.48   136.13   143.04
eigval :      158.36   167.09   188.64   204.37   210.55   216.72
eigval :      226.96   237.84   242.46   260.08   273.43   279.47
eigval :      285.98   313.91   338.42   353.71   386.21   400.35
eigval :      404.57   414.52   432.89   445.64   473.14   482.83
eigval :      510.03   526.43   547.49   550.43   553.45   567.35
eigval :      569.88   577.24   606.42   625.90   636.91   650.59
eigval :      673.10   699.04   712.81   715.63   724.48   726.69
eigval :      732.70   758.84   783.66   797.15   821.27   822.25
eigval :      829.12   834.09   842.41   865.35   886.38   896.46
eigval :      897.61   934.01   938.22   946.40   953.96   979.41
eigval :      990.72  1003.21  1006.47  1012.90  1041.21  1046.21
eigval :     1058.28  1068.00  1073.79  1079.88  1081.97  1106.69
eigval :     1111.47  1115.91  1118.44  1119.93  1127.79  1132.05
eigval :     1136.37  1141.65  1149.67  1167.55  1174.23  1177.98
eigval :     1185.21  1204.70  1217.63  1220.00  1230.64  1242.42
eigval :     1255.46  1260.87  1267.25  1282.33  1287.28  1288.46
eigval :     1292.46  1294.53  1306.03  1315.16  1335.01  1346.87
eigval :     1348.50  1355.67  1360.12  1363.75  1372.13  1375.65
eigval :     1380.39  1392.82  1395.70  1401.62  1405.41  1413.60
eigval :     1424.22  1432.90  1435.32  1439.83  1451.18  1461.04
eigval :     1464.11  1466.92  1470.72  1485.53  1488.50  1493.68
eigval :     1495.30  1496.15  1501.07  1501.45  1502.89  1505.64
eigval :     1534.87  1567.31  2950.21  2952.45  2955.74  2959.03
eigval :     2963.03  2965.91  2967.87  2970.49  2972.93  2973.32
eigval :     2978.83  2980.23  2983.22  2989.50  2995.10  3002.38
eigval :     3010.82  3017.54  3022.59  3026.03  3028.01  3030.52
eigval :     3036.45  3074.74  3087.31  3088.23  3094.68  3099.90
eigval :     3101.52  3140.94  3395.64

   temp. (K)  partition function   enthalpy   heat capacity  entropy
                                   cal/mol     cal/K/mol   cal/K/mol   J/K/mol
 298.15  VIB  0.362E+15            18318.256    109.288    116.590
         ROT  0.255E+08              888.752      2.981     36.871
         INT  0.922E+22            19207.008    112.269    153.460
         TR   0.873E+28             1481.254      4.968     44.070
         TOT                       20688.2618   117.2374   197.5306   826.4682

       T/K    H(0)-H(T)+PV         H(T)/Eh          T*S/Eh         G(T)/Eh
   ------------------------------------------------------------------------
    298.15    0.329688E-01    0.544600E+00    0.938532E-01    0.450747E+00
   ------------------------------------------------------------------------

         :::::::::::::::::::::::::::::::::::::::::::::::::::::
         ::                  THERMODYNAMIC                  ::
         :::::::::::::::::::::::::::::::::::::::::::::::::::::
         :: total free energy         -91.706037113323 Eh   ::
         ::.................................................::
         :: total energy              -92.156783967161 Eh   ::
         :: zero point energy           0.511631194345 Eh   ::
         :: G(RRHO) w/o ZPVE           -0.060884340506 Eh   ::
         :: G(RRHO) contrib.            0.450746853839 Eh   ::
         :::::::::::::::::::::::::::::::::::::::::::::::::::::

           -------------------------------------------------
          | TOTAL ENERGY              -92.156783967161 Eh   |
          | TOTAL ENTHALPY            -91.612183929116 Eh   |
          | TOTAL FREE ENERGY         -91.706037113323 Eh   |
          | GRADIENT NORM               0.000077992425 Eh/α |
          | HOMO-LUMO GAP               0.051806731161 eV   |
           -------------------------------------------------

 * finished run on 2025/09/13 at 14:38:12.409
