   * xtb version 6.7.1 (edcfbbe) compiled by 'albert@albert-system' on 2024-07-22

   ID    Z sym.   atoms
    1    6 C      1-9, 11-20, 22-25, 27-32, 34-40
    2    7 N      10, 21, 26, 33
    3    1 H      41-64

          program call               : xtb data2507/gas/3-ACBPmCN/3-ACBPmCN_gas_S0_crest.xyz --gfn 2 --ohess vtight --parallel 40 --molden --ceasefiles --namespace data2507/gas/3-ACBPmCN/3-ACBPmCN_gas_S0_finalOpt
          :  Hamiltonian                  GFN2-xTB          :
 * total energy  :  -101.0482960 Eh     change       -0.1359908E-08 Eh
 * total energy  :  -101.0482969 Eh     change       -0.9569429E-06 Eh
 * total energy  :  -101.0482976 Eh     change       -0.7171441E-06 Eh
 * total energy  :  -101.0482987 Eh     change       -0.1052390E-05 Eh
 * total energy  :  -101.0482994 Eh     change       -0.7072278E-06 Eh
 * total energy  :  -101.0482999 Eh     change       -0.4849919E-06 Eh
 * total energy  :  -101.0483002 Eh     change       -0.3376161E-06 Eh
 * total energy  :  -101.0483006 Eh     change       -0.3925272E-06 Eh
 * total energy  :  -101.0483010 Eh     change       -0.4168883E-06 Eh
 * total energy  :  -101.0483013 Eh     change       -0.2748887E-06 Eh
 * total energy  :  -101.0483015 Eh     change       -0.1743961E-06 Eh
 * total energy  :  -101.0483016 Eh     change       -0.1221618E-06 Eh
 * total energy  :  -101.0483017 Eh     change       -0.8135940E-07 Eh
   *** GEOMETRY OPTIMIZATION CONVERGED AFTER 13 ITERATIONS ***

 final structure:
================
64
 xtb: 6.7.1 (edcfbbe)
C           -6.49865728195776       -1.51023986687274        0.80731399056324
C           -5.58564522567732       -0.48286909567385        0.11344108679557
C           -6.43141610550437        0.59943022696057       -0.58212451788306
C           -4.71658266924099        0.17669945265936        1.16669638039344
C           -5.31903626034275        0.87226825007857        2.20642031799921
C           -4.58560991877786        1.46491129196505        3.21687307246102
C           -3.20790918833243        1.34634592135681        3.20822532485352
C           -2.58377536373516        0.66204734111535        2.18672796694118
C           -3.32078012076109        0.09048736300575        1.14513199502327
N           -2.66494453537490       -0.58115504420046        0.12120312893956
C           -1.25046074913779       -0.64980736506114        0.13430676932227
C           -0.61178807610033       -1.86161223428959        0.40773160090402
C            0.76036325709591       -1.91307616049323        0.41759309691718
C            1.52421561713561       -0.76921097811637        0.16523619488914
C            0.89274882909824        0.46126846230555       -0.10495550417218
C           -0.50411154473140        0.48748117296329       -0.12063674770663
C            1.69718740836013        1.64946508476678       -0.35836972402929
C            1.12498577199741        2.89705191412261       -0.61579511813532
C            1.91601747454318        4.01276486088836       -0.85333992447966
C            1.30107458261259        5.25997140580675       -1.11104315826594
N            0.80364140214293        6.27133870462722       -1.32043259126034
C            3.31317692364548        3.91456972735096       -0.83987715700766
C            3.89003901628070        2.69592415275903       -0.58487740783483
C            3.10461637943567        1.56343016733494       -0.34310998728957
C            3.75490732772835        0.29955394463581       -0.07296619255070
N            5.07321242272147        0.24894571703254       -0.06795380062341
C            5.65696594779350       -0.92987427269062        0.18701239171557
C            7.06478788485513       -1.03073422064293        0.20240780075163
C            7.65502084291785       -2.23375619793359        0.46288242988613
C            6.87761620975106       -3.38072379215454        0.71760340578094
C            5.51391980628769       -3.31962990185081        0.71039839140879
C            4.86863194273900       -2.09255794432190        0.44475588139847
N            3.53049281118218       -2.02877762882882        0.43552517323117
C            2.96645358096164       -0.86228177094716        0.18344187880428
C           -3.35961767559397       -1.20488641419813       -0.90692311884011
C           -2.65521727874380       -1.82067146196693       -1.94581530387221
C           -3.31725638915967       -2.45847802861971       -2.97348573229118
C           -4.69980681464383       -2.48475174578577       -2.99070177932190
C           -5.39872799378375       -1.84728616960455       -1.98299208174646
C           -4.75764098890128       -1.19613543393835       -0.93767598878893
H           -7.12469752140067       -1.03131627816970        1.55498108941077
H           -5.89380117543864       -2.26862147451586        1.30115355863904
H           -7.14573686891555       -2.00317609695000        0.08712422554094
H           -7.08325135374225        0.16082413667207       -1.33243921621000
H           -5.77953899012991        1.31974072909690       -1.07300128281916
H           -7.04961692637950        1.13061541605565        0.13616027386818
H           -6.39491737073605        0.95482538891196        2.23513227003423
H           -5.08618888600733        2.00225839423522        4.00763569661808
H           -2.61453876022472        1.78233603451091        3.99802066441531
H           -1.50940520030564        0.56159138320903        2.20133879278115
H           -1.20504630890944       -2.74146637518855        0.60595315585150
H            1.28477061493445       -2.83209852212717        0.62575913734726
H           -1.04139036565949        1.39902352087865       -0.32923246342035
H            0.05410949231559        3.02366016547159       -0.63415600930254
H            3.91448912115390        4.79135693039389       -1.02706958019526
H            4.96181214959961        2.57750353880792       -0.56290720414088
H            7.64194272135177       -0.14075540850685        0.00511804424752
H            8.73169919217428       -2.31760214693966        0.47619335247602
H            7.37694385842824       -4.31675917801976        0.92022444413213
H            4.90086544430547       -4.18631517676344        0.90291311936261
H           -1.57642816826585       -1.79317956537427       -1.95147961573588
H           -2.74959776585985       -2.93043886685911       -3.76148945239744
H           -5.23021952727099       -2.98515549040244       -3.78631206070347
H           -6.47755306750265       -1.85833228087100       -2.01829578048000

          :  Hamiltonian                  GFN2-xTB          :
         :: gradient norm              0.000052558836 Eh/a0 ::
         :: HOMO-LUMO gap              0.956223729850 eV    ::
         :: SCC energy              -102.916784019875 Eh    ::
         :: -> dispersion             -0.090709206061 Eh    ::
         :: repulsion energy           1.868482349051 Eh    ::

    * Orbital Energies and Occupations

         #    Occupation            Energy/Eh            Energy/eV
      -------------------------------------------------------------
         1        2.0000           -0.6844023             -18.6235
       ...           ...                  ...                  ...
        82        2.0000           -0.4258870             -11.5890
        83        2.0000           -0.4238046             -11.5323
        84        2.0000           -0.4199212             -11.4266
        85        2.0000           -0.4147746             -11.2866
        86        2.0000           -0.4115529             -11.1989
        87        2.0000           -0.4081012             -11.1050
        88        2.0000           -0.4048994             -11.0179
        89        2.0000           -0.4036774             -10.9846
        90        2.0000           -0.4020842             -10.9413
        91        2.0000           -0.3984081             -10.8412
        92        2.0000           -0.3931792             -10.6990
        93        2.0000           -0.3594376              -9.7808
        94        2.0000           -0.3482412              -9.4761 (HOMO)
        95                         -0.3131006              -8.5199 (LUMO)
        96                         -0.2872803              -7.8173
        97                         -0.2702088              -7.3528
        98                         -0.2519396              -6.8556
        99                         -0.2303671              -6.2686
       100                         -0.2249663              -6.1216
       101                         -0.2217194              -6.0333
       102                         -0.2199332              -5.9847
       103                         -0.2186710              -5.9503
       104                         -0.2138794              -5.8200
       105                         -0.2095229              -5.7014
       ...                                ...                  ...
       184                          1.1674116              31.7669
      -------------------------------------------------------------
                  HL-Gap            0.0351405 Eh            0.9562 eV

     #   Z          covCN         q      C6AA      α(0)
     1   6 C        3.761    -0.103    22.514     6.764
     2   6 C        3.909     0.022    20.155     6.381
     3   6 C        3.761    -0.103    22.517     6.764
     4   6 C        2.980    -0.013    28.337     8.732
     5   6 C        2.928    -0.036    28.889     8.814
     6   6 C        2.917    -0.044    29.083     8.843
     7   6 C        2.920    -0.033    28.814     8.803
     8   6 C        2.924    -0.059    29.465     8.902
     9   6 C        2.927     0.058    26.709     8.475
    10   7 N        2.754    -0.070    22.600     7.061
    11   6 C        2.926     0.074    26.355     8.419
    12   6 C        2.919    -0.037    28.921     8.819
    13   6 C        2.923    -0.027    28.674     8.781
    14   6 C        2.988    -0.003    28.089     8.694
    15   6 C        2.976     0.007    27.865     8.659
    16   6 C        2.925    -0.044    29.093     8.845
    17   6 C        2.975     0.010    27.788     8.647
    18   6 C        2.931    -0.025    28.630     8.775
    19   6 C        2.972     0.021    27.527     8.606
    20   6 C        1.913     0.112    28.328     8.596
    21   7 N        0.911    -0.229    26.008     7.376
    22   6 C        2.923    -0.021    28.530     8.759
    23   6 C        2.923    -0.025    28.619     8.773
    24   6 C        2.988     0.005    27.898     8.664
    25   6 C        2.962     0.082    26.159     8.389
    26   7 N        1.848    -0.237    27.042     7.707
    27   6 C        2.968     0.083    26.138     8.386
    28   6 C        2.916    -0.038    28.949     8.823
    29   6 C        2.916    -0.025    28.634     8.775
    30   6 C        2.916    -0.025    28.622     8.773
    31   6 C        2.916    -0.038    28.956     8.824
    32   6 C        2.967     0.084    26.118     8.383
    33   7 N        1.848    -0.238    27.063     7.710
    34   6 C        2.961     0.084    26.126     8.384
    35   6 C        2.928     0.058    26.705     8.475
    36   6 C        2.924    -0.059    29.457     8.901
    37   6 C        2.920    -0.033    28.816     8.803
    38   6 C        2.917    -0.044    29.088     8.844
    39   6 C        2.928    -0.036    28.892     8.815
    40   6 C        2.980    -0.013    28.336     8.732
    41   1 H        0.925     0.040     2.455     2.450
    42   1 H        0.925     0.031     2.569     2.507
    43   1 H        0.925     0.040     2.455     2.450
    44   1 H        0.925     0.040     2.455     2.450
    45   1 H        0.925     0.032     2.563     2.504
    46   1 H        0.925     0.040     2.452     2.449
    47   1 H        0.926     0.031     2.572     2.508
    48   1 H        0.926     0.027     2.624     2.533
    49   1 H        0.926     0.028     2.621     2.532
    50   1 H        0.926     0.022     2.696     2.568
    51   1 H        0.926     0.048     2.342     2.393
    52   1 H        0.926     0.067     2.118     2.276
    53   1 H        0.926     0.047     2.359     2.402
    54   1 H        0.926     0.047     2.360     2.402
    55   1 H        0.926     0.047     2.361     2.403
    56   1 H        0.926     0.067     2.115     2.274
    57   1 H        0.926     0.054     2.270     2.356
    58   1 H        0.926     0.043     2.411     2.428
    59   1 H        0.926     0.043     2.410     2.428
    60   1 H        0.926     0.054     2.267     2.355
    61   1 H        0.926     0.023     2.682     2.561
    62   1 H        0.926     0.028     2.620     2.531
    63   1 H        0.926     0.027     2.630     2.536
    64   1 H        0.926     0.031     2.575     2.509

molecular dipole:
                 x           y           z       tot (Debye)
 q only:        0.495      -1.252       0.265
   full:        0.756      -1.654       0.351       4.707

 projected vibrational frequencies (cm⁻¹)
eigval :       -0.00    -0.00    -0.00     0.00     0.00     0.00
eigval :       10.24    16.71    19.54    32.92    43.38    54.63
eigval :       78.90    83.53    85.85    95.72   101.52   113.20
eigval :      121.31   127.75   146.82   172.62   183.81   189.42
eigval :      208.66   218.82   234.59   239.88   248.49   288.16
eigval :      290.06   305.75   318.37   332.12   340.62   345.10
eigval :      364.10   371.97   377.40   382.15   397.93   410.03
eigval :      416.99   435.98   444.38   449.53   452.66   483.42
eigval :      485.98   496.25   514.90   519.50   538.44   539.87
eigval :      544.99   547.47   573.16   577.46   584.47   593.09
eigval :      593.39   630.24   633.81   646.14   653.22   670.12
eigval :      682.95   693.84   694.70   698.70   715.05   737.02
eigval :      758.26   767.54   771.48   777.07   778.22   821.66
eigval :      823.31   831.26   834.28   856.33   862.24   867.50
eigval :      867.79   876.92   877.34   878.29   913.47   914.36
eigval :      915.55   916.20   921.47   921.74   924.07   928.01
eigval :      930.59   938.49   957.40   962.25   989.64  1014.52
eigval :     1047.29  1054.23  1063.86  1077.17  1088.58  1115.13
eigval :     1120.55  1141.34  1141.82  1143.64  1146.85  1160.37
eigval :     1170.10  1171.69  1186.58  1188.78  1189.21  1193.92
eigval :     1219.67  1225.88  1237.67  1244.63  1251.14  1260.53
eigval :     1269.02  1279.26  1292.17  1295.47  1311.65  1315.94
eigval :     1317.24  1325.93  1334.10  1339.60  1341.12  1345.44
eigval :     1373.42  1395.75  1402.97  1403.25  1421.45  1429.33
eigval :     1436.31  1442.04  1443.46  1454.74  1479.71  1480.92
eigval :     1489.93  1490.24  1490.90  1496.06  1500.60  1503.89
eigval :     1505.28  1528.34  1548.06  1550.89  1575.36  1576.20
eigval :     1587.64  1591.66  1593.31  1602.62  1606.96  2374.73
eigval :     3026.43  3028.73  3040.08  3042.81  3048.99  3053.10
eigval :     3079.07  3079.32  3080.45  3083.98  3084.30  3088.37
eigval :     3093.47  3094.41  3094.65  3094.98  3100.37  3100.54
eigval :     3100.98  3101.66  3102.99  3112.23  3112.71  3112.91

   temp. (K)  partition function   enthalpy   heat capacity  entropy
                                   cal/mol     cal/K/mol   cal/K/mol   J/K/mol
 298.15  VIB  0.189E+14            18139.616    117.451    111.063
         ROT  0.483E+08              888.752      2.981     38.142
         INT  0.913E+21            19028.368    120.431    149.205
         TR   0.112E+29             1481.254      4.968     44.569
         TOT                       20509.6220   125.3996   193.7744   810.7523

       T/K    H(0)-H(T)+PV         H(T)/Eh          T*S/Eh         G(T)/Eh
   ------------------------------------------------------------------------
    298.15    0.326842E-01    0.520982E+00    0.920685E-01    0.428914E+00
   ------------------------------------------------------------------------

         :::::::::::::::::::::::::::::::::::::::::::::::::::::
         ::                  THERMODYNAMIC                  ::
         :::::::::::::::::::::::::::::::::::::::::::::::::::::
         :: total free energy        -100.619387736351 Eh   ::
         ::.................................................::
         :: total energy             -101.048301670822 Eh   ::
         :: zero point energy           0.488298264102 Eh   ::
         :: G(RRHO) w/o ZPVE           -0.059384329632 Eh   ::
         :: G(RRHO) contrib.            0.428913934470 Eh   ::
         :::::::::::::::::::::::::::::::::::::::::::::::::::::

           -------------------------------------------------
          | TOTAL ENERGY             -101.048301670822 Eh   |
          | TOTAL ENTHALPY           -100.527319243623 Eh   |
          | TOTAL FREE ENERGY        -100.619387736351 Eh   |
          | GRADIENT NORM               0.000052680187 Eh/α |
          | HOMO-LUMO GAP               0.956222857453 eV   |
           -------------------------------------------------

 * finished run on 2025/07/20 at 00:23:53.811
