   * xtb version 6.7.1 (edcfbbe) compiled by 'albert@albert-system' on 2024-07-22

   ID    Z sym.   atoms
    1    6 C      1-9, 11-20, 22-25, 27-32, 34-40
    2    7 N      10, 21, 26, 33
    3    1 H      41-64

          program call               : xtb data2507/gas/3-ACBPmCN/3-ACBPmCN_gas_S0_finalOpt.xtbopt.xyz --gfn 2 --spinpol --tblite --uhf 2 --ohess vtight --parallel 40 --molden --ceasefiles --namespace data2507/gas/3-ACBPmCN/3-ACBPmCN_gas_T1_preOpt
 * total energy  :  -101.0035090 Eh     change        0.4747932E-08 Eh
 * total energy  :  -101.0066382 Eh     change       -0.3129238E-02 Eh
 * total energy  :  -101.0075984 Eh     change       -0.9601596E-03 Eh
 * total energy  :  -101.0075978 Eh     change        0.5505599E-06 Eh
 * total energy  :  -101.0077652 Eh     change       -0.1674239E-03 Eh
 * total energy  :  -101.0077755 Eh     change       -0.1023945E-04 Eh
 * total energy  :  -101.0077791 Eh     change       -0.3644916E-05 Eh
 * total energy  :  -101.0077830 Eh     change       -0.3850318E-05 Eh
 * total energy  :  -101.0077896 Eh     change       -0.6646274E-05 Eh
 * total energy  :  -101.0077942 Eh     change       -0.4574779E-05 Eh
 * total energy  :  -101.0078917 Eh     change       -0.9689636E-06 Eh
 * total energy  :  -101.0078928 Eh     change       -0.1020959E-05 Eh
 * total energy  :  -101.0078938 Eh     change       -0.1037453E-05 Eh
 * total energy  :  -101.0078947 Eh     change       -0.9356358E-06 Eh
 * total energy  :  -101.0078956 Eh     change       -0.8730919E-06 Eh
 * total energy  :  -101.0078963 Eh     change       -0.7382361E-06 Eh
 * total energy  :  -101.0078971 Eh     change       -0.7977642E-06 Eh
 * total energy  :  -101.0078978 Eh     change       -0.6792961E-06 Eh
 * total energy  :  -101.0078979 Eh     change       -0.5852498E-07 Eh
   *** GEOMETRY OPTIMIZATION CONVERGED AFTER 44 ITERATIONS ***

 final structure:
================
64
 xtb: 6.7.1 (edcfbbe)
C           -6.51925285069162       -1.54068321940420        0.73939115781649
C           -5.59090481245562       -0.47784619415876        0.12276006661595
C           -6.42230746860290        0.64761830915911       -0.52049013164996
C           -4.73762123520507        0.11559743621596        1.22585248110647
C           -5.34965653137621        0.74957172046735        2.29842152980886
C           -4.62307395709734        1.28946222454792        3.34330720934133
C           -3.24255840327622        1.18753877760283        3.33370678990207
C           -2.60794499509901        0.56534041365035        2.28087752420301
C           -3.33944466847144        0.03668666736151        1.21113950525017
N           -2.67433451969399       -0.57133641553249        0.16085269415309
C           -1.25315975597396       -0.62531776221017        0.17972260784787
C           -0.60859063115709       -1.82000056889208        0.52760069645464
C            0.75926142019977       -1.86538449406136        0.53470154571150
C            1.52299847948555       -0.73208899419597        0.20854946715884
C            0.88031053026257        0.48135877111568       -0.13235043450438
C           -0.52103504639991        0.49616103648588       -0.14402472733877
C            1.67779863295929        1.64081633700703       -0.45387614280705
C            1.11607977583683        2.87856690422613       -0.77840643732652
C            1.91070141867322        3.97261663332119       -1.08095818400744
C            1.30746105136733        5.20693926131073       -1.40159779817300
N            0.81622414878900        6.21095336345655       -1.66201624694031
C            3.31427970531046        3.86022744288562       -1.06910236176855
C            3.88357618997914        2.65978183263914       -0.75209403031929
C            3.09260861904087        1.53757537710326       -0.43927291086595
C            3.73642115449508        0.31001248830363       -0.10763857437049
N            5.05805578563020        0.20468432929069       -0.09710503419271
C            5.68113883630810       -0.93270962937613        0.20978472631786
C            7.06881027968378       -1.05360446612771        0.22240515380646
C            7.67314932990120       -2.25403772419534        0.54551493580438
C            6.90412055720773       -3.36421056850833        0.86501253032985
C            5.52384654863865       -3.28121904291627        0.86445861133951
C            4.88046500681279       -2.08931719847328        0.54448152892765
N            3.55081958075190       -1.96642680410835        0.53419421105768
C            2.94926403406859       -0.83173138581894        0.22370265850187
C           -3.35003016492889       -1.14232761727179       -0.90302383527691
C           -2.62559717025000       -1.72343358373457       -1.95020694712387
C           -3.27072796491510       -2.30985479827050       -3.01711220147156
C           -4.65416412092481       -2.32156712665811       -3.06422032084260
C           -5.37217967414309       -1.72964155916896       -2.04173450931578
C           -4.74941743527669       -1.13139578173844       -0.95499384060677
H           -7.15176837219530       -1.10457317310108        1.50730245254695
H           -5.92601389163082       -2.33293724344598        1.19227268435206
H           -7.16013859831039       -1.98235784643543       -0.01835622916583
H           -7.06044945262812        0.25651616222240       -1.30781983689802
H           -5.76100685232598        1.39529393839118       -0.95430934511197
H           -7.05261625980420        1.13456450153072        0.21817294762650
H           -6.42587145090487        0.82651404297334        2.32549938281635
H           -5.13096144710150        1.77848475796566        4.16017495445004
H           -2.65794483091489        1.59085062886849        4.14660396618118
H           -1.53237489029666        0.48103591775475        2.28411581701811
H           -1.19946119655056       -2.68710381650526        0.78061008641346
H            1.28638285215489       -2.77048684141730        0.79413277988296
H           -1.06133633954190        1.39232555709418       -0.40535264042642
H            0.04545784107959        3.01016928923575       -0.79748804309691
H            3.91952166937844        4.72156302941421       -1.30823237186055
H            4.95594023734513        2.54039431823267       -0.73151211304675
H            7.65604503192305       -0.18378393880150       -0.02783086644044
H            8.75013708647923       -2.32457443191154        0.54784498966674
H            7.38212291811123       -4.29876539855745        1.11570789160617
H            4.91424541096290       -4.13687355293377        1.11034989240602
H           -1.54715970484609       -1.70888368119345       -1.92453898938599
H           -2.69188430602910       -2.75488694712067       -3.81220285986489
H           -5.17054495501269       -2.78027450921139       -3.89329601010872
H           -6.44996544024849       -1.73544834048419       -2.09874787866259

 projected vibrational frequencies (cm⁻¹)
eigval :       -0.00    -0.00    -0.00     0.00     0.00     0.00
eigval :        6.75    17.20    18.81    35.36    42.98    58.75
eigval :       80.34    84.51    85.44    94.20    98.58   111.21
eigval :      122.33   127.62   146.71   175.32   181.42   190.25
eigval :      197.58   217.98   232.57   239.58   246.23   279.44
eigval :      286.38   303.74   318.86   329.43   333.34   342.73
eigval :      366.01   370.79   375.07   382.47   401.37   409.78
eigval :      414.84   431.67   448.79   449.65   451.22   479.09
eigval :      490.43   501.38   511.01   512.49   535.70   537.09
eigval :      541.83   545.66   569.80   575.79   580.37   588.56
eigval :      589.38   623.42   623.74   629.75   638.64   653.92
eigval :      677.76   684.59   685.06   694.02   696.44   711.37
eigval :      722.06   752.29   760.97   774.93   776.40   815.79
eigval :      818.71   821.47   824.31   828.63   849.16   855.84
eigval :      864.98   866.90   867.54   870.81   879.94   905.44
eigval :      913.81   914.40   914.59   915.13   916.10   921.48
eigval :      921.66   937.65   939.78   957.12   985.40  1013.24
eigval :     1039.22  1061.90  1073.81  1076.53  1087.91  1111.76
eigval :     1117.43  1127.85  1140.12  1141.62  1146.42  1156.49
eigval :     1167.97  1169.66  1184.72  1185.74  1189.90  1190.85
eigval :     1223.92  1226.77  1235.23  1241.58  1247.35  1249.02
eigval :     1253.58  1263.94  1271.68  1291.76  1294.30  1302.71
eigval :     1308.03  1323.87  1324.09  1334.91  1335.23  1347.03
eigval :     1356.95  1362.15  1399.01  1401.18  1408.59  1417.38
eigval :     1419.49  1427.23  1434.51  1435.29  1459.18  1466.76
eigval :     1469.29  1482.20  1486.73  1487.10  1487.74  1497.40
eigval :     1501.58  1505.23  1530.18  1537.66  1550.84  1566.63
eigval :     1569.84  1577.74  1583.29  1585.98  1597.39  2360.90
eigval :     3027.31  3029.19  3042.06  3044.55  3049.84  3053.87
eigval :     3082.72  3083.06  3085.27  3087.62  3087.81  3090.06
eigval :     3090.47  3091.16  3096.61  3097.39  3097.99  3098.59
eigval :     3102.33  3102.78  3103.12  3104.37  3104.78  3108.72

   temp. (K)  partition function   enthalpy   heat capacity  entropy
                                   cal/mol     cal/K/mol   cal/K/mol   J/K/mol
 298.15  VIB  0.301E+14            18282.827    118.599    112.253
         ROT  0.485E+08              888.752      2.981     38.150
         INT  0.146E+22            19171.579    121.580    150.402
         TR   0.112E+29             1481.254      4.968     44.569
         TOT                       20652.8334   126.5485   194.9715   815.7609

       T/K    H(0)-H(T)+PV         H(T)/Eh          T*S/Eh         G(T)/Eh
   ------------------------------------------------------------------------
    298.15    0.329124E-01    0.518761E+00    0.926373E-01    0.426124E+00
   ------------------------------------------------------------------------

         :::::::::::::::::::::::::::::::::::::::::::::::::::::
         ::                  THERMODYNAMIC                  ::
         :::::::::::::::::::::::::::::::::::::::::::::::::::::
         :: total free energy        -100.581773678596 Eh   ::
         ::.................................................::
         :: total energy             -101.007897878924 Eh   ::
         :: zero point energy           0.485849083404 Eh   ::
         :: G(RRHO) w/o ZPVE           -0.059724883075 Eh   ::
         :: G(RRHO) contrib.            0.426124200329 Eh   ::
         :::::::::::::::::::::::::::::::::::::::::::::::::::::

           -------------------------------------------------
          | TOTAL ENERGY             -101.007897878924 Eh   |
          | TOTAL ENTHALPY           -100.489136410525 Eh   |
          | TOTAL FREE ENERGY        -100.581773678596 Eh   |
          | GRADIENT NORM               0.000082828574 Eh/α |
           -------------------------------------------------

 * finished run on 2025/07/20 at 00:24:00.560
