   * xtb version 6.7.1 (edcfbbe) compiled by 'albert@albert-system' on 2024-07-22

   ID    Z sym.   atoms
    1    6 C      1-9, 11-20, 22-25, 27-32, 34-40
    2    7 N      10, 21, 26, 33
    3    1 H      41-64

          program call               : xtb data2507/gas/3-ACBPmCN/3-ACBPmCN.xyz --gfn 2 --ohess vtight --parallel 40 --molden --ceasefiles --namespace data2507/gas/3-ACBPmCN/3-ACBPmCN_gas_S0_preOpt
          :  Hamiltonian                  GFN2-xTB          :
 * total energy  :  -101.0227862 Eh     change       -0.2434064E-08 Eh
 * total energy  :  -101.0414818 Eh     change       -0.1869560E-01 Eh
 * total energy  :  -101.0467928 Eh     change       -0.5311047E-02 Eh
 * total energy  :  -101.0475481 Eh     change       -0.7553300E-03 Eh
 * total energy  :  -101.0478848 Eh     change       -0.3366794E-03 Eh
 * total energy  :  -101.0475369 Eh     change        0.3478991E-03 Eh
 * total energy  :  -101.0480278 Eh     change       -0.4908499E-03 Eh
 * total energy  :  -101.0480466 Eh     change       -0.1881847E-04 Eh
 * total energy  :  -101.0480588 Eh     change       -0.1219498E-04 Eh
 * total energy  :  -101.0480635 Eh     change       -0.4722454E-05 Eh
 * total energy  :  -101.0480670 Eh     change       -0.2809008E-06 Eh
 * total energy  :  -101.0480673 Eh     change       -0.2483762E-06 Eh
 * total energy  :  -101.0480675 Eh     change       -0.2479050E-06 Eh
 * total energy  :  -101.0480678 Eh     change       -0.2738685E-06 Eh
 * total energy  :  -101.0480681 Eh     change       -0.2888727E-06 Eh
 * total energy  :  -101.0480683 Eh     change       -0.2717805E-06 Eh
 * total energy  :  -101.0480685 Eh     change       -0.2026953E-06 Eh
 * total energy  :  -101.0480686 Eh     change       -0.1061945E-06 Eh
 * total energy  :  -101.0480686 Eh     change       -0.1165361E-08 Eh
   *** GEOMETRY OPTIMIZATION CONVERGED AFTER 22 ITERATIONS ***

 final structure:
================
64
 xtb: 6.7.1 (edcfbbe)
C           -5.98375941376625       -1.59876687941482        0.00006899318386
C           -5.05939364214525       -0.36763124365054       -0.00000976663391
C           -5.89434892887775        0.92586096098993       -0.00010212376390
C           -4.21104778724170       -0.39759724259357        1.25751187607757
C           -4.82770835023219       -0.37970096283862        2.50081487740332
C           -4.10520253826107       -0.40546363367735        3.67951527897115
C           -2.72404060067255       -0.45047735627725        3.62613432138374
C           -2.08480468215569       -0.46859823167744        2.40435292945433
C           -2.81402720738239       -0.44248347403166        1.21236236056055
N           -2.14339975562120       -0.46002588242596        0.00001227700197
C           -0.72301650613980       -0.50725995267528        0.00002006716789
C           -0.06648884498077       -1.73845708531051        0.00001823980870
C            1.30718802460726       -1.76679670435763        0.00003133874251
C            2.04890613690987       -0.58172601985602        0.00003709733081
C            1.39691370339682        0.66730418314048        0.00002015542129
C           -0.00107207393406        0.67160200761943        0.00002128523296
C            2.18030393489902        1.89578628311513       -0.00000455203916
C            1.58587666471492        3.15943851911573       -0.00005940416660
C            2.35693740816786        4.31369688330020       -0.00009459558612
C            1.71991306498662        5.57646241847175       -0.00019822498731
N            1.20464408172681        6.60046010417859       -0.00025339973200
C            3.75562691464648        4.23917405336279       -0.00007017779452
C            4.35422057509183        3.00441949885243       -0.00002714363608
C            3.58899576748569        1.83294979277313        0.00000146206674
C            4.26123178341574        0.55191013911107        0.00002637771436
N            5.58041303720159        0.52388941587075        0.00000397825430
C            6.18477034320735       -0.67163105930184        0.00002443448642
C            7.59432062459601       -0.74918535178600       -0.00001891670663
C            8.20543957847442       -1.96971738381504        0.00001295191030
C            7.44831088762068       -3.15796468855008        0.00009692086741
C            6.08379015552506       -3.12035790304273        0.00013674932428
C            5.41709071115303       -1.87607364584296        0.00009083439753
N            4.07804734230458       -1.83440065850151        0.00009807208188
C            3.49377895910027       -0.65123719098334        0.00005591082828
C           -2.81401439242620       -0.44264379529307       -1.21234736300446
C           -2.08477801316147       -0.46889437773771       -2.40432647784377
C           -2.72400026108289       -0.45094078746708       -3.62611737456612
C           -4.10516228716247       -0.40595435518706       -3.67951960151654
C           -4.82768152432784       -0.38004368177453       -2.50083054257778
C           -4.21103466032398       -0.39777121919172       -1.25751823576341
H           -6.62051371046660       -1.60619931583351        0.88032476208450
H           -5.38725761375735       -2.50927874261547        0.00011878762569
H           -6.62052786720593       -1.60630357440260       -0.88017611472402
H           -6.52882975295692        0.97836835579028        0.88030003473594
H           -6.52879764579712        0.97826311558969       -0.88053348856001
H           -5.23523746409492        1.79208638657262       -0.00014211102582
H           -5.90513596518184       -0.34420025390869        2.55823066252238
H           -4.61747725703507       -0.39040656357753        4.62934621942826
H           -2.14039563632100       -0.47151311831116        4.53441783925231
H           -1.00632704912030       -0.50447060000444        2.36912528970712
H           -0.64558569024836       -2.64933615949012        0.00000954498696
H            1.84884146910646       -2.69932414348915        0.00004089605556
H           -0.55676280679554        1.59574177056946        0.00001662602506
H            0.51295344412421        3.26824840496985       -0.00008821344049
H            4.34121353006689        5.14605123134201       -0.00008776260675
H            5.42793136371249        2.90282061319472        0.00001053355466
H            8.15561341212471        0.17222857552452       -0.00007723516925
H            9.28340910978759       -2.03604338686341       -0.00002725346323
H            7.96414902312784       -4.10685490460948        0.00012221392015
H            5.48617647850179       -4.01861044356967        0.00019661259651
H           -1.00629995313071       -0.50473652786521       -2.36908278908773
H           -2.14034421464771       -0.47207975745704       -4.53439134721758
H           -4.61742641615929       -0.39103524021072       -4.62935837537438
H           -5.90510901697007       -0.34456621398452       -2.55826322117975

          :  Hamiltonian                  GFN2-xTB          :
         :: gradient norm              0.000023685830 Eh/a0 ::
         :: HOMO-LUMO gap              0.856108997463 eV    ::
         :: SCC energy              -102.917068580697 Eh    ::
         :: -> dispersion             -0.090525946689 Eh    ::
         :: repulsion energy           1.868999936060 Eh    ::

    * Orbital Energies and Occupations

         #    Occupation            Energy/Eh            Energy/eV
      -------------------------------------------------------------
         1        2.0000           -0.6861145             -18.6701
       ...           ...                  ...                  ...
        82        2.0000           -0.4251924             -11.5701
        83        2.0000           -0.4249836             -11.5644
        84        2.0000           -0.4212632             -11.4632
        85        2.0000           -0.4160169             -11.3204
        86        2.0000           -0.4105981             -11.1729
        87        2.0000           -0.4066219             -11.0647
        88        2.0000           -0.4059849             -11.0474
        89        2.0000           -0.4031335             -10.9698
        90        2.0000           -0.4023637             -10.9489
        91        2.0000           -0.3971057             -10.8058
        92        2.0000           -0.3918507             -10.6628
        93        2.0000           -0.3610532              -9.8248
        94        2.0000           -0.3461379              -9.4189 (HOMO)
        95        0.0000           -0.3146764              -8.5628 (LUMO)
        96                         -0.2887031              -7.8560
        97                         -0.2717894              -7.3958
        98                         -0.2532043              -6.8900
        99                         -0.2316443              -6.3034
       100                         -0.2232850              -6.0759
       101                         -0.2228408              -6.0638
       102                         -0.2182087              -5.9378
       103                         -0.2173469              -5.9143
       104                         -0.2149553              -5.8492
       105                         -0.2103418              -5.7237
       ...                                ...                  ...
       184                          1.1666290              31.7456
      -------------------------------------------------------------
                  HL-Gap            0.0314614 Eh            0.8561 eV

     #   Z          covCN         q      C6AA      α(0)
     1   6 C        3.761    -0.103    22.512     6.764
     2   6 C        3.909     0.021    20.155     6.381
     3   6 C        3.761    -0.103    22.511     6.764
     4   6 C        2.979    -0.014    28.357     8.735
     5   6 C        2.928    -0.036    28.891     8.815
     6   6 C        2.917    -0.045    29.107     8.847
     7   6 C        2.920    -0.033    28.817     8.803
     8   6 C        2.924    -0.059    29.473     8.903
     9   6 C        2.929     0.058    26.697     8.474
    10   7 N        2.756    -0.074    22.681     7.073
    11   6 C        2.927     0.076    26.307     8.411
    12   6 C        2.918    -0.036    28.889     8.814
    13   6 C        2.924    -0.026    28.657     8.779
    14   6 C        2.988    -0.002    28.056     8.689
    15   6 C        2.976     0.007    27.848     8.656
    16   6 C        2.925    -0.042    29.055     8.840
    17   6 C        2.975     0.010    27.783     8.646
    18   6 C        2.931    -0.025    28.624     8.774
    19   6 C        2.972     0.022    27.518     8.605
    20   6 C        1.913     0.112    28.326     8.595
    21   7 N        0.911    -0.228    25.987     7.373
    22   6 C        2.923    -0.021    28.524     8.758
    23   6 C        2.923    -0.025    28.616     8.772
    24   6 C        2.988     0.005    27.894     8.664
    25   6 C        2.962     0.083    26.156     8.389
    26   7 N        1.849    -0.236    27.024     7.705
    27   6 C        2.968     0.084    26.129     8.384
    28   6 C        2.916    -0.038    28.944     8.822
    29   6 C        2.916    -0.025    28.624     8.773
    30   6 C        2.916    -0.025    28.615     8.772
    31   6 C        2.916    -0.038    28.948     8.823
    32   6 C        2.967     0.084    26.116     8.382
    33   7 N        1.848    -0.236    27.031     7.705
    34   6 C        2.962     0.084    26.120     8.383
    35   6 C        2.929     0.058    26.697     8.474
    36   6 C        2.924    -0.059    29.473     8.903
    37   6 C        2.920    -0.033    28.817     8.803
    38   6 C        2.917    -0.045    29.107     8.847
    39   6 C        2.928    -0.036    28.891     8.815
    40   6 C        2.979    -0.014    28.357     8.735
    41   1 H        0.925     0.039     2.460     2.452
    42   1 H        0.925     0.031     2.573     2.509
    43   1 H        0.925     0.039     2.460     2.452
    44   1 H        0.925     0.039     2.458     2.452
    45   1 H        0.925     0.039     2.458     2.452
    46   1 H        0.925     0.031     2.569     2.506
    47   1 H        0.926     0.030     2.584     2.514
    48   1 H        0.926     0.026     2.640     2.541
    49   1 H        0.926     0.027     2.634     2.538
    50   1 H        0.926     0.020     2.734     2.586
    51   1 H        0.926     0.049     2.329     2.387
    52   1 H        0.926     0.068     2.107     2.270
    53   1 H        0.926     0.048     2.351     2.398
    54   1 H        0.926     0.047     2.354     2.399
    55   1 H        0.926     0.047     2.355     2.400
    56   1 H        0.926     0.068     2.112     2.273
    57   1 H        0.926     0.055     2.264     2.353
    58   1 H        0.926     0.043     2.403     2.424
    59   1 H        0.926     0.044     2.402     2.424
    60   1 H        0.926     0.055     2.260     2.351
    61   1 H        0.926     0.020     2.734     2.586
    62   1 H        0.926     0.027     2.634     2.538
    63   1 H        0.926     0.026     2.640     2.541
    64   1 H        0.926     0.030     2.584     2.514

molecular dipole:
                 x           y           z       tot (Debye)
 q only:        0.734      -1.256       0.000
   full:        1.008      -1.664       0.000       4.944

 projected vibrational frequencies (cm⁻¹)
eigval :       -0.00    -0.00    -0.00     0.00     0.00     0.00
eigval :       -9.22    16.66    17.66    32.44    39.82    53.71
eigval :       72.24    82.97    85.88    96.64    97.39   111.35
eigval :      118.06   129.00   147.15   170.56   182.80   190.57
eigval :      206.75   219.61   230.98   237.95   243.08   288.01
eigval :      289.50   304.53   317.96   330.52   340.63   344.08
eigval :      362.41   371.86   376.12   382.16   396.28   409.29
eigval :      417.49   435.67   444.20   448.97   449.05   483.97
eigval :      484.04   494.06   515.43   519.12   538.38   539.70
eigval :      541.14   547.53   573.09   577.60   584.27   592.82
eigval :      592.94   630.11   633.95   646.73   653.70   669.99
eigval :      681.72   692.85   695.65   698.81   715.17   737.52
eigval :      758.65   767.48   771.98   776.11   777.41   820.78
eigval :      821.75   831.09   832.03   856.65   861.29   864.39
eigval :      865.06   874.05   877.21   877.60   912.76   913.60
eigval :      915.89   917.33   920.95   920.97   924.13   925.61
eigval :      930.86   938.58   957.17   962.24   989.47  1014.32
eigval :     1047.01  1054.05  1063.71  1077.39  1088.73  1113.09
eigval :     1119.15  1140.14  1141.03  1143.50  1146.69  1160.69
eigval :     1169.97  1170.51  1186.62  1187.63  1188.12  1192.97
eigval :     1219.56  1225.99  1236.98  1244.12  1249.74  1260.07
eigval :     1269.06  1279.18  1292.05  1294.63  1311.50  1315.25
eigval :     1318.04  1326.06  1335.27  1340.24  1344.51  1346.41
eigval :     1373.34  1394.72  1402.83  1403.44  1420.95  1429.37
eigval :     1437.07  1443.32  1444.76  1453.95  1480.73  1482.35
eigval :     1490.03  1490.49  1490.92  1497.67  1500.66  1505.52
eigval :     1505.71  1528.78  1548.45  1552.24  1576.24  1576.77
eigval :     1588.83  1592.37  1593.43  1603.10  1607.10  2374.88
eigval :     3026.35  3028.52  3039.56  3042.27  3048.38  3052.30
eigval :     3077.79  3077.91  3080.87  3082.48  3082.58  3088.75
eigval :     3091.27  3091.51  3094.73  3095.42  3097.95  3098.74
eigval :     3100.87  3102.50  3103.32  3112.76  3112.85  3113.25

   temp. (K)  partition function   enthalpy   heat capacity  entropy
                                   cal/mol     cal/K/mol   cal/K/mol   J/K/mol
 298.15  VIB  0.308E+14            18196.421    117.396    111.714
         ROT  0.483E+08              888.752      2.981     38.140
         INT  0.149E+22            19085.173    120.376    149.854
         TR   0.112E+29             1481.254      4.968     44.569
         TOT                       20566.4269   125.3446   194.4235   813.4680

       T/K    H(0)-H(T)+PV         H(T)/Eh          T*S/Eh         G(T)/Eh
   ------------------------------------------------------------------------
    298.15    0.327747E-01    0.520876E+00    0.923769E-01    0.428499E+00
   ------------------------------------------------------------------------

         :::::::::::::::::::::::::::::::::::::::::::::::::::::
         ::                  THERMODYNAMIC                  ::
         :::::::::::::::::::::::::::::::::::::::::::::::::::::
         :: total free energy        -100.619569812477 Eh   ::
         ::.................................................::
         :: total energy             -101.048068644644 Eh   ::
         :: zero point energy           0.488101037293 Eh   ::
         :: G(RRHO) w/o ZPVE           -0.059602205125 Eh   ::
         :: G(RRHO) contrib.            0.428498832168 Eh   ::
         :::::::::::::::::::::::::::::::::::::::::::::::::::::

           -------------------------------------------------
          | TOTAL ENERGY             -101.048068644644 Eh   |
          | TOTAL ENTHALPY           -100.527192919866 Eh   |
          | TOTAL FREE ENERGY        -100.619569812477 Eh   |
          | GRADIENT NORM               0.000023694087 Eh/α |
          | HOMO-LUMO GAP               0.856109047673 eV   |
           -------------------------------------------------

 * finished run on 2025/07/20 at 00:20:52.548
