   * xtb version 6.7.1 (edcfbbe) compiled by 'albert@albert-system' on 2024-07-22

   ID    Z sym.   atoms
    1    6 C      1-9, 11-20, 22-25, 27-32, 34-40
    2    7 N      10, 21, 26, 33
    3    1 H      41-64

          program call               : xtb data2507/gas/3-ACBPmCN/3-ACBPmCN_gas_T1_crest.xyz --gfn 2 --spinpol --tblite --uhf 2 --ohess vtight --parallel 40 --molden --ceasefiles --namespace data2507/gas/3-ACBPmCN/3-ACBPmCN_gas_T1_finalOpt
 * total energy  :  -101.0078988 Eh     change       -0.1357989E-08 Eh
 * total energy  :  -101.0079213 Eh     change       -0.2249994E-04 Eh
 * total energy  :  -101.0079232 Eh     change       -0.1929682E-05 Eh
 * total energy  :  -101.0079216 Eh     change        0.1575217E-05 Eh
 * total energy  :  -101.0079271 Eh     change       -0.5504496E-05 Eh
 * total energy  :  -101.0079275 Eh     change       -0.3679838E-06 Eh
 * total energy  :  -101.0079273 Eh     change        0.1960738E-06 Eh
 * total energy  :  -101.0079279 Eh     change       -0.6140102E-06 Eh
 * total energy  :  -101.0079283 Eh     change       -0.3776230E-06 Eh
 * total energy  :  -101.0079289 Eh     change       -0.5906982E-06 Eh
 * total energy  :  -101.0079324 Eh     change       -0.3781548E-06 Eh
 * total energy  :  -101.0079327 Eh     change       -0.3420818E-06 Eh
 * total energy  :  -101.0079331 Eh     change       -0.3630491E-06 Eh
 * total energy  :  -101.0079334 Eh     change       -0.2965038E-06 Eh
 * total energy  :  -101.0079334 Eh     change        0.2250871E-08 Eh
 * total energy  :  -101.0079333 Eh     change        0.4005982E-07 Eh
 * total energy  :  -101.0079333 Eh     change        0.1430614E-07 Eh
 * total energy  :  -101.0079334 Eh     change       -0.1271433E-06 Eh
 * total energy  :  -101.0079335 Eh     change       -0.3800892E-07 Eh
   *** GEOMETRY OPTIMIZATION CONVERGED AFTER 26 ITERATIONS ***

 final structure:
================
64
 xtb: 6.7.1 (edcfbbe)
C           -6.52282262926380       -1.69587087594673       -0.26416245243944
C           -5.58670805356297       -0.49243782752600       -0.04730960622522
C           -6.41013568571487        0.78993514459748        0.17432877540548
C           -4.74601817131315       -0.74684834702548        1.18804931988513
C           -5.36755643836610       -0.93924602344207        2.41405348508719
C           -4.64847613907011       -1.16627544023779        3.57305300393826
C           -3.26549229722377       -1.19938903908034        3.51952539238382
C           -2.62120541539710       -1.01122035587126        2.31628399145559
C           -3.34699824496932       -0.78903905820033        1.14047265293169
N           -2.67228514302673       -0.60653892197477       -0.05226931842847
C           -1.24936939115899       -0.65978419766442       -0.05328531570510
C           -0.60096853940771       -1.89787970694893       -0.14893724194349
C            0.76733196716138       -1.93772517136333       -0.14903379945006
C            1.52590799382897       -0.75872969575144       -0.05739036990010
C            0.87823691595379        0.49559460969272        0.03798760022091
C           -0.52333254455655        0.50704658478822        0.03902482761808
C            1.67044176688233        1.69856825519253        0.13063893776231
C            1.10296016390735        2.97227742408699        0.22298480891451
C            1.89246107852697        4.10747000364313        0.31119406294373
C            1.28273022218244        5.37639269529247        0.40283552417409
N            0.78540802753718        6.40805224526692        0.47688096419836
C            3.29661858232783        4.00195224498660        0.30977521261620
C            3.87148500015144        2.76620051298077        0.21928272915986
C            3.08571180965376        1.60127957517609        0.12829599209906
C            3.73493313162420        0.33590416692383        0.03345567393696
N            5.05715793582168        0.23760390904482        0.03056812932028
C            5.68535886155241       -0.93457075428204       -0.05761583015096
C            7.07373693440527       -1.04810626688564       -0.06196319354799
C            7.68369702140070       -2.28497852110196       -0.15511520337693
C            6.91972995228263       -3.43998592144074       -0.24650674364687
C            5.53896718961271       -3.36595338908166       -0.24560557824470
C            4.88997160950797       -2.13817607986900       -0.15337379910963
N            3.55947742212698       -2.02298305899771       -0.15035992936341
C            2.95290978136899       -0.85246167027328       -0.06145709299617
C           -3.33498263288362       -0.38095779745991       -1.24454423112708
C           -2.59878069660810       -0.22511259710893       -2.42453056787999
C           -3.23095462188292        0.00611550756007       -3.62667672413467
C           -4.61233644708632        0.08409792491694       -3.67484405404137
C           -5.34239362533587       -0.07816651485446       -2.51187662775970
C           -4.73318946008595       -0.31339501386055       -1.28711914757711
H           -7.16416794900186       -1.84860240230745        0.59916710511809
H           -5.93547096780392       -2.59886254587720       -0.42003897630869
H           -7.15490650625163       -1.54354099867372       -1.13435586791828
H           -7.03915877642612        0.99995933228220       -0.68608019524870
H           -5.74368614954469        1.63665864135015        0.32740454267870
H           -7.04875119959272        0.69416449931701        1.04787924859132
H           -6.44488487512064       -0.91107492788956        2.47339924355990
H           -5.16404763098555       -1.31257315006448        4.50966079676017
H           -2.68684417279634       -1.37019796424005        4.41466121031182
H           -1.54304657079337       -1.03363488827127        2.27944982330246
H           -1.18852998742813       -2.80042625562588       -0.22000704508629
H            1.29856240189068       -2.87420278115500       -0.22113158666442
H           -1.06824573419851        1.43503858403900        0.11044950949115
H            0.03168650948443        3.09965799397342        0.22694591890252
H            3.89787995176941        4.89582259844450        0.37959097194337
H            4.94442562833769        2.65038581719440        0.21490792805403
H            7.65697214194532       -0.14324822617361        0.00956516160460
H            8.76111036927800       -2.34883450162943       -0.15635981088109
H            7.40215216526676       -4.40268346470853       -0.31882622445770
H            4.93343258835247       -4.25623327088751       -0.31590712006591
H           -1.52214247540403       -0.28896978735217       -2.39191445099362
H           -2.64417866234539        0.12468444323038       -4.52494842034879
H           -5.11835351733592        0.26702165430651       -4.61020979157556
H           -6.41868290769895       -0.01869637298222       -2.56676590427140

 projected vibrational frequencies (cm⁻¹)
eigval :       -0.00     0.00     0.00     0.00     0.00     0.00
eigval :        1.83    18.31    18.55    35.44    42.16    58.41
eigval :       79.40    84.97    85.48    95.03    97.19   110.74
eigval :      120.99   128.78   147.05   174.85   181.11   191.24
eigval :      197.59   218.44   231.68   239.66   244.20   279.47
eigval :      286.29   303.32   318.84   328.96   332.98   342.81
eigval :      365.75   370.78   374.73   382.35   401.01   409.72
eigval :      414.92   432.18   448.79   449.57   450.63   478.99
eigval :      490.80   500.98   511.19   512.68   535.38   536.75
eigval :      541.00   545.78   569.89   575.90   580.35   588.48
eigval :      589.32   623.64   623.91   629.87   638.93   653.69
eigval :      678.02   684.46   685.45   694.14   696.31   711.15
eigval :      722.28   752.17   761.55   775.13   776.61   815.85
eigval :      817.67   821.82   824.79   828.40   849.17   855.59
eigval :      865.10   866.79   867.32   869.84   880.46   905.98
eigval :      914.16   914.86   914.92   914.97   916.09   921.92
eigval :      922.07   938.04   939.51   957.67   985.42  1013.89
eigval :     1038.95  1062.08  1073.47  1076.80  1088.00  1110.28
eigval :     1116.58  1127.38  1140.05  1141.35  1146.46  1156.73
eigval :     1169.14  1170.10  1186.20  1186.35  1189.40  1191.20
eigval :     1224.32  1227.01  1235.13  1242.62  1247.09  1249.96
eigval :     1254.16  1264.44  1272.84  1293.37  1294.54  1302.56
eigval :     1308.85  1324.06  1324.64  1334.73  1337.23  1347.45
eigval :     1356.50  1362.22  1398.97  1402.52  1408.68  1419.56
eigval :     1420.77  1427.72  1434.89  1436.32  1459.49  1467.44
eigval :     1469.64  1482.24  1487.35  1488.44  1489.48  1499.55
eigval :     1503.07  1505.40  1530.14  1537.75  1550.94  1566.55
eigval :     1570.16  1578.00  1583.33  1585.92  1596.86  2361.06
eigval :     3028.10  3030.25  3042.34  3044.89  3051.27  3054.84
eigval :     3083.18  3083.38  3085.22  3087.64  3087.83  3090.07
eigval :     3091.01  3091.66  3096.88  3097.59  3097.66  3098.23
eigval :     3102.68  3103.11  3103.20  3103.64  3104.05  3109.06

   temp. (K)  partition function   enthalpy   heat capacity  entropy
                                   cal/mol     cal/K/mol   cal/K/mol   J/K/mol
 298.15  VIB  0.109E+15            18294.509    118.572    113.559
         ROT  0.485E+08              888.752      2.981     38.148
         INT  0.528E+22            19183.262    121.553    151.707
         TR   0.112E+29             1481.254      4.968     44.569
         TOT                       20664.5156   126.5211   196.2762   821.2198

       T/K    H(0)-H(T)+PV         H(T)/Eh          T*S/Eh         G(T)/Eh
   ------------------------------------------------------------------------
    298.15    0.329310E-01    0.518836E+00    0.932572E-01    0.425579E+00
   ------------------------------------------------------------------------

         :::::::::::::::::::::::::::::::::::::::::::::::::::::
         ::                  THERMODYNAMIC                  ::
         :::::::::::::::::::::::::::::::::::::::::::::::::::::
         :: total free energy        -100.582354928922 Eh   ::
         ::.................................................::
         :: total energy             -101.007933516150 Eh   ::
         :: zero point energy           0.485904761009 Eh   ::
         :: G(RRHO) w/o ZPVE           -0.060326173782 Eh   ::
         :: G(RRHO) contrib.            0.425578587227 Eh   ::
         :::::::::::::::::::::::::::::::::::::::::::::::::::::

           -------------------------------------------------
          | TOTAL ENERGY             -101.007933516150 Eh   |
          | TOTAL ENTHALPY           -100.489097753452 Eh   |
          | TOTAL FREE ENERGY        -100.582354928922 Eh   |
          | GRADIENT NORM               0.000099741722 Eh/α |
           -------------------------------------------------

 * finished run on 2025/07/20 at 00:27:55.122
