   * xtb version 6.7.1 (edcfbbe) compiled by 'albert@albert-system' on 2024-07-22

   ID    Z sym.   atoms
    1    6 C      1-4, 6-22, 24-36, 38-42, 44-59
    2    7 N      5, 23, 37, 43
    3    1 H      60-95

          program call               : xtb data2507/toluene/DmPy-PPI/DmPy-PPI_toluene_S0_crest.xyz --gfn 2 --gbsa toluene --ohess vtight --parallel 40 --molden --ceasefiles --namespace data2507/toluene/DmPy-PPI/DmPy-PPI_toluene_S0_finalOpt
      * Solvation model:               GBSA
        Solvent                        toluene
        Solvent mass                       9.2140E+01 g/mol
          :  Hamiltonian                  GFN2-xTB          :
 * total energy  :  -147.9240012 Eh     change       -0.2485251E-08 Eh
 * total energy  :  -147.9240467 Eh     change       -0.4545801E-04 Eh
 * total energy  :  -147.9240699 Eh     change       -0.2317942E-04 Eh
 * total energy  :  -147.9240803 Eh     change       -0.1039962E-04 Eh
 * total energy  :  -147.9240910 Eh     change       -0.1070461E-04 Eh
 * total energy  :  -147.9240987 Eh     change       -0.7735815E-05 Eh
 * total energy  :  -147.9241029 Eh     change       -0.4237256E-05 Eh
 * total energy  :  -147.9241055 Eh     change       -0.2577837E-05 Eh
 * total energy  :  -147.9241074 Eh     change       -0.1926397E-05 Eh
 * total energy  :  -147.9241092 Eh     change       -0.1740001E-05 Eh
 * total energy  :  -147.9242104 Eh     change       -0.3240117E-06 Eh
 * total energy  :  -147.9242107 Eh     change       -0.3383770E-06 Eh
 * total energy  :  -147.9242110 Eh     change       -0.2900606E-06 Eh
 * total energy  :  -147.9242113 Eh     change       -0.2346750E-06 Eh
 * total energy  :  -147.9242115 Eh     change       -0.2096807E-06 Eh
 * total energy  :  -147.9242117 Eh     change       -0.2358163E-06 Eh
 * total energy  :  -147.9242120 Eh     change       -0.3254173E-06 Eh
 * total energy  :  -147.9242125 Eh     change       -0.4396956E-06 Eh
 * total energy  :  -147.9242125 Eh     change       -0.1282871E-08 Eh
   *** GEOMETRY OPTIMIZATION CONVERGED AFTER 94 ITERATIONS ***

 final structure:
================
95
 xtb: 6.7.1 (edcfbbe)
C            3.66404674736541        3.90799756572076       -0.70803573957338
C            4.51646012591486        3.29777141861700       -1.61482321307477
C            4.90328468023272        1.98258252704295       -1.43037486239396
C            4.43881658047996        1.27719535674898       -0.32401820178271
N            4.79442257419215       -0.07816944448758       -0.14593158234828
C            3.90642169833341       -1.13033582425001       -0.17130864645990
C            2.47424551240121       -0.98956152407377       -0.38377575049152
C            1.60845983682925       -1.80839517942438        0.34192546872602
C            0.24204232307524       -1.68541394952563        0.20041726278126
C           -0.30178801478793       -0.74450469302652       -0.67310276561736
C           -1.75742161486248       -0.56464649083184       -0.77949376031425
C           -2.29108343389074        0.71728302256489       -0.86220000468030
C           -3.66501227262017        0.92020641776737       -0.93539098445483
C           -4.20504453475633        2.28717866065309       -1.02020286200571
C           -5.28253751285553        2.58209517995268       -1.85305255731435
C           -5.76954372338021        3.87422245429845       -1.93465883011943
C           -5.19391901322377        4.88912369260758       -1.19189438322780
C           -4.11381470401537        4.61665585704499       -0.35466296196622
C           -3.47876639268766        5.68835665888393        0.42401600683556
C           -4.22340839308269        6.68361462641187        1.05573624082943
C           -3.56716214174316        7.67145429797560        1.76942579984739
C           -2.18232839796623        7.63114881292736        1.83367733726640
N           -1.45894456416245        6.69732039805475        1.23613782376498
C           -2.09015527978128        5.76048413504639        0.55319601388142
C           -3.63273207669938        3.31397932876820       -0.27611599835889
C           -4.51009138328972       -0.18480631378733       -0.92929363950384
C           -3.99655285841358       -1.47558884117210       -0.85580826440599
C           -4.89912390741514       -2.63949726196973       -0.85267382340646
C           -4.60465678530917       -3.76830772569143       -1.61453328250855
C           -5.45754195319526       -4.85708190348996       -1.60781368081965
C           -6.60995690333956       -4.83894904262470       -0.84330395795927
C           -6.92080797328647       -3.72141131455833       -0.07105478361131
C           -8.13844782613860       -3.69703823682574        0.75065357877753
C           -9.34900605997655       -4.20803057423288        0.28362407201593
C          -10.46579004075629       -4.16002582973191        1.09963022034062
C          -10.33799069977812       -3.59803873721401        2.36115852620252
N           -9.19616601182285       -3.11305117716286        2.82278980016469
C           -8.13341524712777       -3.16430855679145        2.04131810248159
C           -6.05863782150169       -2.62963752724636       -0.08513407210847
C           -2.61937373096869       -1.65613229131527       -0.78012639303137
C            0.56727423430168        0.03907348910737       -1.43013987342152
C            1.93504938944572       -0.08168867057154       -1.29364323303527
N            4.49795367202580       -2.28281336714647        0.02760435674466
C            5.81919666479791       -2.00077804227031        0.18622281603902
C            6.88740453379970       -2.91786222865168        0.39349604578528
C            6.66057760392801       -4.29775880938475        0.44697953166399
C            7.70837923180681       -5.16811553222686        0.61656177404304
C            9.00365129294145       -4.66536721198561        0.72820472825558
C            9.23782071826822       -3.31064534522356        0.68401185463455
C            8.19187842681410       -2.38784251492435        0.52472168144063
C            8.40224751784807       -0.94996310900757        0.51371915356080
C            9.67095280234019       -0.39131432066615        0.72771301262169
C            9.87383069472327        0.96814149875358        0.76410868385755
C            8.80045143553385        1.83854504465622        0.60093347417461
C            7.54272651328964        1.33253109013143        0.38204579545233
C            7.31805392001852       -0.05038690890441        0.31628866601486
C            6.03438255280238       -0.62647167503119        0.09721134815843
C            3.58628397426427        1.88850419194662        0.58767195423348
C            3.20105715808265        3.20310052236057        0.39081796061930
H            3.36012855180397        4.93280671508225       -0.85799552052986
H            4.87873477895460        3.84414261391428       -2.47272980423928
H            5.56403587106846        1.49556963517736       -2.13342625630246
H            2.02998237349813       -2.52915900881037        1.02615120333137
H           -0.41392192169405       -2.30472182574825        0.79437248000144
H           -1.62547544949086        1.56723746153776       -0.86655304573513
H           -5.72489623589206        1.80103518003752       -2.45358339840170
H           -6.60056780966112        4.09434374513359       -2.58919536802795
H           -5.56596110758423        5.89952527020714       -1.27808368157795
H           -5.30269045571154        6.67030545039633        1.00143111413453
H           -4.11713673100667        8.45262522585588        2.27144745962853
H           -1.62111143454843        8.37504317789050        2.38436768235264
H           -1.45178860113211        5.03340811897785        0.06692056394297
H           -2.82167796871171        3.09109009703015        0.40163992805989
H           -5.57905742546041       -0.04031337118973       -0.98147208833508
H           -3.71472166502401       -3.78325217358446       -2.22635069956539
H           -5.22210189814367       -5.72791772923766       -2.20256198345072
H           -7.26068602566878       -5.70090397899681       -0.82692167177990
H           -9.41497078322405       -4.61982631907442       -0.71347900324356
H          -11.41648230898179       -4.54448319259798        0.76323465246680
H          -11.18073451677221       -3.52977037389733        3.03696866263654
H           -7.22128266234183       -2.77253017490198        2.47388246550776
H           -6.29482457666536       -1.75953581758219        0.51016235931229
H           -2.21508383322956       -2.65557452880114       -0.72000685339581
H            0.16687096648731        0.74029032347043       -2.14753624825079
H            2.58413223485071        0.52229839195556       -1.90935744719716
H            5.64406469580823       -4.64632976434345        0.34475667615236
H            7.53585752477467       -6.23367287756936        0.65715352047647
H            9.83319838370729       -5.34681889288488        0.85176728160019
H           10.25675078023367       -2.96852806606738        0.77179962479793
H           10.52108291996557       -1.03631104593289        0.88034935971819
H           10.86614382481653        1.36026505281347        0.93276958057373
H            8.95310281576840        2.90663173225025        0.65055758157697
H            6.71076117923407        2.00961047427373        0.27331718524248
H            3.22984542201028        1.32939679466239        1.44039351538960
H            2.53837102764030        3.67718917574191        1.09904343254049

          :  Hamiltonian                  GFN2-xTB          :
         :: gradient norm              0.000029926083 Eh/a0 ::
         :: HOMO-LUMO gap              2.709702545341 eV    ::
         :: SCC energy              -150.708492947057 Eh    ::
         :: -> dispersion             -0.131092386799 Eh    ::
         :: -> Gsolv                  -0.066157310564 Eh    ::
         :: repulsion energy           2.784280462012 Eh    ::

    * Orbital Energies and Occupations

         #    Occupation            Energy/Eh            Energy/eV
      -------------------------------------------------------------
         1        2.0000           -0.6879432             -18.7199
       ...           ...                  ...                  ...
       126        2.0000           -0.4105772             -11.1724
       127        2.0000           -0.4075528             -11.0901
       128        2.0000           -0.4032942             -10.9742
       129        2.0000           -0.3991436             -10.8613
       130        2.0000           -0.3989048             -10.8548
       131        2.0000           -0.3963661             -10.7857
       132        2.0000           -0.3882193             -10.5640
       133        2.0000           -0.3866059             -10.5201
       134        2.0000           -0.3825474             -10.4096
       135        2.0000           -0.3795565             -10.3283
       136        2.0000           -0.3716068             -10.1119
       137        2.0000           -0.3705015             -10.0819
       138        2.0000           -0.3643343              -9.9140 (HOMO)
       139                         -0.2647546              -7.2043 (LUMO)
       140                         -0.2605150              -7.0890
       141                         -0.2592680              -7.0550
       142                         -0.2513082              -6.8384
       143                         -0.2505726              -6.8184
       144                         -0.2486102              -6.7650
       145                         -0.2474334              -6.7330
       146                         -0.2464765              -6.7070
       147                         -0.2390779              -6.5056
       148                         -0.2386390              -6.4937
       149                         -0.2351290              -6.3982
       ...                                ...                  ...
       272                          0.7253142              19.7368
      -------------------------------------------------------------
                  HL-Gap            0.0995797 Eh            2.7097 eV

     #   Z          covCN         q      C6AA      α(0)
     1   6 C        2.919    -0.028    28.705     8.786
     2   6 C        2.920    -0.026    28.657     8.779
     3   6 C        2.921    -0.037    28.925     8.820
     4   6 C        2.912     0.066    26.516     8.444
     5   7 N        2.840    -0.055    22.295     7.013
     6   6 C        3.193     0.137    24.556     8.081
     7   6 C        2.974    -0.003    28.100     8.695
     8   6 C        2.925    -0.029    28.732     8.790
     9   6 C        2.923    -0.033    28.816     8.803
    10   6 C        2.977     0.012    27.735     8.639
    11   6 C        2.973     0.010    27.795     8.648
    12   6 C        2.932    -0.041    29.022     8.835
    13   6 C        2.973     0.009    27.808     8.650
    14   6 C        2.975     0.011    27.756     8.642
    15   6 C        2.924    -0.035    28.861     8.810
    16   6 C        2.916    -0.030    28.749     8.792
    17   6 C        2.924    -0.035    28.881     8.813
    18   6 C        2.974     0.007    27.865     8.659
    19   6 C        2.972     0.001    27.990     8.678
    20   6 C        2.933    -0.016    28.422     8.743
    21   6 C        2.911    -0.040    28.990     8.829
    22   6 C        2.913     0.057    26.714     8.475
    23   7 N        1.835    -0.241    27.134     7.719
    24   6 C        2.918     0.056    26.736     8.479
    25   6 C        2.931    -0.039    28.978     8.828
    26   6 C        2.929    -0.041    29.009     8.833
    27   6 C        2.974     0.010    27.801     8.649
    28   6 C        2.976     0.012    27.752     8.641
    29   6 C        2.924    -0.035    28.861     8.810
    30   6 C        2.916    -0.030    28.745     8.792
    31   6 C        2.924    -0.035    28.883     8.813
    32   6 C        2.974     0.007    27.865     8.659
    33   6 C        2.972     0.002    27.989     8.678
    34   6 C        2.933    -0.017    28.428     8.744
    35   6 C        2.911    -0.040    28.994     8.830
    36   6 C        2.912     0.058    26.709     8.475
    37   7 N        1.835    -0.241    27.150     7.722
    38   6 C        2.917     0.057    26.732     8.478
    39   6 C        2.930    -0.039    28.970     8.827
    40   6 C        2.929    -0.040    29.006     8.832
    41   6 C        2.924    -0.034    28.852     8.809
    42   6 C        2.921    -0.036    28.886     8.814
    43   7 N        1.893    -0.319    29.129     8.001
    44   6 C        3.207     0.060    26.078     8.316
    45   6 C        2.985    -0.003    28.098     8.695
    46   6 C        2.921    -0.034    28.836     8.806
    47   6 C        2.917    -0.032    28.798     8.800
    48   6 C        2.917    -0.034    28.858     8.809
    49   6 C        2.921    -0.037    28.910     8.817
    50   6 C        2.979    -0.005    28.142     8.702
    51   6 C        2.979    -0.002    28.064     8.690
    52   6 C        2.922    -0.035    28.876     8.812
    53   6 C        2.916    -0.034    28.851     8.808
    54   6 C        2.917    -0.033    28.810     8.802
    55   6 C        2.919    -0.041    29.027     8.835
    56   6 C        2.978    -0.005    28.146     8.702
    57   6 C        3.074     0.022    27.441     8.589
    58   6 C        2.921    -0.038    28.942     8.822
    59   6 C        2.920    -0.025    28.620     8.773
    60   1 H        0.926     0.049     2.334     2.389
    61   1 H        0.926     0.047     2.354     2.399
    62   1 H        0.926     0.041     2.434     2.440
    63   1 H        0.926     0.044     2.402     2.423
    64   1 H        0.926     0.042     2.417     2.431
    65   1 H        0.926     0.037     2.491     2.468
    66   1 H        0.926     0.037     2.489     2.467
    67   1 H        0.926     0.035     2.511     2.478
    68   1 H        0.926     0.034     2.525     2.485
    69   1 H        0.926     0.043     2.415     2.430
    70   1 H        0.926     0.041     2.432     2.439
    71   1 H        0.925     0.036     2.503     2.474
    72   1 H        0.925     0.037     2.494     2.469
    73   1 H        0.926     0.036     2.507     2.476
    74   1 H        0.926     0.037     2.493     2.469
    75   1 H        0.926     0.037     2.484     2.465
    76   1 H        0.926     0.036     2.506     2.475
    77   1 H        0.926     0.034     2.525     2.485
    78   1 H        0.926     0.043     2.410     2.428
    79   1 H        0.926     0.041     2.430     2.438
    80   1 H        0.925     0.036     2.505     2.475
    81   1 H        0.925     0.037     2.494     2.469
    82   1 H        0.926     0.035     2.517     2.481
    83   1 H        0.926     0.038     2.473     2.459
    84   1 H        0.926     0.040     2.446     2.446
    85   1 H        0.926     0.029     2.597     2.520
    86   1 H        0.926     0.043     2.409     2.427
    87   1 H        0.926     0.032     2.556     2.500
    88   1 H        0.926     0.032     2.562     2.503
    89   1 H        0.926     0.034     2.524     2.484
    90   1 H        0.926     0.037     2.493     2.469
    91   1 H        0.926     0.033     2.551     2.498
    92   1 H        0.926     0.032     2.560     2.502
    93   1 H        0.926     0.030     2.589     2.516
    94   1 H        0.926     0.037     2.486     2.466
    95   1 H        0.926     0.049     2.338     2.391

molecular dipole:
                 x           y           z       tot (Debye)
 q only:       -1.096       0.993      -0.928
   full:       -1.323       1.195      -1.245       5.525

 projected vibrational frequencies (cm⁻¹)
eigval :       -0.00     0.00     0.00     0.00     0.00     0.00
eigval :        6.74     9.76    11.10    12.74    21.36    25.63
eigval :       28.56    32.55    37.20    46.96    50.42    52.33
eigval :       60.35    66.23    68.60    76.84    84.38    87.71
eigval :       91.54    94.28   105.67   123.80   125.56   131.46
eigval :      139.97   166.82   180.06   198.28   215.08   223.77
eigval :      227.51   238.59   242.05   249.15   259.17   264.91
eigval :      269.95   274.73   301.80   305.69   312.27   315.43
eigval :      335.94   346.05   352.38   358.86   368.50   372.27
eigval :      374.39   378.39   379.94   397.00   402.32   407.54
eigval :      419.99   432.61   438.75   445.99   469.12   476.50
eigval :      482.58   493.58   506.69   515.62   521.72   527.82
eigval :      534.77   550.21   580.24   584.84   586.38   588.71
eigval :      591.27   593.31   600.48   604.02   607.77   620.49
eigval :      625.90   636.57   639.13   643.03   655.18   663.80
eigval :      670.02   672.12   674.98   679.74   682.28   683.07
eigval :      690.91   692.05   699.89   706.71   727.30   735.56
eigval :      735.75   761.57   765.56   768.68   775.89   778.75
eigval :      781.69   793.79   801.07   805.03   816.51   844.01
eigval :      862.33   862.74   871.46   874.05   876.10   885.18
eigval :      886.35   888.86   895.20   897.67   902.00   903.45
eigval :      905.11   905.39   907.22   907.52   911.64   912.93
eigval :      914.08   919.84   923.45   924.75   927.18   928.86
eigval :      929.17   929.51   929.68   932.73   936.16   938.67
eigval :      949.40   961.33   985.18   988.90   991.36  1002.23
eigval :     1002.73  1014.41  1028.49  1067.81  1077.34  1079.40
eigval :     1084.93  1090.47  1094.39  1096.58  1100.03  1106.86
eigval :     1116.22  1120.09  1122.55  1131.40  1131.57  1133.85
eigval :     1138.81  1139.24  1140.80  1152.00  1173.51  1178.87
eigval :     1180.29  1185.04  1189.04  1189.06  1191.27  1194.34
eigval :     1196.48  1201.69  1207.70  1222.82  1232.87  1247.34
eigval :     1252.34  1255.39  1261.64  1263.62  1267.95  1269.53
eigval :     1270.77  1275.39  1279.25  1279.54  1281.56  1287.38
eigval :     1297.91  1301.79  1310.80  1314.32  1317.12  1317.74
eigval :     1322.21  1328.37  1336.77  1344.76  1353.62  1371.35
eigval :     1390.58  1396.33  1397.46  1403.00  1406.51  1412.06
eigval :     1416.99  1428.68  1430.64  1431.54  1434.30  1436.23
eigval :     1458.52  1460.23  1471.49  1479.95  1480.93  1482.81
eigval :     1512.76  1514.23  1542.67  1556.92  1559.03  1559.78
eigval :     1563.05  1568.09  1569.73  1570.05  1572.58  1573.66
eigval :     1577.88  1579.25  1581.64  1590.70  1591.42  1591.83
eigval :     1593.10  1596.96  1603.22  3049.23  3049.28  3053.49
eigval :     3053.54  3069.65  3070.06  3070.47  3071.60  3071.78
eigval :     3072.77  3078.77  3079.14  3079.67  3079.79  3080.84
eigval :     3081.15  3081.47  3081.80  3082.52  3083.24  3084.73
eigval :     3086.63  3087.55  3088.70  3089.10  3089.64  3090.23
eigval :     3090.82  3092.38  3094.67  3095.28  3096.75  3097.58
eigval :     3101.56  3108.91  3115.58

   temp. (K)  partition function   enthalpy   heat capacity  entropy
                                   cal/mol     cal/K/mol   cal/K/mol   J/K/mol
 298.15  VIB  0.708E+23            27509.555    171.114    173.982
         ROT  0.238E+09              888.752      2.981     41.307
         INT  0.168E+32            28398.308    174.095    215.289
         TR   0.200E+29             1481.254      4.968     45.715
         TOT                       29879.5617   179.0629   261.0038  1092.0398

       T/K    H(0)-H(T)+PV         H(T)/Eh          T*S/Eh         G(T)/Eh
   ------------------------------------------------------------------------
    298.15    0.476161E-01    0.775757E+00    0.124011E+00    0.651745E+00
   ------------------------------------------------------------------------

         :::::::::::::::::::::::::::::::::::::::::::::::::::::
         ::                  THERMODYNAMIC                  ::
         :::::::::::::::::::::::::::::::::::::::::::::::::::::
         :: total free energy        -147.272467167222 Eh   ::
         ::.................................................::
         :: total energy             -147.924212490792 Eh   ::
         :: zero point energy           0.728140530846 Eh   ::
         :: G(RRHO) w/o ZPVE           -0.076395207276 Eh   ::
         :: G(RRHO) contrib.            0.651745323570 Eh   ::
         :::::::::::::::::::::::::::::::::::::::::::::::::::::

           -------------------------------------------------
          | TOTAL ENERGY             -147.924212490792 Eh   |
          | TOTAL ENTHALPY           -147.148455847407 Eh   |
          | TOTAL FREE ENERGY        -147.272467167222 Eh   |
          | GRADIENT NORM               0.000029924705 Eh/α |
          | HOMO-LUMO GAP               2.709702426185 eV   |
           -------------------------------------------------

 * finished run on 2025/08/24 at 19:34:36.053
