   * xtb version 6.7.1 (edcfbbe) compiled by 'albert@albert-system' on 2024-07-22

   ID    Z sym.   atoms
    1    6 C      1-4, 6-22, 24-36, 38-42, 44-59
    2    7 N      5, 23, 37, 43
    3    1 H      60-95

          program call               : xtb data2507/toluene/DmPy-PPI/DmPy-PPI.xyz --gfn 2 --gbsa toluene --ohess vtight --parallel 40 --molden --ceasefiles --namespace data2507/toluene/DmPy-PPI/DmPy-PPI_toluene_S0_preOpt
      * Solvation model:               GBSA
        Solvent                        toluene
        Solvent mass                       9.2140E+01 g/mol
          :  Hamiltonian                  GFN2-xTB          :
 * total energy  :  -147.8989314 Eh     change       -0.2410047E-08 Eh
 * total energy  :  -147.9132046 Eh     change       -0.1427312E-01 Eh
 * total energy  :  -147.9170163 Eh     change       -0.3811727E-02 Eh
 * total energy  :  -147.9181866 Eh     change       -0.1170340E-02 Eh
 * total energy  :  -147.9189877 Eh     change       -0.8011098E-03 Eh
 * total energy  :  -147.9193591 Eh     change       -0.3713421E-03 Eh
 * total energy  :  -147.9196538 Eh     change       -0.2946911E-03 Eh
 * total energy  :  -147.9199021 Eh     change       -0.2483271E-03 Eh
 * total energy  :  -147.9201011 Eh     change       -0.1989593E-03 Eh
 * total energy  :  -147.9202655 Eh     change       -0.1644381E-03 Eh
 * total energy  :  -147.9232807 Eh     change       -0.1275270E-05 Eh
 * total energy  :  -147.9232820 Eh     change       -0.1333896E-05 Eh
 * total energy  :  -147.9232834 Eh     change       -0.1410659E-05 Eh
 * total energy  :  -147.9232850 Eh     change       -0.1539135E-05 Eh
 * total energy  :  -147.9232867 Eh     change       -0.1706623E-05 Eh
 * total energy  :  -147.9232886 Eh     change       -0.1897621E-05 Eh
 * total energy  :  -147.9232906 Eh     change       -0.2078232E-05 Eh
 * total energy  :  -147.9232928 Eh     change       -0.2193807E-05 Eh
 * total energy  :  -147.9232928 Eh     change       -0.5992860E-08 Eh
   *** GEOMETRY OPTIMIZATION CONVERGED AFTER 152 ITERATIONS ***

 final structure:
================
95
 xtb: 6.7.1 (edcfbbe)
C            3.84356907771780        1.85597789375987        3.70036792455107
C            3.50530007105349        2.32989949338613        2.44367942180073
C            3.87430027534151        1.62537158549271        1.31124882941476
C            4.58629633656608        0.43918417997232        1.44074071200827
N            4.92838648652653       -0.29709923115965        0.28568396291887
C            4.01479612274171       -0.84707736390925       -0.58418200208665
C            2.57145822472332       -0.74422782481807       -0.41877008115848
C            1.95277014644491       -0.93243995214047        0.81548289620107
C            0.58047474898005       -0.83351342154849        0.92902114200147
C           -0.20724750725167       -0.53022330340400       -0.17852467566871
C           -1.66661432131049       -0.39192956261847       -0.04504981420758
C           -2.31663211953315        0.70729171280032       -0.59470070018249
C           -3.69391144670193        0.85629144664939       -0.47018680057563
C           -4.36616211573373        2.04314956876321       -1.02459802506048
C           -5.56992946712556        1.92794047935664       -1.71594493886441
C           -6.18946271010657        3.05232179602574       -2.23101615131079
C           -5.62718835432721        4.30378908228510       -2.05612161406220
C           -4.42569433599903        4.44151392586749       -1.36360925201545
C           -3.82169132560784        5.76581352047194       -1.16548062148769
C           -4.59300725135305        6.88630987131071       -0.85841400543272
C           -3.97077974612826        8.10886135054966       -0.67516852788925
C           -2.59106505290722        8.17333825163911       -0.80146349783840
N           -1.84383164893610        7.12208346585438       -1.09906926353050
C           -2.44323883796577        5.95936795843102       -1.27621031449290
C           -3.80386383086028        3.30422467643209       -0.85856716709057
C           -4.42324342566657       -0.12482570459318        0.19304807745086
C           -3.79067004953142       -1.23278967849819        0.74793598911255
C           -4.57269700380479       -2.26768224370747        1.44485739847604
C           -4.11971598987862       -2.82006526188470        2.64086583859125
C           -4.86317308010118       -3.79040833009182        3.28816014938037
C           -6.06256024684963       -4.22618620924835        2.75481631545668
C           -6.53015598001749       -3.69156293800552        1.55598456731374
C           -7.79866110129428       -4.15226527092671        0.97528079956085
C           -7.94047274046872       -4.37752080064138       -0.39362519509732
C           -9.15795376048193       -4.81379012204932       -0.88648002765437
C          -10.19825853187519       -5.01611692723183        0.00817725359058
N          -10.08324628099738       -4.80209977489212        1.30938160487353
C           -8.92089887065385       -4.38217847075227        1.77341765884446
C           -5.77787023390552       -2.71376219105015        0.91350507205813
C           -2.40940300315631       -1.35198828642776        0.63306496279708
C            0.41312891754709       -0.35775411475557       -1.41425401429794
C            1.78221796220078       -0.47677176397634       -1.53667424939518
N            4.59105462941716       -1.48204192350555       -1.57416357779051
C            5.93051363466847       -1.36114139985826       -1.36313558028421
C            6.98896200281604       -1.91622841290951       -2.13567547414385
C            6.73045925188782       -2.71528576897872       -3.25524691248010
C            7.76487904491924       -3.27017867709662       -3.96681435839187
C            9.07766540681607       -3.03205079747162       -3.56344413285284
C            9.34404609517255       -2.24379930195420       -2.46811474439811
C            8.31441522817935       -1.65359944346618       -1.71815860458103
C            8.56490813787872       -0.79453038370842       -0.57313616026488
C            9.86742802748489       -0.44810359692601       -0.18465997941211
C           10.11421250946499        0.39463275109425        0.87344091751892
C            9.05538633508979        0.94639849095630        1.58819848905366
C            7.76459997463864        0.62769528308585        1.24453072455080
C            7.49156134904347       -0.25022229393103        0.18523564128415
C            6.17315731577136       -0.60943284481840       -0.21491631871339
C            4.92045534126138       -0.04334863226037        2.70258700110667
C            4.55047617839983        0.67058354924855        3.82791764307611
H            3.55551983996819        2.40922098809731        4.58133357246885
H            2.95392118853849        3.25222456136747        2.34093296241853
H            3.61548780315026        1.98617503888927        0.32661366505035
H            2.54325701831709       -1.17525815609630        1.68636505822147
H            0.11309820027858       -0.97489558662795        1.89261023175921
H           -1.74192642147564        1.45488689068021       -1.12147141519501
H           -6.00992937571190        0.95306113719622       -1.86571285565870
H           -7.11749692362383        2.95276177043405       -2.77538767781252
H           -6.10900112286096        5.17546922409281       -2.47413840519966
H           -5.66382130795234        6.79311303034530       -0.74594111615591
H           -4.54150286009753        8.99210376419064       -0.43255648283930
H           -2.05398389534577        9.10241544213889       -0.66018190018020
H           -1.78867781221429        5.13716475374586       -1.53697193794326
H           -2.88923769004677        3.40639317782189       -0.29267348140309
H           -5.48962855157133       -0.00348178732481        0.31522850729743
H           -3.19261052869927       -2.47305766884579        3.07260208804435
H           -4.50501645852117       -4.21178019019897        4.21643088699093
H           -6.62976279553078       -4.99751530401847        3.25464663806924
H           -7.10012411762320       -4.22979543071386       -1.05711380759482
H           -9.29641559552617       -5.00060300878456       -1.94041202469034
H          -11.16814340379261       -5.36401375913558       -0.32326334689262
H           -8.88541804063476       -4.20403645558325        2.84100649015381
H           -6.13621753834243       -2.29257974836672       -0.01459505922616
H           -1.91093799111073       -2.22035211103241        1.03808870422778
H           -0.18778564078885       -0.14577404460665       -2.28667495076642
H            2.26300656658029       -0.35784431193073       -2.49601137756852
H            5.69954678393148       -2.88189035836802       -3.52892046837093
H            7.56760143883884       -3.88979482720644       -4.82939143293588
H            9.89546561122360       -3.47174061881185       -4.11632394868923
H           10.37516978774899       -2.09074080457366       -2.19188374560712
H           10.71083345535852       -0.83980694559676       -0.72986904744635
H           11.13190309812950        0.63790555088047        1.14188848528520
H            9.24581458663794        1.62623174014745        2.40559507406633
H            6.94636551130286        1.07102825506180        1.78914388895032
H            5.46993473301320       -0.96983122970592        2.78977039007561
H            4.81313498624399        0.29683991426519        4.80618162847912

          :  Hamiltonian                  GFN2-xTB          :
         :: gradient norm              0.000065717099 Eh/a0 ::
         :: HOMO-LUMO gap              2.774812819579 eV    ::
         :: SCC energy              -150.708270202780 Eh    ::
         :: -> dispersion             -0.130659801210 Eh    ::
         :: -> Gsolv                  -0.066487307577 Eh    ::
         :: repulsion energy           2.784977364463 Eh    ::

    * Orbital Energies and Occupations

         #    Occupation            Energy/Eh            Energy/eV
      -------------------------------------------------------------
         1        2.0000           -0.6887106             -18.7408
       ...           ...                  ...                  ...
       126        2.0000           -0.4117832             -11.2052
       127        2.0000           -0.4083434             -11.1116
       128        2.0000           -0.4038966             -10.9906
       129        2.0000           -0.3997600             -10.8780
       130        2.0000           -0.3991959             -10.8627
       131        2.0000           -0.3971772             -10.8077
       132        2.0000           -0.3896004             -10.6016
       133        2.0000           -0.3873643             -10.5407
       134        2.0000           -0.3829697             -10.4211
       135        2.0000           -0.3800665             -10.3421
       136        2.0000           -0.3713687             -10.1055
       137        2.0000           -0.3706914             -10.0870
       138        2.0000           -0.3651910              -9.9374 (HOMO)
       139                         -0.2632186              -7.1625 (LUMO)
       140                         -0.2605437              -7.0898
       141                         -0.2595407              -7.0625
       142                         -0.2517323              -6.8500
       143                         -0.2504677              -6.8156
       144                         -0.2488044              -6.7703
       145                         -0.2475287              -6.7356
       146                         -0.2464572              -6.7064
       147                         -0.2399645              -6.5298
       148                         -0.2394258              -6.5151
       149                         -0.2364972              -6.4354
       ...                                ...                  ...
       272                          0.7248536              19.7243
      -------------------------------------------------------------
                  HL-Gap            0.1019725 Eh            2.7748 eV

     #   Z          covCN         q      C6AA      α(0)
     1   6 C        2.919    -0.028    28.712     8.787
     2   6 C        2.920    -0.025    28.625     8.774
     3   6 C        2.922    -0.038    28.947     8.823
     4   6 C        2.913     0.066    26.517     8.444
     5   7 N        2.840    -0.055    22.291     7.012
     6   6 C        3.195     0.137    24.531     8.075
     7   6 C        2.974    -0.003    28.093     8.694
     8   6 C        2.921    -0.035    28.865     8.810
     9   6 C        2.924    -0.034    28.835     8.806
    10   6 C        2.978     0.013    27.723     8.637
    11   6 C        2.974     0.010    27.784     8.646
    12   6 C        2.930    -0.040    29.004     8.832
    13   6 C        2.974     0.010    27.798     8.648
    14   6 C        2.976     0.012    27.751     8.641
    15   6 C        2.924    -0.034    28.855     8.809
    16   6 C        2.916    -0.030    28.747     8.792
    17   6 C        2.924    -0.035    28.880     8.813
    18   6 C        2.974     0.007    27.861     8.658
    19   6 C        2.972     0.001    27.991     8.678
    20   6 C        2.933    -0.017    28.424     8.744
    21   6 C        2.911    -0.040    28.991     8.829
    22   6 C        2.913     0.058    26.709     8.475
    23   7 N        1.835    -0.241    27.147     7.721
    24   6 C        2.917     0.057    26.731     8.478
    25   6 C        2.931    -0.039    28.969     8.827
    26   6 C        2.930    -0.041    29.012     8.833
    27   6 C        2.974     0.010    27.794     8.648
    28   6 C        2.976     0.011    27.762     8.643
    29   6 C        2.924    -0.035    28.860     8.810
    30   6 C        2.916    -0.029    28.734     8.790
    31   6 C        2.924    -0.036    28.897     8.815
    32   6 C        2.974     0.007    27.862     8.658
    33   6 C        2.972     0.002    27.989     8.678
    34   6 C        2.933    -0.017    28.425     8.744
    35   6 C        2.911    -0.040    28.991     8.829
    36   6 C        2.912     0.058    26.709     8.475
    37   7 N        1.835    -0.241    27.147     7.721
    38   6 C        2.917     0.057    26.732     8.478
    39   6 C        2.930    -0.038    28.950     8.824
    40   6 C        2.930    -0.040    29.003     8.832
    41   6 C        2.923    -0.032    28.806     8.802
    42   6 C        2.925    -0.029    28.722     8.789
    43   7 N        1.893    -0.319    29.133     8.002
    44   6 C        3.208     0.060    26.071     8.314
    45   6 C        2.985    -0.003    28.096     8.695
    46   6 C        2.921    -0.034    28.836     8.806
    47   6 C        2.917    -0.032    28.796     8.800
    48   6 C        2.917    -0.034    28.857     8.809
    49   6 C        2.921    -0.037    28.909     8.817
    50   6 C        2.979    -0.005    28.142     8.702
    51   6 C        2.979    -0.002    28.064     8.690
    52   6 C        2.922    -0.035    28.875     8.812
    53   6 C        2.916    -0.034    28.851     8.808
    54   6 C        2.917    -0.033    28.811     8.802
    55   6 C        2.919    -0.041    29.027     8.835
    56   6 C        2.978    -0.005    28.144     8.702
    57   6 C        3.074     0.022    27.448     8.590
    58   6 C        2.921    -0.037    28.920     8.819
    59   6 C        2.920    -0.026    28.658     8.779
    60   1 H        0.926     0.048     2.348     2.396
    61   1 H        0.926     0.047     2.353     2.399
    62   1 H        0.926     0.038     2.480     2.463
    63   1 H        0.926     0.029     2.599     2.521
    64   1 H        0.926     0.040     2.448     2.447
    65   1 H        0.926     0.036     2.506     2.475
    66   1 H        0.926     0.036     2.498     2.472
    67   1 H        0.926     0.036     2.507     2.476
    68   1 H        0.926     0.035     2.522     2.483
    69   1 H        0.926     0.043     2.410     2.428
    70   1 H        0.926     0.042     2.428     2.437
    71   1 H        0.925     0.036     2.503     2.474
    72   1 H        0.925     0.036     2.499     2.472
    73   1 H        0.926     0.035     2.515     2.480
    74   1 H        0.926     0.037     2.493     2.469
    75   1 H        0.926     0.037     2.492     2.468
    76   1 H        0.926     0.036     2.506     2.475
    77   1 H        0.926     0.033     2.546     2.495
    78   1 H        0.926     0.043     2.408     2.427
    79   1 H        0.926     0.042     2.428     2.437
    80   1 H        0.925     0.036     2.504     2.474
    81   1 H        0.925     0.037     2.494     2.470
    82   1 H        0.926     0.036     2.496     2.471
    83   1 H        0.926     0.037     2.490     2.468
    84   1 H        0.926     0.042     2.423     2.434
    85   1 H        0.926     0.042     2.419     2.432
    86   1 H        0.926     0.043     2.410     2.428
    87   1 H        0.926     0.032     2.555     2.500
    88   1 H        0.926     0.032     2.561     2.503
    89   1 H        0.926     0.035     2.523     2.484
    90   1 H        0.926     0.037     2.492     2.469
    91   1 H        0.926     0.033     2.551     2.497
    92   1 H        0.926     0.032     2.561     2.503
    93   1 H        0.926     0.030     2.593     2.518
    94   1 H        0.926     0.041     2.429     2.437
    95   1 H        0.926     0.048     2.351     2.398

molecular dipole:
                 x           y           z       tot (Debye)
 q only:       -0.634       0.690       0.907
   full:       -0.544       0.903       0.974       3.648

 projected vibrational frequencies (cm⁻¹)
eigval :       -0.00    -0.00     0.00     0.00     0.00     0.00
eigval :        6.40     8.46    11.65    15.38    17.86    23.80
eigval :       25.92    32.68    36.88    48.36    48.71    51.90
eigval :       57.26    62.98    65.27    77.37    83.05    85.91
eigval :       92.31    94.30   106.90   117.54   121.00   124.82
eigval :      145.83   163.09   177.45   201.33   206.20   222.17
eigval :      227.02   238.22   243.23   248.68   259.53   263.13
eigval :      267.83   272.95   299.12   302.36   312.29   323.92
eigval :      335.98   343.39   351.44   364.39   369.33   370.76
eigval :      371.29   375.60   377.50   386.91   398.74   406.23
eigval :      421.10   434.86   436.92   444.50   462.44   474.36
eigval :      487.01   491.34   507.33   518.05   522.31   530.61
eigval :      535.68   567.27   576.50   584.74   587.75   588.59
eigval :      589.62   594.58   597.91   604.64   608.07   618.90
eigval :      627.01   632.91   641.03   642.56   652.77   663.39
eigval :      667.87   670.03   676.15   680.13   682.53   684.81
eigval :      690.81   691.77   699.19   706.34   727.64   734.60
eigval :      735.52   761.00   766.23   767.15   775.20   778.75
eigval :      782.76   793.66   801.48   805.02   815.58   842.33
eigval :      861.69   863.00   870.37   872.73   873.62   883.23
eigval :      886.44   891.11   895.84   897.57   899.56   902.67
eigval :      902.89   904.01   904.85   907.83   907.99   911.44
eigval :      913.54   916.43   924.85   926.74   927.08   927.55
eigval :      928.70   929.95   930.39   931.11   932.69   938.78
eigval :      949.68   961.35   985.18   989.12   991.59  1002.36
eigval :     1002.60  1014.63  1028.62  1067.67  1077.50  1078.45
eigval :     1084.80  1090.39  1095.05  1096.83  1099.14  1106.01
eigval :     1115.24  1121.97  1123.54  1130.41  1132.76  1134.03
eigval :     1137.36  1138.01  1139.54  1151.20  1173.17  1178.92
eigval :     1181.56  1183.85  1188.50  1188.70  1189.51  1196.22
eigval :     1196.57  1197.35  1206.66  1221.40  1231.92  1247.65
eigval :     1252.24  1254.59  1261.31  1263.31  1267.41  1267.96
eigval :     1269.03  1274.26  1276.74  1279.46  1281.75  1288.61
eigval :     1299.55  1301.07  1312.04  1313.38  1315.87  1317.37
eigval :     1320.78  1328.52  1337.15  1345.04  1355.15  1371.37
eigval :     1383.46  1394.09  1398.01  1405.24  1407.21  1416.36
eigval :     1419.80  1429.06  1429.62  1431.62  1435.55  1437.40
eigval :     1455.55  1460.08  1471.93  1480.40  1481.25  1483.49
eigval :     1512.95  1515.37  1545.32  1557.66  1559.51  1559.54
eigval :     1563.29  1568.65  1569.55  1570.09  1573.55  1575.31
eigval :     1578.60  1579.89  1582.49  1590.95  1591.60  1591.65
eigval :     1593.15  1598.13  1603.42  3049.13  3049.57  3053.65
eigval :     3054.02  3068.94  3070.25  3070.32  3071.58  3072.32
eigval :     3073.83  3076.98  3078.58  3079.38  3079.65  3079.78
eigval :     3080.65  3080.74  3081.22  3082.76  3083.09  3083.95
eigval :     3084.04  3086.27  3087.69  3089.09  3089.75  3090.30
eigval :     3090.53  3090.64  3092.99  3094.51  3095.88  3098.21
eigval :     3101.54  3108.98  3113.09

   temp. (K)  partition function   enthalpy   heat capacity  entropy
                                   cal/mol     cal/K/mol   cal/K/mol   J/K/mol
 298.15  VIB  0.128E+24            27578.639    171.022    174.774
         ROT  0.248E+09              888.752      2.981     41.393
         INT  0.317E+32            28467.392    174.003    216.166
         TR   0.200E+29             1481.254      4.968     45.715
         TOT                       29948.6457   178.9713   261.8811  1095.7105

       T/K    H(0)-H(T)+PV         H(T)/Eh          T*S/Eh         G(T)/Eh
   ------------------------------------------------------------------------
    298.15    0.477262E-01    0.775611E+00    0.124428E+00    0.651182E+00
   ------------------------------------------------------------------------

         :::::::::::::::::::::::::::::::::::::::::::::::::::::
         ::                  THERMODYNAMIC                  ::
         :::::::::::::::::::::::::::::::::::::::::::::::::::::
         :: total free energy        -147.272110458017 Eh   ::
         ::.................................................::
         :: total energy             -147.923292833313 Eh   ::
         :: zero point energy           0.727884334182 Eh   ::
         :: G(RRHO) w/o ZPVE           -0.076701958886 Eh   ::
         :: G(RRHO) contrib.            0.651182375296 Eh   ::
         :::::::::::::::::::::::::::::::::::::::::::::::::::::

           -------------------------------------------------
          | TOTAL ENERGY             -147.923292833313 Eh   |
          | TOTAL ENTHALPY           -147.147682294349 Eh   |
          | TOTAL FREE ENERGY        -147.272110458017 Eh   |
          | GRADIENT NORM               0.000065718121 Eh/α |
          | HOMO-LUMO GAP               2.774812536996 eV   |
           -------------------------------------------------

 * finished run on 2025/08/24 at 19:26:23.032
