   * xtb version 6.7.1 (edcfbbe) compiled by 'albert@albert-system' on 2024-07-22

   ID    Z sym.   atoms
    1    6 C      1-4, 6-22, 24-36, 38-42, 44-59
    2    7 N      5, 23, 37, 43
    3    1 H      60-95

          program call               : xtb data2507/toluene/DmPy-PPI/DmPy-PPI_toluene_T1_crest.xyz --gfn 2 --uhf 2 --gbsa toluene --ohess vtight --parallel 40 --molden --ceasefiles --namespace data2507/toluene/DmPy-PPI/DmPy-PPI_toluene_T1_finalOpt
      * Solvation model:               GBSA
        Solvent                        toluene
        Solvent mass                       9.2140E+01 g/mol
          :  Hamiltonian                  GFN2-xTB          :
 * total energy  :  -147.8345563 Eh     change       -0.5640317E-08 Eh
 * total energy  :  -147.8345967 Eh     change       -0.4039787E-04 Eh
 * total energy  :  -147.8346157 Eh     change       -0.1895856E-04 Eh
 * total energy  :  -147.8346226 Eh     change       -0.6882226E-05 Eh
 * total energy  :  -147.8346291 Eh     change       -0.6522515E-05 Eh
 * total energy  :  -147.8346359 Eh     change       -0.6814063E-05 Eh
 * total energy  :  -147.8346428 Eh     change       -0.6935955E-05 Eh
 * total energy  :  -147.8346477 Eh     change       -0.4897626E-05 Eh
 * total energy  :  -147.8346523 Eh     change       -0.4546532E-05 Eh
 * total energy  :  -147.8346568 Eh     change       -0.4492054E-05 Eh
 * total energy  :  -147.8346985 Eh     change       -0.5532416E-06 Eh
 * total energy  :  -147.8346992 Eh     change       -0.7274599E-06 Eh
 * total energy  :  -147.8346998 Eh     change       -0.6418706E-06 Eh
 * total energy  :  -147.8347003 Eh     change       -0.4284058E-06 Eh
 * total energy  :  -147.8347007 Eh     change       -0.3921920E-06 Eh
 * total energy  :  -147.8347012 Eh     change       -0.5300974E-06 Eh
 * total energy  :  -147.8347018 Eh     change       -0.6268341E-06 Eh
 * total energy  :  -147.8347024 Eh     change       -0.5426950E-06 Eh
 * total energy  :  -147.8347024 Eh     change       -0.1897345E-07 Eh
   *** GEOMETRY OPTIMIZATION CONVERGED AFTER 44 ITERATIONS ***

 final structure:
================
95
 xtb: 6.7.1 (edcfbbe)
C            4.30930387828029        4.15892641422522       -0.90999407688840
C            4.94895535062438        3.37815195242995       -1.86086248539044
C            5.16286459266345        2.03210014968236       -1.62774930338051
C            4.73407330513907        1.46230449224090       -0.43021601084985
N            4.93065262021439        0.08914306563432       -0.18881422957122
C            3.90140583249250       -0.87571106114930       -0.05351476151118
C            2.53708021992054       -0.71046609560618       -0.28006830609199
C            1.66219366665115       -1.78091023039884        0.10616326053910
C            0.31697593834330       -1.69391421850383       -0.04644623311110
C           -0.30244771814928       -0.54089803740286       -0.60397813357928
C           -1.73132541072920       -0.42633140842212       -0.72430908729185
C           -2.35590787087441        0.83344271950140       -0.79199115221087
C           -3.73084095134116        0.96038110657295       -0.88897776991636
C           -4.34831889811342        2.29539555420184       -0.96105459128037
C           -5.40842628206744        2.54235885142592       -1.83133355134299
C           -5.97526179301012        3.80181006147872       -1.90407708889455
C           -5.49967285983461        4.83081852111813       -1.11176256478881
C           -4.43931520636773        4.60627013514146       -0.23593504715021
C           -3.91605664259515        5.69637309021831        0.59842136187507
C           -4.75879440711754        6.61041358428985        1.22972690527883
C           -4.20864034273538        7.62169124450039        1.99800782214522
C           -2.82805598539188        7.68704457590619        2.11320085230965
N           -2.01268085630274        6.83127569329370        1.51735303829076
C           -2.54318443614437        5.87014162337413        0.78431405850879
C           -3.87461077943535        3.33678847499328       -0.16968209685843
C           -4.52413933962940       -0.18761886024113       -0.92392393111638
C           -3.93690715534873       -1.45239417056781       -0.86735244319118
C           -4.77686628602017       -2.66176391373732       -0.91245313967681
C           -4.41191320903173       -3.75329624010819       -1.69783208194162
C           -5.20659079567894       -4.88462794389996       -1.73435914902169
C           -6.37113350271596       -4.94658652763599       -0.99080775312161
C           -6.75272287462654       -3.86719538280762       -0.19622954442821
C           -7.98338974686625       -3.92696586541283        0.60378862072023
C           -9.15753843576367       -4.48906667461593        0.10369358192701
C          -10.28900110285856       -4.51825036683556        0.90015471615302
C          -10.21221438659024       -3.97989687585961        2.17600521898636
N           -9.10485875033417       -3.44839595729144        2.66933035453068
C           -8.02783327124030       -3.42598000375204        1.90641036450412
C           -5.94866083235533       -2.73227502353378       -0.16695845316529
C           -2.56076490012537       -1.56282246800627       -0.76967123330325
C            0.56851730752815        0.49252942773399       -1.04370535640070
C            1.91825180882066        0.41993040341873       -0.90024675207386
N            4.43172919777905       -2.07449244122739        0.28633800709378
C            5.74307396128465       -1.91730683229685        0.32664523259089
C            6.73034604547473       -2.91539496623488        0.58226209898315
C            6.36043614657926       -4.24501313018718        0.79709405241285
C            7.31950575479701       -5.21129774497182        1.01080913126524
C            8.66068049189446       -4.84650033968027        1.00323856734294
C            9.03649032619322       -3.53414951941948        0.79602521530613
C            8.08958664675226       -2.52226583466241        0.58687054075629
C            8.45066862575809       -1.12694618916246        0.39814199107487
C            9.77698759332487       -0.69779577857253        0.47757667708853
C           10.13464285820098        0.62704030847080        0.33449171700582
C            9.15319896536425        1.59593657066749        0.11772595079057
C            7.83930664817143        1.22335624420310        0.02578280096438
C            7.44651487187324       -0.13079232972263        0.14271733573378
C            6.11284189968268       -0.56162025998623        0.05493704301623
C            4.09397135304930        2.24690038017526        0.52626098896712
C            3.88415793562838        3.59164772419334        0.28110638771079
H            4.14135337097076        5.20840434369050       -1.09804652754909
H            5.27784626871477        3.81667354338154       -2.79110036105896
H            5.65650618390649        1.41315107292384       -2.36315719496104
H            2.11814888926429       -2.65056929313926        0.55200556336932
H           -0.30143821648167       -2.50580054213964        0.30477710801317
H           -1.75307770342657        1.72700246286958       -0.75251066412071
H           -5.77380105797480        1.74955835423417       -2.46736090927687
H           -6.79132788030475        3.98498853010126       -2.58825620099047
H           -5.93451680386108        5.81674078158123       -1.18722369102738
H           -5.83097036741895        6.51570253319503        1.13239478403732
H           -4.83604390236867        8.34111587442828        2.50149245762014
H           -2.34706139410144        8.45441425785807        2.70594039081239
H           -1.83283032823590        5.20940837294819        0.30332068723936
H           -3.07739730846518        3.14864473921623        0.53485241266946
H           -5.59739593388980       -0.09780727503424       -0.99568340617228
H           -3.51262477405075       -3.70552144560041       -2.29422169185874
H           -4.91607332484962       -5.72567315865422       -2.34737892317896
H           -6.97634627412065       -5.84109964110413       -1.00839078992477
H           -9.18504394267351       -4.88013701189844       -0.90349718618002
H          -11.21264270709173       -4.94315840906259        0.53803216314058
H          -11.06914083250772       -3.96990541328969        2.83719676194237
H           -7.14451250831224       -2.99839443209146        2.36421407299426
H           -6.24021399481854       -1.89107119247634        0.44523466036528
H           -2.11945114759583       -2.54661412281202       -0.73990918772724
H            0.15086914910825        1.34717090528265       -1.55469879483276
H            2.53118094800534        1.20883678434604       -1.30357913121244
H            5.30825716947878       -4.48476028700336        0.78397258852147
H            7.03465064518021       -6.23920376638274        1.17720928000317
H            9.42183133080502       -5.59692724086800        1.16108190413469
H           10.08964116386185       -3.30378080133842        0.79614033590038
H           10.56076883674126       -1.41336267490198        0.66661001077009
H           11.17294282107574        0.91503664351896        0.40218608749746
H            9.42887416341764        2.63613870699331        0.02770167369658
H            7.08361290681531        1.97607660316131       -0.12512596878851
H            3.76262181197578        1.79319939769865        1.44879402110666
H            3.38775751884618        4.19800604337079        1.02372488139793

          :  Hamiltonian                  GFN2-xTB          :
         :: gradient norm              0.000081509800 Eh/a0 ::
         :: HOMO-LUMO gap              0.550934148393 eV    ::
         :: SCC energy              -150.600108955186 Eh    ::
         :: -> dispersion             -0.130687003143 Eh    ::
         :: -> Gsolv                  -0.065529389687 Eh    ::
         :: repulsion energy           2.765406565658 Eh    ::

    * Orbital Energies and Occupations

         #    Occupation            Energy/Eh            Energy/eV
      -------------------------------------------------------------
         1        2.0000           -0.6885419             -18.7362
       ...           ...                  ...                  ...
       127        2.0000           -0.4065060             -11.0616
       128        2.0000           -0.4017262             -10.9315
       129        2.0000           -0.4011997             -10.9172
       130        2.0000           -0.3977970             -10.8246
       131        2.0000           -0.3951805             -10.7534
       132        2.0000           -0.3874805             -10.5439
       133        2.0000           -0.3852925             -10.4843
       134        2.0000           -0.3846870             -10.4679
       135        2.0000           -0.3819183             -10.3925
       136        1.9991           -0.3708691             -10.0919
       137        1.9982           -0.3701741             -10.0729
       138        1.0027           -0.3585864              -9.7576
       139        1.0000           -0.2795954              -7.6082 (HOMO)
       140        0.0000           -0.2593492              -7.0572 (LUMO)
       141        0.0000           -0.2586534              -7.0383
       142        0.0000           -0.2566535              -6.9839
       143                         -0.2525375              -6.8719
       144                         -0.2484962              -6.7619
       145                         -0.2470883              -6.7236
       146                         -0.2449823              -6.6663
       147                         -0.2399376              -6.5290
       148                         -0.2373872              -6.4596
       149                         -0.2353981              -6.4055
       150                         -0.2205320              -6.0010
       ...                                ...                  ...
       272                          0.7231621              19.6782
      -------------------------------------------------------------
                  HL-Gap            0.0202462 Eh            0.5509 eV

     #   Z          covCN         q      C6AA      α(0)
     1   6 C        2.919    -0.030    28.760     8.794
     2   6 C        2.919    -0.027    28.678     8.782
     3   6 C        2.920    -0.039    28.975     8.827
     4   6 C        2.910     0.066    26.511     8.443
     5   7 N        2.813    -0.071    22.610     7.062
     6   6 C        3.131     0.128    25.000     8.186
     7   6 C        2.967    -0.012    28.314     8.728
     8   6 C        2.920    -0.034    28.847     8.808
     9   6 C        2.913    -0.036    28.890     8.814
    10   6 C        2.971     0.004    27.931     8.669
    11   6 C        2.967     0.008    27.826     8.653
    12   6 C        2.929    -0.043    29.078     8.843
    13   6 C        2.970     0.007    27.849     8.656
    14   6 C        2.976     0.011    27.767     8.644
    15   6 C        2.925    -0.035    28.867     8.811
    16   6 C        2.916    -0.030    28.757     8.794
    17   6 C        2.924    -0.036    28.897     8.815
    18   6 C        2.974     0.006    27.876     8.660
    19   6 C        2.972     0.002    27.987     8.678
    20   6 C        2.933    -0.017    28.423     8.743
    21   6 C        2.911    -0.040    28.992     8.829
    22   6 C        2.913     0.057    26.714     8.475
    23   7 N        1.835    -0.241    27.136     7.720
    24   6 C        2.917     0.057    26.729     8.478
    25   6 C        2.930    -0.039    28.981     8.829
    26   6 C        2.928    -0.044    29.084     8.844
    27   6 C        2.971     0.008    27.841     8.655
    28   6 C        2.976     0.011    27.762     8.643
    29   6 C        2.924    -0.035    28.872     8.812
    30   6 C        2.916    -0.030    28.753     8.793
    31   6 C        2.924    -0.036    28.897     8.816
    32   6 C        2.974     0.006    27.876     8.661
    33   6 C        2.972     0.002    27.986     8.678
    34   6 C        2.933    -0.017    28.429     8.744
    35   6 C        2.911    -0.040    28.995     8.830
    36   6 C        2.912     0.057    26.713     8.475
    37   7 N        1.835    -0.241    27.140     7.720
    38   6 C        2.917     0.057    26.730     8.478
    39   6 C        2.930    -0.039    28.970     8.827
    40   6 C        2.928    -0.043    29.073     8.843
    41   6 C        2.915    -0.035    28.861     8.809
    42   6 C        2.910    -0.043    29.069     8.841
    43   7 N        1.879    -0.314    28.993     7.982
    44   6 C        3.161     0.086    25.776     8.299
    45   6 C        2.983    -0.007    28.179     8.708
    46   6 C        2.922    -0.026    28.659     8.779
    47   6 C        2.916    -0.032    28.795     8.799
    48   6 C        2.917    -0.027    28.676     8.781
    49   6 C        2.922    -0.035    28.864     8.810
    50   6 C        2.976     0.000    28.018     8.683
    51   6 C        2.976    -0.002    28.069     8.690
    52   6 C        2.919    -0.032    28.802     8.801
    53   6 C        2.916    -0.032    28.797     8.800
    54   6 C        2.913    -0.032    28.797     8.800
    55   6 C        2.917    -0.037    28.912     8.817
    56   6 C        2.973    -0.013    28.332     8.731
    57   6 C        3.032     0.042    27.028     8.527
    58   6 C        2.921    -0.038    28.948     8.823
    59   6 C        2.919    -0.025    28.639     8.776
    60   1 H        0.926     0.046     2.376     2.410
    61   1 H        0.926     0.045     2.381     2.413
    62   1 H        0.926     0.039     2.456     2.451
    63   1 H        0.926     0.047     2.354     2.399
    64   1 H        0.926     0.037     2.492     2.468
    65   1 H        0.926     0.034     2.524     2.484
    66   1 H        0.926     0.036     2.503     2.474
    67   1 H        0.926     0.035     2.519     2.482
    68   1 H        0.926     0.034     2.532     2.489
    69   1 H        0.926     0.043     2.415     2.430
    70   1 H        0.926     0.042     2.428     2.437
    71   1 H        0.925     0.036     2.501     2.473
    72   1 H        0.925     0.036     2.503     2.474
    73   1 H        0.926     0.034     2.527     2.486
    74   1 H        0.926     0.033     2.547     2.496
    75   1 H        0.926     0.036     2.496     2.471
    76   1 H        0.926     0.035     2.513     2.479
    77   1 H        0.926     0.034     2.530     2.488
    78   1 H        0.926     0.043     2.410     2.428
    79   1 H        0.926     0.042     2.428     2.437
    80   1 H        0.925     0.036     2.503     2.474
    81   1 H        0.925     0.036     2.496     2.471
    82   1 H        0.926     0.034     2.532     2.489
    83   1 H        0.926     0.036     2.498     2.472
    84   1 H        0.926     0.034     2.530     2.487
    85   1 H        0.926     0.026     2.637     2.539
    86   1 H        0.926     0.049     2.330     2.387
    87   1 H        0.926     0.039     2.464     2.455
    88   1 H        0.926     0.040     2.452     2.448
    89   1 H        0.926     0.041     2.435     2.440
    90   1 H        0.926     0.041     2.437     2.441
    91   1 H        0.926     0.037     2.495     2.470
    92   1 H        0.926     0.035     2.521     2.483
    93   1 H        0.926     0.034     2.535     2.490
    94   1 H        0.926     0.037     2.488     2.467
    95   1 H        0.926     0.046     2.367     2.406

molecular dipole:
                 x           y           z       tot (Debye)
 q only:        0.489       0.390      -0.854
   full:        0.306       0.573      -1.240       3.558

 projected vibrational frequencies (cm⁻¹)
eigval :       -0.00    -0.00     0.00     0.00     0.00     0.00
eigval :      -11.16     8.72    11.16    12.62    15.63    25.08
eigval :       25.37    28.96    32.48    40.82    47.29    51.15
eigval :       60.28    65.35    67.31    70.80    83.20    87.06
eigval :       93.46    94.62   103.18   123.67   128.68   134.19
eigval :      136.34   159.04   181.73   197.48   200.83   217.38
eigval :      225.58   234.28   240.38   245.70   248.99   259.05
eigval :      263.70   270.04   289.50   303.93   311.40   315.99
eigval :      319.29   336.58   348.90   359.83   368.31   369.85
eigval :      373.03   374.48   377.89   385.85   397.48   402.59
eigval :      415.61   420.36   428.98   437.45   439.89   460.10
eigval :      478.02   485.57   492.12   496.96   515.71   519.01
eigval :      521.19   546.54   559.00   580.79   582.92   583.68
eigval :      588.57   590.24   593.08   600.28   603.48   606.10
eigval :      613.40   622.58   629.72   634.15   640.56   654.41
eigval :      656.68   660.17   665.99   668.37   671.94   674.63
eigval :      675.05   690.42   691.65   692.20   717.82   726.11
eigval :      734.14   751.48   757.41   759.70   771.60   775.13
eigval :      777.74   790.64   794.40   800.65   805.17   807.79
eigval :      821.67   847.87   849.38   862.05   865.24   865.63
eigval :      868.23   885.17   890.22   894.37   894.44   896.30
eigval :      900.11   900.68   903.26   905.93   906.54   909.29
eigval :      910.71   912.68   913.17   913.32   917.41   920.08
eigval :      924.73   926.05   926.52   927.17   930.82   931.96
eigval :      934.29   953.83   960.88   983.36   984.81   985.48
eigval :      996.57  1000.29  1001.39  1045.52  1060.08  1074.57
eigval :     1078.91  1088.40  1089.99  1091.28  1096.22  1097.22
eigval :     1100.65  1111.98  1113.53  1121.31  1130.81  1131.98
eigval :     1135.61  1137.96  1139.53  1143.06  1154.07  1174.77
eigval :     1175.75  1177.67  1182.45  1187.22  1189.47  1190.95
eigval :     1194.53  1195.81  1199.96  1219.20  1222.14  1233.25
eigval :     1244.30  1248.04  1249.71  1258.96  1262.22  1265.12
eigval :     1268.52  1269.08  1270.72  1278.18  1279.37  1279.54
eigval :     1282.68  1296.39  1306.67  1309.30  1313.39  1317.15
eigval :     1318.00  1326.55  1334.42  1335.81  1340.88  1349.40
eigval :     1376.57  1384.45  1388.30  1393.50  1397.79  1402.58
eigval :     1407.33  1415.75  1421.62  1424.46  1429.31  1436.50
eigval :     1441.78  1452.02  1452.99  1458.32  1472.66  1473.70
eigval :     1478.26  1480.82  1493.82  1505.63  1530.63  1535.71
eigval :     1539.35  1556.05  1557.72  1558.93  1565.10  1568.03
eigval :     1569.58  1569.90  1573.88  1574.53  1575.94  1580.31
eigval :     1589.23  1590.34  1592.02  3047.98  3050.25  3053.83
eigval :     3053.90  3068.53  3069.76  3071.12  3071.72  3074.16
eigval :     3077.86  3078.00  3079.02  3079.45  3080.23  3080.69
eigval :     3080.78  3081.49  3085.35  3086.67  3086.79  3087.50
eigval :     3087.88  3088.13  3089.45  3089.87  3091.00  3091.19
eigval :     3097.76  3099.57  3099.97  3100.78  3101.98  3107.71
eigval :     3110.48  3120.74  3127.50

   temp. (K)  partition function   enthalpy   heat capacity  entropy
                                   cal/mol     cal/K/mol   cal/K/mol   J/K/mol
 298.15  VIB  0.196E+24            27913.467    172.860    176.239
         ROT  0.246E+09              888.752      2.981     41.375
         INT  0.481E+32            28802.219    175.841    217.614
         TR   0.200E+29             1481.254      4.968     45.715
         TOT                       30283.4731   180.8091   263.3284  1101.7659

       T/K    H(0)-H(T)+PV         H(T)/Eh          T*S/Eh         G(T)/Eh
   ------------------------------------------------------------------------
    298.15    0.482598E-01    0.771969E+00    0.125116E+00    0.646853E+00
   ------------------------------------------------------------------------

         :::::::::::::::::::::::::::::::::::::::::::::::::::::
         ::                  THERMODYNAMIC                  ::
         :::::::::::::::::::::::::::::::::::::::::::::::::::::
         :: total free energy        -147.187849207720 Eh   ::
         ::.................................................::
         :: total energy             -147.834702390868 Eh   ::
         :: zero point energy           0.723709208399 Eh   ::
         :: G(RRHO) w/o ZPVE           -0.076856025251 Eh   ::
         :: G(RRHO) contrib.            0.646853183148 Eh   ::
         :::::::::::::::::::::::::::::::::::::::::::::::::::::

           -------------------------------------------------
          | TOTAL ENERGY             -147.834702390868 Eh   |
          | TOTAL ENTHALPY           -147.062733396268 Eh   |
          | TOTAL FREE ENERGY        -147.187849207720 Eh   |
          | GRADIENT NORM               0.000081428203 Eh/α |
          | HOMO-LUMO GAP               0.550928421405 eV   |
           -------------------------------------------------

 * finished run on 2025/08/24 at 19:41:17.295
