   * xtb version 6.7.1 (edcfbbe) compiled by 'albert@albert-system' on 2024-07-22

   ID    Z sym.   atoms
    1    6 C      1-4, 6-22, 24-36, 38-42, 44-59
    2    7 N      5, 23, 37, 43
    3    1 H      60-95

          program call               : xtb data2507/toluene/DmPy-PPI/DmPy-PPI_toluene_S0_finalOpt.xtbopt.xyz --gfn 2 --uhf 2 --gbsa toluene --ohess vtight --parallel 40 --molden --ceasefiles --namespace data2507/toluene/DmPy-PPI/DmPy-PPI_toluene_T1_preOpt
      * Solvation model:               GBSA
        Solvent                        toluene
        Solvent mass                       9.2140E+01 g/mol
          :  Hamiltonian                  GFN2-xTB          :
 * total energy  :  -147.8211967 Eh     change       -0.8168911E-08 Eh
 * total energy  :  -147.8270619 Eh     change       -0.5865242E-02 Eh
 * total energy  :  -147.8305041 Eh     change       -0.3442209E-02 Eh
 * total energy  :  -147.8312411 Eh     change       -0.7369955E-03 Eh
 * total energy  :  -147.8325962 Eh     change       -0.1355087E-02 Eh
 * total energy  :  -147.8330685 Eh     change       -0.4722635E-03 Eh
 * total energy  :  -147.8334167 Eh     change       -0.3482342E-03 Eh
 * total energy  :  -147.8336981 Eh     change       -0.2813962E-03 Eh
 * total energy  :  -147.8338857 Eh     change       -0.1876058E-03 Eh
 * total energy  :  -147.8340058 Eh     change       -0.1200788E-03 Eh
 * total energy  :  -147.8346363 Eh     change       -0.3743643E-06 Eh
 * total energy  :  -147.8346366 Eh     change       -0.3636086E-06 Eh
 * total energy  :  -147.8346370 Eh     change       -0.3456358E-06 Eh
 * total energy  :  -147.8346373 Eh     change       -0.3588021E-06 Eh
 * total energy  :  -147.8346378 Eh     change       -0.4429193E-06 Eh
 * total energy  :  -147.8346383 Eh     change       -0.5132245E-06 Eh
 * total energy  :  -147.8346388 Eh     change       -0.4641535E-06 Eh
 * total energy  :  -147.8346391 Eh     change       -0.3080486E-06 Eh
 * total energy  :  -147.8346391 Eh     change       -0.7540154E-07 Eh
   *** GEOMETRY OPTIMIZATION CONVERGED AFTER 82 ITERATIONS ***

 final structure:
================
95
 xtb: 6.7.1 (edcfbbe)
C            4.13830224454740        4.11477476970078       -0.75107593492094
C            4.91484853807783        3.41861235006190       -1.66514591769749
C            5.17113800231294        2.07258071355608       -1.48054010258661
C            4.64804011912596        1.41552566945065       -0.36763133565145
N            4.87995346005826        0.04105741456141       -0.17922493782250
C            3.87051527057828       -0.95242914103609       -0.12423309424482
C            2.51210347702053       -0.80201367226883       -0.39465032142615
C            1.63255323832682       -1.87395056409848       -0.02642935118654
C            0.28819904715419       -1.77815216098537       -0.18361831887143
C           -0.32222583640032       -0.61885191550454       -0.73872041132656
C           -1.75049387587578       -0.47958465270073       -0.83592439360732
C           -2.34850696616999        0.79254133199462       -0.91472757008671
C           -3.72197151340871        0.95071085206059       -0.97831781418330
C           -4.30691894416339        2.29958486735574       -1.06196854281783
C           -5.38795700226715        2.55654592524940       -1.90299633004139
C           -5.92092598823399        3.83001248259160       -1.98787097243139
C           -5.38955995339597        4.86365452544202       -1.23812173045778
C           -4.30755068681467        4.62925036040606       -0.39173274041034
C           -3.72325763467540        5.72324919114420        0.39564365127582
C           -4.51438558235765        6.68544073278434        1.02220756084831
C           -3.90663351031929        7.69889214238191        1.74277522543212
C           -2.52194253594782        7.71683548920985        1.81866495942878
N           -1.75496479933223        6.81441883777577        1.22734410773282
C           -2.34020842627754        5.85258753400672        0.53819885177821
C           -3.77858945283298        3.34529167360211       -0.31176341546475
C           -4.54240607393282       -0.17846398840334       -0.96441436911923
C           -3.98270334820129       -1.45506733570956       -0.89433435427524
C           -4.85201953501531       -2.64435040451572       -0.87652549808883
C           -4.54360402001598       -3.76619110572449       -1.64305992694490
C           -5.36589557243628       -4.87796691269939       -1.61600597245773
C           -6.50121836843291       -4.89039163555953       -0.82619185020983
C           -6.82567066429131       -3.78024579654039       -0.04881187676443
C           -8.02379965113659       -3.78757244140408        0.80130393538262
C           -9.23051617513074       -4.33374395243726        0.36515604611617
C          -10.32871112269635       -4.31288907174108        1.20718314123716
C          -10.18679621635465       -3.74237887554242        2.46330091935333
N           -9.04783220290868       -3.22527161186708        2.89622279956952
C           -8.00282551024201       -3.25034300767653        2.09005409885386
C           -5.99472222674980       -2.66509359812719       -0.08427063557787
C           -2.60728101504284       -1.59669808225926       -0.83391333430068
C            0.55852744624722        0.39956069181833       -1.19459926646150
C            1.90646286281246        0.32124837241744       -1.03963713754993
N            4.41327886157075       -2.15118251830060        0.19116233015606
C            5.71815933757677       -1.96621740200291        0.29149750813861
C            6.71833070184966       -2.95353473404242        0.53747079726570
C            6.37499127513700       -4.30260504578011        0.65282981109844
C            7.35007453888244       -5.25734151394150        0.84463831322063
C            8.68071359840316       -4.86149631932256        0.91241006547034
C            9.02968475667138       -3.52951679485396        0.80729796829871
C            8.06504543496246       -2.52936948967497        0.62628993925771
C            8.39488751677037       -1.11577048348442        0.54674644015017
C            9.69856120782977       -0.65818452044778        0.74695100390096
C           10.02455192370730        0.68207105691248        0.70989481383439
C            9.03106812081267        1.63601346868973        0.48354326105620
C            7.73841998843976        1.23556563119900        0.27676018335921
C            7.37971167579931       -0.13280370951198        0.28574773778642
C            6.06583525527699       -0.59164579145126        0.09460674524949
C            3.86988409592436        2.11603613016025        0.55212593475478
C            3.61815985149675        3.46120547844993        0.35517751707923
H            3.93690020779133        5.16434715468096       -0.90189031104590
H            5.31789626617009        3.92327270449610       -2.53049169729671
H            5.77019576643013        1.52111543331749       -2.19086817971382
H            2.08198098108074       -2.74687440688077        0.41986756514483
H           -0.33560589997147       -2.58762060211942        0.16322900019691
H           -1.72487607715271        1.67238109831194       -0.91090657095850
H           -5.79647969685253        1.76010782225833       -2.50743563355207
H           -6.75375654808068        4.02063904364213       -2.64941269210019
H           -5.79791531026722        5.85987828855484       -1.32519059142047
H           -5.59163817117974        6.62688238031306        0.95832104979336
H           -4.49340840657446        8.45539346994849        2.24091063368821
H           -1.99716185323371        8.48314404995805        2.37450779929212
H           -1.66772720115230        5.15314378752111        0.05747230126608
H           -2.96487195672955        3.15055145522984        0.37170825597538
H           -5.61499437385771       -0.06519222273261       -1.00707683295761
H           -3.66718668474989       -3.75770502221748       -2.27433682559386
H           -5.11978512138683       -5.74310681898389       -2.21479806064409
H           -7.12726802749395       -5.77003996988115       -0.79415932532014
H           -9.30865203464114       -4.75153287616579       -0.62854837318594
H          -11.27612989388969       -4.72474514396228        0.89490982817573
H          -11.01460854494631       -3.69454820078195        3.15899998995831
H           -7.09183982757569       -2.83192414760617        2.49945330580097
H           -6.24163854768607       -1.79993475387422        0.51399520030052
H           -2.18982459658103       -2.59036832510947       -0.79274227512345
H            0.15033605410231        1.24669154550232       -1.72521048777313
H            2.52942331038543        1.09535743646428       -1.45680863131617
H            5.33092860415325       -4.56591944475674        0.57979844176726
H            7.08600964630740       -6.30035131587115        0.93336783080922
H            9.45469432701310       -5.60272941024270        1.04992974811011
H           10.07583960802288       -3.27461254370259        0.86075603577163
H           10.48784823996363       -1.36352276299587        0.95111905241355
H           11.04607076070069        0.99260833989762        0.86985521089243
H            9.27989114978388        2.68681616394822        0.47696281287608
H            6.97177902212135        1.97657409895255        0.12296755684486
H            3.46543314017797        1.59685038266710        1.40859796003682
H            3.01430407966423        4.00085966417073        1.06910284537305

          :  Hamiltonian                  GFN2-xTB          :
         :: gradient norm              0.000152851932 Eh/a0 ::
         :: HOMO-LUMO gap              0.556030129787 eV    ::
         :: SCC energy              -150.599990310833 Eh    ::
         :: -> dispersion             -0.130907644405 Eh    ::
         :: -> Gsolv                  -0.065479989103 Eh    ::
         :: repulsion energy           2.765351164588 Eh    ::

    * Orbital Energies and Occupations

         #    Occupation            Energy/Eh            Energy/eV
      -------------------------------------------------------------
         1        2.0000           -0.6886630             -18.7395
       ...           ...                  ...                  ...
       127        2.0000           -0.4065072             -11.0616
       128        2.0000           -0.4012843             -10.9195
       129        2.0000           -0.4009838             -10.9113
       130        2.0000           -0.3978185             -10.8252
       131        2.0000           -0.3951954             -10.7538
       132        2.0000           -0.3874185             -10.5422
       133        2.0000           -0.3852781             -10.4839
       134        2.0000           -0.3847520             -10.4696
       135        2.0000           -0.3822316             -10.4011
       136        1.9992           -0.3710109             -10.0957
       137        1.9981           -0.3702199             -10.0742
       138        1.0027           -0.3586586              -9.7596
       139        1.0000           -0.2799151              -7.6169 (HOMO)
       140        0.0000           -0.2594814              -7.0608 (LUMO)
       141        0.0000           -0.2587939              -7.0421
       142        0.0000           -0.2569541              -6.9921
       143                         -0.2526027              -6.8737
       144                         -0.2485531              -6.7635
       145                         -0.2471618              -6.7256
       146                         -0.2450694              -6.6687
       147                         -0.2394693              -6.5163
       148                         -0.2364685              -6.4346
       149                         -0.2347264              -6.3872
       150                         -0.2207053              -6.0057
       ...                                ...                  ...
       272                          0.7228954              19.6710
      -------------------------------------------------------------
                  HL-Gap            0.0204337 Eh            0.5560 eV

     #   Z          covCN         q      C6AA      α(0)
     1   6 C        2.919    -0.031    28.774     8.796
     2   6 C        2.919    -0.027    28.687     8.783
     3   6 C        2.920    -0.040    28.992     8.830
     4   6 C        2.910     0.066    26.532     8.446
     5   7 N        2.812    -0.069    22.583     7.058
     6   6 C        3.134     0.129    24.984     8.182
     7   6 C        2.967    -0.012    28.309     8.727
     8   6 C        2.920    -0.034    28.843     8.807
     9   6 C        2.913    -0.036    28.889     8.814
    10   6 C        2.971     0.004    27.926     8.668
    11   6 C        2.967     0.009    27.826     8.652
    12   6 C        2.930    -0.044    29.081     8.844
    13   6 C        2.970     0.008    27.849     8.656
    14   6 C        2.976     0.011    27.768     8.644
    15   6 C        2.924    -0.035    28.866     8.811
    16   6 C        2.916    -0.030    28.758     8.794
    17   6 C        2.924    -0.036    28.897     8.815
    18   6 C        2.974     0.006    27.876     8.661
    19   6 C        2.972     0.002    27.988     8.678
    20   6 C        2.933    -0.017    28.424     8.743
    21   6 C        2.911    -0.040    28.992     8.829
    22   6 C        2.913     0.057    26.715     8.475
    23   7 N        1.835    -0.241    27.136     7.720
    24   6 C        2.917     0.057    26.730     8.478
    25   6 C        2.930    -0.040    28.983     8.829
    26   6 C        2.928    -0.044    29.081     8.844
    27   6 C        2.971     0.008    27.840     8.655
    28   6 C        2.976     0.011    27.762     8.643
    29   6 C        2.924    -0.035    28.871     8.812
    30   6 C        2.916    -0.030    28.753     8.793
    31   6 C        2.924    -0.036    28.897     8.816
    32   6 C        2.974     0.006    27.876     8.660
    33   6 C        2.972     0.002    27.986     8.678
    34   6 C        2.933    -0.017    28.428     8.744
    35   6 C        2.911    -0.040    28.994     8.830
    36   6 C        2.912     0.057    26.712     8.475
    37   7 N        1.835    -0.241    27.141     7.720
    38   6 C        2.917     0.057    26.730     8.478
    39   6 C        2.930    -0.039    28.970     8.827
    40   6 C        2.928    -0.043    29.072     8.842
    41   6 C        2.915    -0.035    28.864     8.810
    42   6 C        2.910    -0.042    29.048     8.838
    43   7 N        1.879    -0.314    28.995     7.982
    44   6 C        3.164     0.086    25.764     8.296
    45   6 C        2.983    -0.006    28.174     8.707
    46   6 C        2.922    -0.026    28.659     8.779
    47   6 C        2.916    -0.032    28.792     8.799
    48   6 C        2.917    -0.027    28.674     8.781
    49   6 C        2.921    -0.035    28.862     8.810
    50   6 C        2.977     0.000    28.014     8.682
    51   6 C        2.976    -0.002    28.068     8.690
    52   6 C        2.919    -0.032    28.803     8.801
    53   6 C        2.916    -0.032    28.797     8.800
    54   6 C        2.914    -0.032    28.793     8.799
    55   6 C        2.917    -0.037    28.915     8.818
    56   6 C        2.973    -0.012    28.321     8.729
    57   6 C        3.032     0.041    27.044     8.530
    58   6 C        2.921    -0.038    28.955     8.824
    59   6 C        2.919    -0.026    28.643     8.776
    60   1 H        0.926     0.045     2.382     2.413
    61   1 H        0.926     0.045     2.389     2.417
    62   1 H        0.926     0.039     2.459     2.452
    63   1 H        0.926     0.047     2.359     2.402
    64   1 H        0.926     0.037     2.486     2.466
    65   1 H        0.926     0.035     2.519     2.482
    66   1 H        0.926     0.036     2.503     2.474
    67   1 H        0.926     0.035     2.519     2.482
    68   1 H        0.926     0.034     2.532     2.488
    69   1 H        0.926     0.043     2.415     2.430
    70   1 H        0.926     0.041     2.429     2.437
    71   1 H        0.925     0.036     2.501     2.473
    72   1 H        0.925     0.036     2.502     2.473
    73   1 H        0.926     0.034     2.525     2.485
    74   1 H        0.926     0.033     2.546     2.495
    75   1 H        0.926     0.037     2.495     2.470
    76   1 H        0.926     0.035     2.512     2.479
    77   1 H        0.926     0.034     2.531     2.488
    78   1 H        0.926     0.043     2.410     2.428
    79   1 H        0.926     0.042     2.428     2.436
    80   1 H        0.925     0.036     2.503     2.474
    81   1 H        0.925     0.036     2.496     2.471
    82   1 H        0.926     0.034     2.533     2.489
    83   1 H        0.926     0.036     2.498     2.472
    84   1 H        0.926     0.034     2.525     2.485
    85   1 H        0.926     0.026     2.639     2.540
    86   1 H        0.926     0.049     2.328     2.386
    87   1 H        0.926     0.039     2.461     2.453
    88   1 H        0.926     0.040     2.449     2.447
    89   1 H        0.926     0.041     2.433     2.439
    90   1 H        0.926     0.041     2.436     2.441
    91   1 H        0.926     0.037     2.495     2.470
    92   1 H        0.926     0.035     2.519     2.482
    93   1 H        0.926     0.034     2.527     2.486
    94   1 H        0.926     0.036     2.503     2.474
    95   1 H        0.926     0.046     2.374     2.409

molecular dipole:
                 x           y           z       tot (Debye)
 q only:        0.417       0.359      -0.767
   full:        0.208       0.552      -1.113       3.201

 projected vibrational frequencies (cm⁻¹)
eigval :       -0.00    -0.00    -0.00    -0.00     0.00     0.00
eigval :        4.83     7.12     9.91    11.42    18.59    23.20
eigval :       27.59    30.11    31.88    40.71    45.09    50.32
eigval :       59.02    65.45    66.52    70.70    83.09    88.86
eigval :       93.93    94.93   105.52   123.58   128.52   134.75
eigval :      137.06   161.71   182.27   197.47   201.75   216.40
eigval :      225.31   234.03   239.22   245.79   250.26   260.42
eigval :      264.10   269.97   289.81   303.79   311.28   315.55
eigval :      321.22   335.87   348.77   358.74   368.64   368.84
eigval :      373.05   375.88   379.25   387.10   395.80   402.06
eigval :      416.53   419.55   429.48   439.29   440.51   461.22
eigval :      478.02   485.51   492.03   496.99   514.70   518.62
eigval :      523.39   545.64   559.44   580.77   582.96   583.88
eigval :      588.39   590.12   593.06   600.46   603.39   606.12
eigval :      613.37   622.10   629.76   633.22   640.95   653.96
eigval :      656.38   659.22   665.66   668.32   672.27   674.50
eigval :      675.52   689.22   691.81   692.30   718.88   726.60
eigval :      734.21   752.53   757.53   759.68   771.36   774.39
eigval :      778.23   790.44   794.12   800.65   804.09   807.21
eigval :      820.71   847.84   850.20   861.03   862.88   864.54
eigval :      871.01   885.49   890.10   894.23   895.54   897.76
eigval :      899.62   901.44   902.57   905.06   906.12   907.90
eigval :      910.60   911.72   915.35   915.83   917.29   920.06
eigval :      923.42   925.43   927.97   928.69   929.15   930.93
eigval :      933.18   953.91   960.62   983.47   984.82   985.56
eigval :      996.83   999.77  1001.22  1045.55  1059.91  1074.81
eigval :     1078.87  1088.08  1089.68  1090.98  1096.04  1096.52
eigval :     1100.66  1113.57  1113.59  1121.07  1131.80  1131.90
eigval :     1135.21  1139.00  1139.39  1142.90  1154.14  1175.67
eigval :     1177.24  1178.05  1182.72  1189.30  1190.51  1191.41
eigval :     1195.12  1198.30  1199.54  1220.06  1221.79  1232.68
eigval :     1243.82  1247.39  1249.83  1259.41  1262.81  1266.46
eigval :     1268.53  1269.96  1271.80  1278.40  1279.50  1279.54
eigval :     1282.55  1296.34  1306.60  1310.54  1313.36  1317.24
eigval :     1318.21  1326.28  1334.54  1335.47  1340.93  1348.62
eigval :     1377.24  1384.28  1388.19  1394.25  1398.09  1402.84
eigval :     1407.30  1415.51  1421.39  1424.29  1429.50  1436.25
eigval :     1441.87  1452.10  1452.88  1458.32  1472.12  1473.63
eigval :     1478.56  1480.90  1493.32  1505.95  1530.70  1535.52
eigval :     1539.61  1555.87  1558.27  1558.92  1565.05  1566.32
eigval :     1569.50  1569.73  1573.98  1574.67  1575.82  1578.80
eigval :     1589.30  1590.33  1592.08  3048.57  3049.04  3053.43
eigval :     3054.85  3069.77  3069.85  3071.16  3071.56  3074.12
eigval :     3078.14  3078.21  3079.41  3079.65  3080.53  3080.69
eigval :     3081.03  3081.70  3086.30  3086.61  3087.41  3087.46
eigval :     3087.94  3088.48  3089.42  3089.69  3090.47  3091.57
eigval :     3099.06  3099.57  3100.92  3101.10  3101.86  3106.68
eigval :     3110.05  3114.98  3126.91

   temp. (K)  partition function   enthalpy   heat capacity  entropy
                                   cal/mol     cal/K/mol   cal/K/mol   J/K/mol
 298.15  VIB  0.569E+24            27915.673    172.780    177.192
         ROT  0.243E+09              888.752      2.981     41.349
         INT  0.138E+33            28804.426    175.761    218.541
         TR   0.200E+29             1481.254      4.968     45.715
         TOT                       30285.6796   180.7289   264.2557  1105.6458

       T/K    H(0)-H(T)+PV         H(T)/Eh          T*S/Eh         G(T)/Eh
   ------------------------------------------------------------------------
    298.15    0.482633E-01    0.771994E+00    0.125556E+00    0.646438E+00
   ------------------------------------------------------------------------

         :::::::::::::::::::::::::::::::::::::::::::::::::::::
         ::                  THERMODYNAMIC                  ::
         :::::::::::::::::::::::::::::::::::::::::::::::::::::
         :: total free energy        -147.188201422056 Eh   ::
         ::.................................................::
         :: total energy             -147.834639140269 Eh   ::
         :: zero point energy           0.723730819098 Eh   ::
         :: G(RRHO) w/o ZPVE           -0.077293100886 Eh   ::
         :: G(RRHO) contrib.            0.646437718213 Eh   ::
         :::::::::::::::::::::::::::::::::::::::::::::::::::::

           -------------------------------------------------
          | TOTAL ENERGY             -147.834639140269 Eh   |
          | TOTAL ENTHALPY           -147.062645018658 Eh   |
          | TOTAL FREE ENERGY        -147.188201422056 Eh   |
          | GRADIENT NORM               0.000152862882 Eh/α |
          | HOMO-LUMO GAP               0.556027949198 eV   |
           -------------------------------------------------

 * finished run on 2025/08/24 at 19:34:49.429
