   * xtb version 6.7.1 (edcfbbe) compiled by 'albert@albert-system' on 2024-07-22

   ID    Z sym.   atoms
    1    6 C      1-4, 6-22, 24-28, 31-35, 37-53, 55-63, 65-69
    2    7 N      5, 23, 29, 30, 36, 54
    3    8 O      64
    4    1 H      70-107

          program call               : xtb data2507/toluene/2ICz-OXD/2ICz-OXD_toluene_S0_crest.xyz --gfn 2 --gbsa toluene --ohess vtight --parallel 40 --molden --ceasefiles --namespace data2507/toluene/2ICz-OXD/2ICz-OXD_toluene_S0_finalOpt
      * Solvation model:               GBSA
        Solvent                        toluene
        Solvent mass                       9.2140E+01 g/mol
          :  Hamiltonian                  GFN2-xTB          :
 * total energy  :  -173.9799901 Eh     change       -0.3506784E-08 Eh
 * total energy  :  -173.9800404 Eh     change       -0.5023128E-04 Eh
 * total energy  :  -173.9800684 Eh     change       -0.2799700E-04 Eh
 * total energy  :  -173.9800815 Eh     change       -0.1316424E-04 Eh
 * total energy  :  -173.9800942 Eh     change       -0.1268375E-04 Eh
 * total energy  :  -173.9801032 Eh     change       -0.8984092E-05 Eh
 * total energy  :  -173.9801118 Eh     change       -0.8560991E-05 Eh
 * total energy  :  -173.9801207 Eh     change       -0.8902376E-05 Eh
 * total energy  :  -173.9801269 Eh     change       -0.6199417E-05 Eh
 * total energy  :  -173.9801295 Eh     change       -0.2627640E-05 Eh
 * total energy  :  -173.9801526 Eh     change       -0.3351738E-06 Eh
 * total energy  :  -173.9801529 Eh     change       -0.2475362E-06 Eh
 * total energy  :  -173.9801532 Eh     change       -0.3319755E-06 Eh
 * total energy  :  -173.9801536 Eh     change       -0.3921429E-06 Eh
 * total energy  :  -173.9801539 Eh     change       -0.3512777E-06 Eh
 * total energy  :  -173.9801542 Eh     change       -0.3086645E-06 Eh
 * total energy  :  -173.9801545 Eh     change       -0.2495716E-06 Eh
 * total energy  :  -173.9801547 Eh     change       -0.1926383E-06 Eh
 * total energy  :  -173.9801547 Eh     change       -0.4522832E-08 Eh
   *** GEOMETRY OPTIMIZATION CONVERGED AFTER 44 ITERATIONS ***

 final structure:
================
107
 xtb: 6.7.1 (edcfbbe)
C           11.99254430331597        3.08183865392390       -2.63901317204908
C           11.86993062872331        1.71504134741375       -2.44889941337736
C           10.71410612169095        1.18818791090200       -1.90174662689949
C            9.67332391672926        2.03425398051820       -1.53074855569228
N            8.49760422312919        1.50005327634030       -0.97492815078175
C            7.21672050074923        1.73771800015186       -1.41860165170934
C            6.79636836256978        2.51592390033409       -2.48841414644218
C            5.43910604546294        2.63022942478887       -2.71237268042818
C            4.52040138521604        1.99847703241850       -1.87751773584811
C            4.93433995415095        1.19965088236659       -0.83065922129177
C            6.29770428143719        1.02369292994557       -0.60969877817061
C            7.08495899821417        0.29680622750450        0.35094447102330
C            8.43525269188998        0.65699977581973        0.11299391286217
C            9.49230208764715        0.26851622025332        0.93719395932062
C            9.22048428107457       -0.51621431639371        2.03345614085924
C            7.91472095446149       -0.95186287508929        2.26101195912259
C            7.35625266868158       -1.78698347834271        3.28657938699020
C            7.89809026830505       -2.43241325059846        4.39113880138902
C            7.06851610758412       -3.20573958689554        5.17888044670542
C            5.71943953605628       -3.35440721264462        4.86627786977321
C            5.15927864911719       -2.72284295006580        3.77081472554510
C            5.98165805626424       -1.92079401073438        2.99470444610201
N            5.68651472524827       -1.19484568070745        1.84899570884129
C            4.50760976683533       -1.36851109843016        1.11734194840909
C            3.26858350974771       -1.13502646101654        1.71271525871035
C            2.10771031119669       -1.33910166163759        0.99591808126169
C            2.16837311615601       -1.78285128165862       -0.32587845101625
C            0.96229515505055       -1.99343280304930       -1.08784683104930
N            0.87642812287350       -2.37963686800238       -2.32907952251851
N           -0.42719164344195       -2.44129545202822       -2.63901009091782
C           -1.09580453337655       -2.09051722110536       -1.57721554660882
C           -2.52895226705811       -2.00394495683692       -1.44373472479620
C           -3.33993622886422       -2.29453377268889       -2.54308877230832
C           -4.71091373588975       -2.20440167155708       -2.43370663452884
C           -5.29377412739528       -1.82085957035259       -1.22488634655006
N           -6.68457005762941       -1.75256427826174       -1.09988400858096
C           -7.51873981121407       -2.84743216270107       -1.27938132565229
C           -7.24200527506454       -4.09143519200477       -1.82533890866866
C           -8.26665943480487       -5.01913089503821       -1.87065945763502
C           -9.53432550612645       -4.72651295459799       -1.37319102846690
C           -9.80570176971329       -3.49975175732460       -0.80048034681338
C           -8.79217932655249       -2.55095222310080       -0.74759028926093
C           -8.71613590022162       -1.21932208228967       -0.21646524229944
C           -9.66130862267874       -0.43275508540984        0.44245265367927
C           -9.31350178503276        0.82545121722479        0.87531556600791
C           -8.03409184004453        1.30236006847829        0.58753927282191
C           -7.06764956922579        0.56200562116132       -0.13886099520639
C           -5.96077888628563        1.45419435116000       -0.36291365310212
C           -4.77514151527903        1.38628086782275       -1.09000817112214
C           -3.91969141089996        2.46981716307130       -1.08413622146521
C           -4.22184430960770        3.62695908259366       -0.36987260261822
C           -5.41310479612708        3.74447760739909        0.31756797247393
C           -6.28904991363585        2.66793817555150        0.29164424113245
N           -7.53530620536246        2.55665067401467        0.86388732100565
C           -8.20338037459206        3.56281514277104        1.58394671879462
C           -8.37396842284769        4.82611458181263        1.02644225131867
C           -9.02671839710385        5.81322505264779        1.74265271404092
C           -9.52058183898268        5.54673932660814        3.00927890514775
C           -9.35665621540279        4.28718445362605        3.56243246801252
C           -8.69643507791528        3.29691683553033        2.85778508235012
C           -7.40542770611171       -0.75530335700109       -0.46815525287173
C           -4.48304777326377       -1.53714869117550       -0.12493744456537
C           -3.11202839003183       -1.62612901748389       -0.23311574422278
O           -0.26510674540155       -1.79165223571976       -0.54864531031092
C            3.40964146898040       -2.01873297641223       -0.92173450761102
C            4.56765263490598       -1.81396765275162       -0.20538727463069
C            6.85070198973491       -0.59568037693253        1.40239284379432
C            9.80047697406134        3.40756988920849       -1.71451968774023
C           10.95586700330481        3.92454428341778       -2.27254096804205
H           12.89432512250269        3.48937043011924       -3.07082349143580
H           12.67478745255358        1.05412567048019       -2.73521426933429
H           10.60650316209564        0.12198440176953       -1.76730683053349
H            7.50965689581300        3.01819827326606       -3.12418577342734
H            5.08356640018673        3.23109816308461       -3.53656946066704
H            3.46319773389660        2.13375070283361       -2.05457566088572
H            4.20211283540141        0.73709298326602       -0.19083391191466
H           10.49583985012117        0.60617218268808        0.72987783825116
H           10.00884004242573       -0.80326566711481        2.71195642770337
H            8.94776269625607       -2.33217012930728        4.62320073242130
H            7.46897315599061       -3.71177529972715        6.04516948534915
H            5.09727585760937       -3.97965872120896        5.49001282262950
H            4.11685937944813       -2.86297869446797        3.52862435233247
H            3.22460148497922       -0.77024836947461        2.72770196224546
H            1.14780054175004       -1.14695903611193        1.45144426646643
H           -2.87127055254197       -2.57736386854088       -3.47227467216142
H           -5.33981564937070       -2.40401122424022       -3.28775488506429
H           -6.25951456874767       -4.33861379177373       -2.19727630688994
H           -8.07778571583586       -5.99284191452074       -2.29854899393149
H          -10.31016812118721       -5.47601419529925       -1.42980684225285
H          -10.78330186053605       -3.27938674257921       -0.39862230674852
H          -10.65458613836401       -0.81749358133116        0.61435677434699
H          -10.02140245841714        1.44912699945503        1.39856641691767
H           -4.52513788831745        0.51328531248975       -1.66897388134021
H           -2.99772583785300        2.41905550482847       -1.64549276682737
H           -3.52174068340959        4.44959178373576       -0.36844482346936
H           -5.65821376807735        4.64705079138309        0.85676607318740
H           -8.00413647346171        5.02278775115037        0.03097332955968
H           -9.15681235883028        6.79233159898635        1.30563633775347
H          -10.03284284901207        6.31875491634239        3.56362872877884
H           -9.73836619456724        4.07581244604069        4.55044791390306
H           -8.55253392584132        2.31767032567316        3.29011759990731
H           -4.93924562181578       -1.24508028870136        0.80853806624149
H           -2.48479953097199       -1.40694179861007        0.61751129391112
H            3.43801551116923       -2.36403121725461       -1.94265207856497
H            5.52984472804085       -1.99459819144783       -0.65926518911204
H            8.99772036934194        4.06229526162077       -1.40917018875678
H           11.04933064840868        4.99125822275122       -2.41413812592237

          :  Hamiltonian                  GFN2-xTB          :
         :: gradient norm              0.000044395120 Eh/a0 ::
         :: HOMO-LUMO gap              1.867347145111 eV    ::
         :: SCC energy              -177.135292870218 Eh    ::
         :: -> dispersion             -0.160898014606 Eh    ::
         :: -> Gsolv                  -0.070604033513 Eh    ::
         :: repulsion energy           3.155138173665 Eh    ::

    * Orbital Energies and Occupations

         #    Occupation            Energy/Eh            Energy/eV
      -------------------------------------------------------------
         1        2.0000           -0.7727950             -21.0288
       ...           ...                  ...                  ...
       149        2.0000           -0.4123092             -11.2195
       150        2.0000           -0.4100397             -11.1577
       151        2.0000           -0.4089961             -11.1294
       152        2.0000           -0.4013809             -10.9221
       153        2.0000           -0.3942138             -10.7271
       154        2.0000           -0.3937503             -10.7145
       155        2.0000           -0.3934411             -10.7061
       156        2.0000           -0.3861465             -10.5076
       157        2.0000           -0.3851341             -10.4800
       158        2.0000           -0.3638458              -9.9007
       159        2.0000           -0.3626415              -9.8680
       160        2.0000           -0.3578950              -9.7388
       161        2.0000           -0.3571714              -9.7191 (HOMO)
       162                         -0.2885477              -7.8518 (LUMO)
       163                         -0.2659197              -7.2360
       164                         -0.2495918              -6.7917
       165                         -0.2488981              -6.7729
       166                         -0.2433987              -6.6232
       167                         -0.2432853              -6.6201
       168                         -0.2367171              -6.4414
       169                         -0.2361229              -6.4252
       170                         -0.2333796              -6.3506
       171                         -0.2323276              -6.3220
       172                         -0.2322426              -6.3196
       ...                                ...                  ...
       314                          0.7613804              20.7182
      -------------------------------------------------------------
                  HL-Gap            0.0686237 Eh            1.8673 eV

     #   Z          covCN         q      C6AA      α(0)
     1   6 C        2.919    -0.032    28.801     8.801
     2   6 C        2.920    -0.028    28.694     8.784
     3   6 C        2.922    -0.041    29.020     8.834
     4   6 C        2.913     0.064    26.567     8.452
     5   7 N        2.802    -0.042    22.057     6.975
     6   6 C        3.079     0.046    26.876     8.499
     7   6 C        2.910    -0.052    29.290     8.874
     8   6 C        2.923    -0.035    28.878     8.813
     9   6 C        2.919    -0.043    29.061     8.840
    10   6 C        2.913    -0.040    28.986     8.828
    11   6 C        3.062    -0.018    28.396     8.738
    12   6 C        3.052    -0.038    28.890     8.815
    13   6 C        3.080     0.044    26.919     8.506
    14   6 C        2.911    -0.061    29.506     8.907
    15   6 C        2.916    -0.037    28.930     8.820
    16   6 C        3.067    -0.028    28.635     8.775
    17   6 C        3.066    -0.015    28.321     8.726
    18   6 C        2.913    -0.036    28.897     8.815
    19   6 C        2.920    -0.041    29.031     8.836
    20   6 C        2.924    -0.036    28.904     8.817
    21   6 C        2.910    -0.052    29.293     8.875
    22   6 C        3.073     0.044    26.931     8.509
    23   7 N        2.802    -0.043    22.073     6.978
    24   6 C        2.914     0.076    26.305     8.410
    25   6 C        2.920    -0.040    28.999     8.831
    26   6 C        2.922    -0.026    28.649     8.778
    27   6 C        2.974    -0.012    28.316     8.728
    28   6 C        3.163     0.218    23.125     7.860
    29   7 N        2.044    -0.216    26.454     7.629
    30   7 N        2.044    -0.216    26.455     7.629
    31   6 C        3.163     0.218    23.127     7.860
    32   6 C        2.974    -0.012    28.315     8.728
    33   6 C        2.924    -0.027    28.674     8.781
    34   6 C        2.920    -0.038    28.940     8.822
    35   6 C        2.914     0.076    26.309     8.411
    36   7 N        2.802    -0.043    22.062     6.976
    37   6 C        3.072     0.044    26.933     8.509
    38   6 C        2.910    -0.052    29.292     8.875
    39   6 C        2.924    -0.036    28.896     8.815
    40   6 C        2.920    -0.041    29.027     8.835
    41   6 C        2.913    -0.036    28.897     8.815
    42   6 C        3.066    -0.015    28.324     8.727
    43   6 C        3.067    -0.028    28.634     8.774
    44   6 C        2.916    -0.037    28.927     8.820
    45   6 C        2.912    -0.061    29.512     8.908
    46   6 C        3.081     0.044    26.919     8.506
    47   6 C        3.052    -0.038    28.895     8.816
    48   6 C        3.062    -0.018    28.397     8.739
    49   6 C        2.913    -0.040    28.996     8.830
    50   6 C        2.919    -0.043    29.074     8.842
    51   6 C        2.923    -0.036    28.889     8.814
    52   6 C        2.910    -0.052    29.295     8.875
    53   6 C        3.079     0.046    26.877     8.499
    54   7 N        2.802    -0.043    22.067     6.977
    55   6 C        2.913     0.064    26.567     8.452
    56   6 C        2.922    -0.041    29.021     8.834
    57   6 C        2.920    -0.028    28.692     8.784
    58   6 C        2.919    -0.032    28.798     8.800
    59   6 C        2.920    -0.028    28.694     8.784
    60   6 C        2.922    -0.041    29.020     8.834
    61   6 C        3.057     0.043    26.992     8.520
    62   6 C        2.921    -0.035    28.880     8.813
    63   6 C        2.922    -0.024    28.604     8.771
    64   8 O        1.721    -0.232    17.847     5.704
    65   6 C        2.923    -0.025    28.628     8.774
    66   6 C        2.921    -0.033    28.822     8.804
    67   6 C        3.058     0.043    26.990     8.520
    68   6 C        2.922    -0.041    29.025     8.835
    69   6 C        2.920    -0.028    28.694     8.784
    70   1 H        0.926     0.040     2.446     2.446
    71   1 H        0.926     0.041     2.432     2.439
    72   1 H        0.926     0.043     2.416     2.430
    73   1 H        0.926     0.031     2.567     2.505
    74   1 H        0.926     0.029     2.596     2.520
    75   1 H        0.926     0.022     2.706     2.572
    76   1 H        0.926     0.023     2.691     2.565
    77   1 H        0.926     0.032     2.557     2.501
    78   1 H        0.926     0.035     2.522     2.483
    79   1 H        0.926     0.031     2.566     2.505
    80   1 H        0.926     0.029     2.603     2.523
    81   1 H        0.926     0.030     2.587     2.515
    82   1 H        0.926     0.029     2.602     2.523
    83   1 H        0.926     0.056     2.245     2.343
    84   1 H        0.926     0.051     2.303     2.373
    85   1 H        0.926     0.062     2.176     2.307
    86   1 H        0.926     0.059     2.212     2.326
    87   1 H        0.926     0.030     2.581     2.512
    88   1 H        0.926     0.031     2.577     2.511
    89   1 H        0.926     0.029     2.601     2.522
    90   1 H        0.926     0.031     2.567     2.505
    91   1 H        0.926     0.035     2.521     2.483
    92   1 H        0.926     0.032     2.560     2.502
    93   1 H        0.926     0.024     2.679     2.560
    94   1 H        0.926     0.021     2.715     2.577
    95   1 H        0.926     0.029     2.605     2.524
    96   1 H        0.926     0.031     2.575     2.509
    97   1 H        0.926     0.042     2.426     2.436
    98   1 H        0.926     0.041     2.435     2.440
    99   1 H        0.926     0.040     2.444     2.445
   100   1 H        0.926     0.041     2.431     2.438
   101   1 H        0.926     0.042     2.418     2.431
   102   1 H        0.926     0.052     2.292     2.368
   103   1 H        0.926     0.051     2.309     2.376
   104   1 H        0.926     0.061     2.181     2.310
   105   1 H        0.926     0.055     2.261     2.351
   106   1 H        0.926     0.042     2.425     2.435
   107   1 H        0.926     0.041     2.438     2.442

molecular dipole:
                 x           y           z       tot (Debye)
 q only:        0.132       1.301       0.890
   full:        0.022       1.507       1.338       5.122

 projected vibrational frequencies (cm⁻¹)
eigval :       -0.00    -0.00     0.00     0.00     0.00     0.00
eigval :        4.67     5.77    10.65    16.35    17.80    26.40
eigval :       34.08    34.28    36.03    52.16    55.04    58.59
eigval :       61.61    65.13    66.07    68.29    72.02    85.37
eigval :       89.96    96.14   100.73   101.36   117.76   127.07
eigval :      134.25   148.63   152.86   155.33   158.79   170.96
eigval :      176.50   214.34   218.61   221.54   227.04   230.61
eigval :      235.10   243.68   245.29   262.74   264.98   285.55
eigval :      292.47   294.67   321.85   322.23   341.73   350.76
eigval :      376.41   377.65   378.46   379.27   381.51   381.79
eigval :      384.51   390.62   393.20   397.69   412.17   417.05
eigval :      419.73   426.49   441.28   443.77   452.17   454.85
eigval :      472.37   475.70   483.93   492.95   499.84   501.28
eigval :      503.06   504.99   520.94   523.15   535.53   536.32
eigval :      553.82   554.80   567.70   569.94   582.81   583.94
eigval :      591.42   591.74   594.72   596.27   606.11   607.12
eigval :      611.70   612.64   624.38   626.24   645.17   649.21
eigval :      673.20   673.53   674.10   674.90   675.19   679.15
eigval :      687.29   687.49   697.31   699.34   699.76   705.66
eigval :      708.45   712.53   721.54   722.93   757.05   759.74
eigval :      771.55   771.96   773.55   774.48   775.38   777.14
eigval :      816.51   818.14   818.41   821.85   840.65   840.87
eigval :      860.97   864.91   869.55   869.57   871.07   875.46
eigval :      878.70   878.80   882.17   882.54   894.80   895.23
eigval :      899.12   900.88   903.85   905.35   908.24   909.04
eigval :      913.33   913.62   914.48   914.96   918.77   920.53
eigval :      921.03   923.22   924.00   924.57   925.39   933.83
eigval :      934.14   934.63   934.94   935.22   970.34   972.61
eigval :      987.57   989.01  1005.44  1007.52  1010.11  1017.27
eigval :     1070.30  1070.67  1072.49  1073.02  1078.25  1078.37
eigval :     1081.08  1084.53  1084.70  1093.57  1101.41  1102.73
eigval :     1116.33  1116.45  1124.06  1128.05  1139.05  1140.00
eigval :     1149.83  1151.62  1170.30  1171.16  1174.55  1176.79
eigval :     1177.86  1178.82  1179.40  1180.34  1180.79  1183.63
eigval :     1184.70  1188.81  1190.37  1205.42  1206.39  1223.52
eigval :     1224.29  1239.77  1239.80  1253.43  1254.47  1258.32
eigval :     1259.85  1273.00  1273.42  1278.98  1285.98  1286.68
eigval :     1302.79  1308.38  1308.66  1311.77  1313.98  1315.00
eigval :     1315.37  1322.03  1323.71  1346.54  1346.63  1360.27
eigval :     1360.69  1362.22  1362.85  1371.15  1371.93  1394.60
eigval :     1394.87  1402.96  1403.18  1409.17  1410.92  1426.21
eigval :     1426.49  1432.36  1432.78  1433.68  1434.13  1463.29
eigval :     1463.82  1465.42  1467.63  1476.71  1476.91  1480.64
eigval :     1480.77  1482.33  1482.41  1532.99  1535.75  1557.06
eigval :     1559.56  1567.48  1567.71  1573.99  1574.02  1581.59
eigval :     1581.98  1583.83  1584.20  1587.71  1587.86  1592.70
eigval :     1592.84  1595.17  1595.50  1604.74  1604.84  1606.47
eigval :     1606.75  3069.62  3071.19  3071.96  3072.38  3076.49
eigval :     3076.66  3077.81  3078.02  3078.34  3079.16  3079.39
eigval :     3080.07  3085.66  3086.74  3087.01  3087.97  3088.14
eigval :     3089.48  3089.77  3090.25  3090.28  3090.73  3091.61
eigval :     3091.72  3092.99  3095.96  3097.04  3097.09  3097.16
eigval :     3098.89  3099.67  3100.56  3100.58  3102.59  3112.46
eigval :     3114.99  3127.83  3127.98

   temp. (K)  partition function   enthalpy   heat capacity  entropy
                                   cal/mol     cal/K/mol   cal/K/mol   J/K/mol
 298.15  VIB  0.743E+25            31014.290    197.681    194.715
         ROT  0.364E+09              888.752      2.981     42.154
         INT  0.270E+34            31903.042    200.662    236.869
         TR   0.254E+29             1481.254      4.968     46.190
         TOT                       33384.2958   205.6304   283.0584  1184.3164

       T/K    H(0)-H(T)+PV         H(T)/Eh          T*S/Eh         G(T)/Eh
   ------------------------------------------------------------------------
    298.15    0.532013E-01    0.861796E+00    0.134490E+00    0.727306E+00
   ------------------------------------------------------------------------

         :::::::::::::::::::::::::::::::::::::::::::::::::::::
         ::                  THERMODYNAMIC                  ::
         :::::::::::::::::::::::::::::::::::::::::::::::::::::
         :: total free energy        -173.252848420792 Eh   ::
         ::.................................................::
         :: total energy             -173.980154702432 Eh   ::
         :: zero point energy           0.808595210983 Eh   ::
         :: G(RRHO) w/o ZPVE           -0.081288929342 Eh   ::
         :: G(RRHO) contrib.            0.727306281640 Eh   ::
         :::::::::::::::::::::::::::::::::::::::::::::::::::::

           -------------------------------------------------
          | TOTAL ENERGY             -173.980154702432 Eh   |
          | TOTAL ENTHALPY           -173.118358229634 Eh   |
          | TOTAL FREE ENERGY        -173.252848420792 Eh   |
          | GRADIENT NORM               0.000044392951 Eh/α |
          | HOMO-LUMO GAP               1.867347175554 eV   |
           -------------------------------------------------

 * finished run on 2025/09/11 at 19:46:16.171
