   * xtb version 6.7.1 (edcfbbe) compiled by 'albert@albert-system' on 2024-07-22

   ID    Z sym.   atoms
    1    6 C      1-4, 6-22, 24-28, 31-35, 37-53, 55-63, 65-69
    2    7 N      5, 23, 29, 30, 36, 54
    3    8 O      64
    4    1 H      70-107

          program call               : xtb data2507/toluene/2ICz-OXD/2ICz-OXD_toluene_T1_crest.xyz --gfn 2 --uhf 2 --gbsa toluene --ohess vtight --parallel 40 --molden --ceasefiles --namespace data2507/toluene/2ICz-OXD/2ICz-OXD_toluene_T1_finalOpt
      * Solvation model:               GBSA
        Solvent                        toluene
        Solvent mass                       9.2140E+01 g/mol
          :  Hamiltonian                  GFN2-xTB          :
 * total energy  :  -173.8987721 Eh     change       -0.1322351E-07 Eh
 * total energy  :  -173.8988979 Eh     change       -0.1258543E-03 Eh
 * total energy  :  -173.8989730 Eh     change       -0.7509975E-04 Eh
 * total energy  :  -173.8989852 Eh     change       -0.1217068E-04 Eh
 * total energy  :  -173.8989981 Eh     change       -0.1293685E-04 Eh
 * total energy  :  -173.8990028 Eh     change       -0.4720567E-05 Eh
 * total energy  :  -173.8990134 Eh     change       -0.1053921E-04 Eh
 * total energy  :  -173.8990171 Eh     change       -0.3720153E-05 Eh
 * total energy  :  -173.8990222 Eh     change       -0.5120992E-05 Eh
 * total energy  :  -173.8990247 Eh     change       -0.2441731E-05 Eh
 * total energy  :  -173.8990644 Eh     change       -0.1430320E-05 Eh
 * total energy  :  -173.8990656 Eh     change       -0.1275878E-05 Eh
 * total energy  :  -173.8990671 Eh     change       -0.1404369E-05 Eh
 * total energy  :  -173.8990688 Eh     change       -0.1721052E-05 Eh
 * total energy  :  -173.8990704 Eh     change       -0.1641664E-05 Eh
 * total energy  :  -173.8990714 Eh     change       -0.9699959E-06 Eh
 * total energy  :  -173.8990721 Eh     change       -0.6943565E-06 Eh
 * total energy  :  -173.8990725 Eh     change       -0.4087368E-06 Eh
 * total energy  :  -173.8990725 Eh     change       -0.4520444E-08 Eh
   *** GEOMETRY OPTIMIZATION CONVERGED AFTER 44 ITERATIONS ***

 final structure:
================
107
 xtb: 6.7.1 (edcfbbe)
C           11.95999036280455        2.99003016638218       -2.81328996666802
C           11.84420579968732        1.62492438035639       -2.60689120087743
C           10.70074844220127        1.10162226921736       -2.03090838490023
C            9.66609264415533        1.95046626366575       -1.64924843854358
N            8.50266119256174        1.41970992154603       -1.06339097282720
C            7.21409177422454        1.65264446770363       -1.47800988934758
C            6.76746546816971        2.42055071598815       -2.54667239551291
C            5.40621756636416        2.53369731654066       -2.73605833593105
C            4.50650612307125        1.91053611452181       -1.87044164932355
C            4.94325519461180        1.12271973606708       -0.82616884265074
C            6.31280974773032        0.94814620168726       -0.63734651469702
C            7.12082105616462        0.23250809272889        0.30986218690809
C            8.46598933379552        0.59009590110049        0.03650085144355
C            9.54113290871901        0.21879258390991        0.84324493891379
C            9.29572973393341       -0.54758793413357        1.96486386517080
C            8.00077607785515       -0.97833479209446        2.23002357620383
C            7.46435624731516       -1.79449310293469        3.28489667019288
C            8.02647786044725       -2.41261102907470        4.39228621485824
C            7.20994777355166       -3.17413857445998        5.21026455882829
C            5.85890857109396       -3.33752629156637        4.92109752549366
C            5.27910636575262       -2.73385017970507        3.81734727632689
C            6.08625724012301       -1.94383509327916        3.01462172196672
N            5.77024541128445       -1.24941973469069        1.85402946529964
C            4.56632026313507       -1.41148971906745        1.16284724702199
C            3.33805533782539       -1.16446272683319        1.79513371277971
C            2.16209372561898       -1.35674000806745        1.12112671844541
C            2.16422692145628       -1.82644256391256       -0.21653380918635
C            0.96700236393879       -2.02564241692029       -0.92207176408754
N            0.84123447813143       -2.44432053264448       -2.18230769903452
N           -0.43260837035584       -2.49263447169244       -2.47468967851625
C           -1.12476680718831       -2.10617045743954       -1.40170439727188
C           -2.52085663173979       -2.01147244286355       -1.28968922164916
C           -3.34748437086887       -2.33287359407258       -2.39640659433456
C           -4.70807383390826       -2.23754194715094       -2.29925832144786
C           -5.30784375560145       -1.80073845499462       -1.10525474127917
N           -6.69867826534643       -1.73020521438277       -0.99063460679457
C           -7.53770894523581       -2.82207906933125       -1.17147679852677
C           -7.24824612392680       -4.08620013800069       -1.66022227262764
C           -8.28087984071002       -5.00758649249909       -1.71878835639488
C           -9.56418129192238       -4.68683168005422       -1.28735442840109
C           -9.84855702595691       -3.43678789857602       -0.76559823210817
C           -8.82983981903268       -2.49732758955847       -0.70330844228149
C           -8.75806912704050       -1.14901213359359       -0.20999089973451
C           -9.71096914630366       -0.33741478165207        0.39498923873063
C           -9.36158918818462        0.93476219258035        0.80082356508736
C           -8.07139550225741        1.39197065734072        0.53510709346076
C           -7.08954469318621        0.62237999548786       -0.14015773795834
C           -5.97805971342819        1.50187263944635       -0.37178223296186
C           -4.77613216774626        1.40349142811858       -1.07034074492841
C           -3.92156153745731        2.48588345786524       -1.08829827551610
C           -4.23683728660942        3.67208140272021       -0.42441473724560
C           -5.43959913580867        3.81825651048200        0.23422870980086
C           -6.31792930507046        2.74148811383051        0.23109266968478
N           -7.57460523270418        2.65416423268657        0.77792064829262
C           -8.25574682440723        3.68564375814407        1.44958538748810
C           -8.41248748707822        4.92894683369463        0.84533949452900
C           -9.07686361209872        5.94063255399957        1.51519237370054
C           -9.59428244218422        5.71810296631296        2.78099550531686
C           -9.44404441596590        4.47785999861893        3.37997729537516
C           -8.77395429783560        3.46258778574485        2.72162674208595
C           -7.42680419456928       -0.70666139788785       -0.43536173798432
C           -4.49868025501764       -1.47840985180689       -0.00252038752258
C           -3.13819715877564       -1.58837995804028       -0.08537254347567
O           -0.27346568094363       -1.79085421635609       -0.35958018588077
C            3.41151231549519       -2.08528543859769       -0.84015208176154
C            4.58076361930279       -1.87339427554469       -0.16658093926628
C            6.90962645348072       -0.64429009840919        1.38347208330871
C            9.78546341575117        3.32204573299287       -1.85005434993884
C           10.92898146534169        3.83496098456656       -2.43565639014515
H           12.85209972331320        3.39465450267891       -3.26709770408589
H           12.64426813150017        0.96259102580051       -2.90258046129261
H           10.59704111204165        0.03666727474915       -1.88481643506129
H            7.46515416838116        2.91315787411585       -3.20640751703065
H            5.02894641472210        3.12380544209449       -3.55803903971574
H            3.44558771330570        2.04257961580164       -2.02489483822920
H            4.22763134216278        0.66211956745582       -0.16684571031023
H           10.53911717345830        0.55421219623204        0.60897316641258
H           10.10124518758347       -0.81842321497999        2.62904874556826
H            9.07878791668708       -2.30491583262524        4.60663120266651
H            7.62667938041803       -3.65854743851322        6.08080012298641
H            5.24870112925649       -3.95199281509191        5.56634554843258
H            4.23537017668188       -2.88467648470301        3.58901643800712
H            3.33129110608277       -0.78329569045440        2.80604273496689
H            1.21496895037272       -1.14423817596467        1.59450377008046
H           -2.86906560992866       -2.64259488108526       -3.31199869796588
H           -5.33306127665349       -2.45863091121596       -3.15195802743780
H           -6.25168886571006       -4.35171621957072       -1.97730636455812
H           -8.08247692205898       -5.99644298200914       -2.10467161377634
H          -10.34491811738070       -5.43014560790184       -1.35116412216181
H          -10.83940158202597       -3.19720636140298       -0.41092650170072
H          -10.71299405421738       -0.70516209070752        0.54993599457597
H          -10.07919190830201        1.57960817399167        1.28304435491270
H           -4.51324682440628        0.50500716429770       -1.60215405721762
H           -2.98675421720820        2.41175521221205       -1.62473967886834
H           -3.53348820644418        4.49147773232267       -0.43991091160000
H           -5.69310962039430        4.73994066150019        0.73534545034767
H           -8.02372486959871        5.09066282231036       -0.14903864509464
H           -9.19661031177215        6.90426901187797        1.04265984010466
H          -10.11416742459277        6.50958239101995        3.29943528319215
H           -9.84387795279719        4.30109802932547        4.36744685680032
H           -8.63918826645669        2.49882864608337        3.19011081319354
H           -4.96758110975159       -1.15752101602375        0.91610256899384
H           -2.51409256727561       -1.35759396804435        0.76481115435986
H            3.40440858988423       -2.45482300619003       -1.85302950356805
H            5.53044941604217       -2.07377343632013       -0.64001449101031
H            8.98766938982029        3.97820910847036       -1.53545776072333
H           11.01750429085726        4.90010430316758       -2.59028704224132

          :  Hamiltonian                  GFN2-xTB          :
         :: gradient norm              0.000047932751 Eh/a0 ::
         :: HOMO-LUMO gap              0.551394144769 eV    ::
         :: SCC energy              -177.036129255736 Eh    ::
         :: -> dispersion             -0.160811860424 Eh    ::
         :: -> Gsolv                  -0.076311396759 Eh    ::
         :: repulsion energy           3.137056765057 Eh    ::

    * Orbital Energies and Occupations

         #    Occupation            Energy/Eh            Energy/eV
      -------------------------------------------------------------
         1        2.0000           -0.7293138             -19.8456
       ...           ...                  ...                  ...
       150        2.0000           -0.4074828             -11.0882
       151        2.0000           -0.4045724             -11.0090
       152        2.0000           -0.3996464             -10.8749
       153        2.0000           -0.3986174             -10.8469
       154        2.0000           -0.3928105             -10.6889
       155        2.0000           -0.3908693             -10.6361
       156        2.0000           -0.3771459             -10.2627
       157        1.9996           -0.3685674             -10.0292
       158        1.9975           -0.3667829              -9.9807
       159        1.9907           -0.3655255              -9.9465
       160        1.9141           -0.3633388              -9.8870
       161        1.0981           -0.3589853              -9.7685
       162        1.0000           -0.2754873              -7.4964 (HOMO)
       163        0.0000           -0.2552245              -6.9450 (LUMO)
       164        0.0000           -0.2550371              -6.9399
       165        0.0000           -0.2521728              -6.8620
       166                         -0.2426954              -6.6041
       167                         -0.2408513              -6.5539
       168                         -0.2368455              -6.4449
       169                         -0.2362018              -6.4274
       170                         -0.2348147              -6.3896
       171                         -0.2341116              -6.3705
       172                         -0.2241078              -6.0983
       173                         -0.2240959              -6.0980
       ...                                ...                  ...
       314                          0.7545532              20.5324
      -------------------------------------------------------------
                  HL-Gap            0.0202627 Eh            0.5514 eV

     #   Z          covCN         q      C6AA      α(0)
     1   6 C        2.919    -0.030    28.756     8.794
     2   6 C        2.920    -0.027    28.664     8.780
     3   6 C        2.922    -0.040    28.997     8.831
     4   6 C        2.914     0.062    26.602     8.458
     5   7 N        2.802    -0.031    21.836     6.940
     6   6 C        3.081     0.048    26.833     8.492
     7   6 C        2.909    -0.050    29.232     8.866
     8   6 C        2.923    -0.032    28.791     8.799
     9   6 C        2.919    -0.038    28.933     8.821
    10   6 C        2.912    -0.036    28.889     8.814
    11   6 C        3.063    -0.013    28.267     8.718
    12   6 C        3.052    -0.033    28.763     8.796
    13   6 C        3.081     0.044    26.918     8.506
    14   6 C        2.912    -0.052    29.281     8.873
    15   6 C        2.914    -0.034    28.836     8.806
    16   6 C        3.066    -0.020    28.448     8.746
    17   6 C        3.062    -0.013    28.269     8.719
    18   6 C        2.912    -0.032    28.790     8.798
    19   6 C        2.920    -0.037    28.909     8.817
    20   6 C        2.923    -0.033    28.829     8.805
    21   6 C        2.910    -0.044    29.090     8.844
    22   6 C        3.076     0.045    26.919     8.506
    23   7 N        2.800    -0.017    21.579     6.899
    24   6 C        2.913     0.047    26.945     8.512
    25   6 C        2.914    -0.042    29.043     8.837
    26   6 C        2.919    -0.039    28.968     8.826
    27   6 C        2.969    -0.023    28.575     8.768
    28   6 C        3.102     0.196    23.733     7.983
    29   7 N        2.028    -0.225    26.683     7.662
    30   7 N        2.028    -0.225    26.688     7.663
    31   6 C        3.102     0.195    23.736     7.984
    32   6 C        2.969    -0.023    28.574     8.768
    33   6 C        2.920    -0.040    28.985     8.829
    34   6 C        2.914    -0.041    29.021     8.834
    35   6 C        2.913     0.047    26.948     8.512
    36   7 N        2.800    -0.017    21.569     6.898
    37   6 C        3.076     0.045    26.923     8.507
    38   6 C        2.910    -0.044    29.089     8.844
    39   6 C        2.923    -0.033    28.825     8.804
    40   6 C        2.920    -0.036    28.905     8.816
    41   6 C        2.912    -0.032    28.792     8.799
    42   6 C        3.063    -0.013    28.271     8.719
    43   6 C        3.067    -0.021    28.454     8.747
    44   6 C        2.914    -0.034    28.838     8.806
    45   6 C        2.912    -0.052    29.294     8.875
    46   6 C        3.082     0.044    26.917     8.505
    47   6 C        3.051    -0.033    28.769     8.797
    48   6 C        3.063    -0.013    28.277     8.720
    49   6 C        2.912    -0.036    28.901     8.815
    50   6 C        2.919    -0.038    28.952     8.824
    51   6 C        2.923    -0.032    28.806     8.801
    52   6 C        2.909    -0.050    29.243     8.867
    53   6 C        3.081     0.048    26.835     8.492
    54   7 N        2.802    -0.032    21.865     6.945
    55   6 C        2.914     0.062    26.600     8.457
    56   6 C        2.922    -0.040    28.993     8.830
    57   6 C        2.920    -0.026    28.663     8.780
    58   6 C        2.919    -0.030    28.757     8.794
    59   6 C        2.920    -0.027    28.667     8.780
    60   6 C        2.922    -0.040    28.998     8.831
    61   6 C        3.057     0.045    26.935     8.511
    62   6 C        2.915    -0.037    28.924     8.819
    63   6 C        2.918    -0.037    28.921     8.819
    64   8 O        1.712    -0.297    18.946     5.877
    65   6 C        2.920    -0.038    28.936     8.821
    66   6 C        2.915    -0.036    28.904     8.816
    67   6 C        3.058     0.045    26.926     8.510
    68   6 C        2.922    -0.040    28.995     8.830
    69   6 C        2.920    -0.026    28.663     8.780
    70   1 H        0.926     0.043     2.411     2.428
    71   1 H        0.926     0.044     2.394     2.420
    72   1 H        0.926     0.045     2.383     2.414
    73   1 H        0.926     0.038     2.475     2.460
    74   1 H        0.926     0.035     2.515     2.480
    75   1 H        0.926     0.026     2.638     2.540
    76   1 H        0.926     0.031     2.579     2.511
    77   1 H        0.926     0.043     2.404     2.424
    78   1 H        0.926     0.045     2.379     2.412
    79   1 H        0.926     0.040     2.445     2.445
    80   1 H        0.926     0.037     2.487     2.466
    81   1 H        0.926     0.037     2.496     2.470
    82   1 H        0.926     0.036     2.502     2.474
    83   1 H        0.926     0.040     2.448     2.447
    84   1 H        0.926     0.032     2.562     2.503
    85   1 H        0.926     0.044     2.402     2.424
    86   1 H        0.926     0.043     2.409     2.427
    87   1 H        0.926     0.038     2.482     2.464
    88   1 H        0.926     0.037     2.487     2.466
    89   1 H        0.926     0.037     2.485     2.465
    90   1 H        0.926     0.040     2.448     2.447
    91   1 H        0.926     0.045     2.383     2.414
    92   1 H        0.926     0.043     2.413     2.429
    93   1 H        0.926     0.031     2.574     2.509
    94   1 H        0.926     0.026     2.651     2.546
    95   1 H        0.926     0.034     2.529     2.487
    96   1 H        0.926     0.037     2.488     2.467
    97   1 H        0.926     0.044     2.391     2.418
    98   1 H        0.926     0.044     2.400     2.422
    99   1 H        0.926     0.043     2.410     2.428
   100   1 H        0.926     0.044     2.396     2.421
   101   1 H        0.926     0.044     2.390     2.417
   102   1 H        0.926     0.036     2.499     2.472
   103   1 H        0.926     0.032     2.563     2.504
   104   1 H        0.926     0.043     2.403     2.424
   105   1 H        0.926     0.039     2.462     2.454
   106   1 H        0.926     0.045     2.388     2.417
   107   1 H        0.926     0.044     2.400     2.423

molecular dipole:
                 x           y           z       tot (Debye)
 q only:        0.296       2.584       1.557
   full:        0.187       2.749       1.966       8.604

 projected vibrational frequencies (cm⁻¹)
eigval :       -0.00     0.00     0.00     0.00     0.00     0.00
eigval :        4.63     7.61    11.08    16.87    17.86    26.32
eigval :       33.89    36.20    37.41    54.36    56.79    59.53
eigval :       61.60    65.13    66.69    68.56    78.76    89.20
eigval :       91.15    99.34   104.63   114.70   119.22   126.76
eigval :      132.95   146.41   150.39   154.78   156.78   166.47
eigval :      169.49   212.77   217.44   220.68   224.53   227.26
eigval :      233.97   241.03   243.01   258.80   261.30   282.49
eigval :      290.11   290.15   315.19   320.95   321.19   344.86
eigval :      363.38   377.47   378.09   380.26   380.98   382.48
eigval :      382.97   384.05   392.15   393.92   404.12   417.07
eigval :      419.00   424.19   436.53   440.09   445.35   450.98
eigval :      459.44   464.24   478.43   480.00   482.06   494.76
eigval :      495.70   506.64   515.85   516.05   534.71   535.73
eigval :      551.81   552.66   565.62   568.54   570.59   578.79
eigval :      585.55   589.82   591.80   593.64   595.37   603.73
eigval :      604.26   609.15   610.19   624.42   626.62   643.16
eigval :      645.50   656.02   658.79   672.56   673.43   674.34
eigval :      675.33   682.85   685.75   686.74   688.57   699.83
eigval :      700.50   704.60   708.72   711.15   754.02   755.06
eigval :      769.62   770.14   771.81   772.71   773.39   773.78
eigval :      799.72   801.03   812.24   814.44   835.72   838.16
eigval :      838.18   841.52   866.98   867.74   868.24   868.96
eigval :      876.04   876.15   881.88   882.10   890.28   891.15
eigval :      896.36   899.07   900.40   901.07   901.80   904.32
eigval :      905.05   907.45   909.15   909.81   911.89   915.26
eigval :      915.69   917.56   918.38   922.24   922.85   924.23
eigval :      926.95   927.16   933.75   934.66   934.71   935.54
eigval :      981.68   983.00   990.65   991.42  1005.37  1005.79
eigval :     1031.62  1044.00  1066.89  1067.79  1068.99  1070.35
eigval :     1076.69  1077.14  1081.26  1082.12  1095.66  1098.03
eigval :     1116.05  1116.94  1123.27  1125.17  1136.55  1137.50
eigval :     1140.34  1141.87  1150.60  1165.42  1171.24  1172.32
eigval :     1177.03  1177.75  1179.84  1180.25  1180.62  1182.89
eigval :     1186.01  1187.79  1198.91  1203.18  1204.34  1211.01
eigval :     1218.98  1219.98  1230.26  1234.19  1245.74  1247.85
eigval :     1252.33  1257.19  1270.97  1272.35  1275.89  1277.34
eigval :     1283.83  1298.26  1300.04  1300.84  1302.47  1314.73
eigval :     1315.01  1328.49  1330.64  1334.00  1340.30  1341.40
eigval :     1344.90  1353.01  1355.50  1356.85  1360.52  1362.94
eigval :     1386.17  1387.01  1394.89  1395.75  1409.15  1410.86
eigval :     1419.25  1420.75  1423.02  1423.96  1431.98  1432.98
eigval :     1435.10  1444.91  1445.42  1455.87  1464.07  1464.29
eigval :     1469.12  1469.29  1475.84  1476.43  1479.44  1479.94
eigval :     1526.08  1540.59  1547.28  1548.30  1554.26  1555.49
eigval :     1576.59  1576.77  1580.20  1580.86  1581.52  1581.66
eigval :     1587.81  1588.41  1588.97  1590.17  1591.87  1593.28
eigval :     1594.99  3074.18  3075.81  3076.86  3078.00  3078.26
eigval :     3078.82  3078.85  3079.28  3080.57  3081.19  3082.09
eigval :     3083.08  3084.15  3084.29  3084.32  3085.28  3088.65
eigval :     3088.74  3090.38  3092.13  3092.18  3092.51  3092.54
eigval :     3093.08  3093.98  3094.88  3095.17  3095.29  3098.12
eigval :     3098.66  3099.14  3101.09  3105.01  3105.14  3107.27
eigval :     3109.77  3131.02  3133.55

   temp. (K)  partition function   enthalpy   heat capacity  entropy
                                   cal/mol     cal/K/mol   cal/K/mol   J/K/mol
 298.15  VIB  0.497E+25            31269.339    199.952    195.523
         ROT  0.366E+09              888.752      2.981     42.168
         INT  0.182E+34            32158.092    202.933    237.691
         TR   0.254E+29             1481.254      4.968     46.190
         TOT                       33639.3454   207.9010   283.8808  1187.7575

       T/K    H(0)-H(T)+PV         H(T)/Eh          T*S/Eh         G(T)/Eh
   ------------------------------------------------------------------------
    298.15    0.536077E-01    0.857529E+00    0.134881E+00    0.722648E+00
   ------------------------------------------------------------------------

         :::::::::::::::::::::::::::::::::::::::::::::::::::::
         ::                  THERMODYNAMIC                  ::
         :::::::::::::::::::::::::::::::::::::::::::::::::::::
         :: total free energy        -173.176424014771 Eh   ::
         ::.................................................::
         :: total energy             -173.899072492767 Eh   ::
         :: zero point energy           0.803921720692 Eh   ::
         :: G(RRHO) w/o ZPVE           -0.081273242696 Eh   ::
         :: G(RRHO) contrib.            0.722648477995 Eh   ::
         :::::::::::::::::::::::::::::::::::::::::::::::::::::

           -------------------------------------------------
          | TOTAL ENERGY             -173.899072492767 Eh   |
          | TOTAL ENTHALPY           -173.041543062867 Eh   |
          | TOTAL FREE ENERGY        -173.176424014771 Eh   |
          | GRADIENT NORM               0.000048092747 Eh/α |
          | HOMO-LUMO GAP               0.551377074861 eV   |
           -------------------------------------------------

 * finished run on 2025/09/11 at 20:02:51.150
