   * xtb version 6.7.1 (edcfbbe) compiled by 'albert@albert-system' on 2024-07-22

   ID    Z sym.   atoms
    1    6 C      1-4, 6-22, 24-28, 31-35, 37-53, 55-63, 65-69
    2    7 N      5, 23, 29, 30, 36, 54
    3    8 O      64
    4    1 H      70-107

          program call               : xtb data2507/toluene/2ICz-OXD/2ICz-OXD_toluene_S0_finalOpt.xtbopt.xyz --gfn 2 --uhf 2 --gbsa toluene --ohess vtight --parallel 40 --molden --ceasefiles --namespace data2507/toluene/2ICz-OXD/2ICz-OXD_toluene_T1_preOpt
      * Solvation model:               GBSA
        Solvent                        toluene
        Solvent mass                       9.2140E+01 g/mol
          :  Hamiltonian                  GFN2-xTB          :
 * total energy  :  -173.8927568 Eh     change       -0.1432352E-07 Eh
 * total energy  :  -173.8972796 Eh     change       -0.4522868E-02 Eh
 * total energy  :  -173.8988379 Eh     change       -0.1558245E-02 Eh
 * total energy  :  -173.8989263 Eh     change       -0.8840447E-04 Eh
 * total energy  :  -173.8989675 Eh     change       -0.4123442E-04 Eh
 * total energy  :  -173.8989751 Eh     change       -0.7591503E-05 Eh
 * total energy  :  -173.8989880 Eh     change       -0.1291670E-04 Eh
 * total energy  :  -173.8989966 Eh     change       -0.8577121E-05 Eh
 * total energy  :  -173.8990041 Eh     change       -0.7466082E-05 Eh
 * total energy  :  -173.8990086 Eh     change       -0.4511346E-05 Eh
 * total energy  :  -173.8990450 Eh     change       -0.3807831E-06 Eh
 * total energy  :  -173.8990455 Eh     change       -0.4764711E-06 Eh
 * total energy  :  -173.8990460 Eh     change       -0.4827257E-06 Eh
 * total energy  :  -173.8990465 Eh     change       -0.4873060E-06 Eh
 * total energy  :  -173.8990469 Eh     change       -0.4572861E-06 Eh
 * total energy  :  -173.8990474 Eh     change       -0.4364010E-06 Eh
 * total energy  :  -173.8990478 Eh     change       -0.4222674E-06 Eh
 * total energy  :  -173.8990481 Eh     change       -0.2648020E-06 Eh
 * total energy  :  -173.8990481 Eh     change       -0.5743914E-07 Eh
   *** GEOMETRY OPTIMIZATION CONVERGED AFTER 44 ITERATIONS ***

 final structure:
================
107
 xtb: 6.7.1 (edcfbbe)
C           12.00178954496438        3.10926468342106       -2.65668714200009
C           11.88474553056101        1.74032111674313       -2.47825365363697
C           10.73275645466627        1.20472915763584       -1.93141543008614
C            9.69060345482636        2.04485445922230       -1.55076999467488
N            8.51894649176298        1.50080785716502       -0.99420506100823
C            7.23661588376847        1.73583557968310       -1.42624772815514
C            6.80449309464692        2.52483553042867       -2.48547281724358
C            5.44620120728369        2.63472467285042       -2.69661051225307
C            4.53506909757400        1.98729101074165       -1.86130080966301
C            4.95792091257675        1.17898080421639       -0.82700213089210
C            6.32488505745145        1.00802461090139       -0.61715209856320
C            7.12016221192070        0.27651691336136        0.32890496234566
C            8.46774969451227        0.64754064792748        0.08678266915752
C            9.53124833050860        0.26697697209363        0.90453355142969
C            9.27146429718320       -0.52406555532881        2.00548124461713
C            7.97505330626033       -0.96865143441485        2.23839355228935
C            7.42716521038257       -1.81028463172248        3.26687525932703
C            7.97496330202155       -2.44707094437111        4.37089694985275
C            7.15046839593100       -3.23173809666423        5.15842492429095
C            5.80616859850432       -3.39994312596403        4.84183242535514
C            5.24068423655025       -2.77720921768258        3.74127903242612
C            6.05503551229508       -1.96319139504773        2.97031522842380
N            5.75315125914082       -1.24547824114156        1.82016314346913
C            4.55521763256869       -1.39407289278332        1.11583449634605
C            3.32264406914671       -1.16675154882004        1.74739279655475
C            2.15081162387367       -1.35290447452009        1.06485368067611
C            2.16145927844215       -1.79624876764021       -0.28175545958049
C            0.96735449766279       -1.99262995309212       -0.99338455489369
N            0.84610754967502       -2.38542142669873       -2.26231105197671
N           -0.42724101657157       -2.44027007015110       -2.55618051690394
C           -1.12342454854676       -2.08437004193994       -1.47529421461933
C           -2.52027956177298       -2.00510495202655       -1.36090834957145
C           -3.34473243619147       -2.30363517978065       -2.47557919304137
C           -4.70591646288821       -2.21936824764114       -2.37642546865381
C           -5.30849254538207       -1.81776077681334       -1.17154587540793
N           -6.69959667041312       -1.75529720818876       -1.05592919092730
C           -7.53564228774956       -2.84397805848323       -1.26700612135475
C           -7.24247696463642       -4.09336638736406       -1.79016036163655
C           -8.27242259949947       -5.01578386093041       -1.87400840057147
C           -9.55675278083689       -4.71041872976460       -1.43451361040046
C           -9.84487001133074       -3.47587961617791       -0.87898474068300
C           -8.82880359453906       -2.53559229253036       -0.79063419500860
C           -8.76060554006654       -1.20133934125715       -0.25986045977699
C           -9.71473133870914       -0.41028016269324        0.36993940329372
C           -9.36743347283929        0.84951803671428        0.81429282036874
C           -8.07835339951174        1.31726775912112        0.56166851228070
C           -7.09565715150004        0.57075596082389       -0.13774032294836
C           -5.98598782467177        1.45909009860151       -0.34313780916401
C           -4.78448040814498        1.38464663914248       -1.04542881019012
C           -3.93152446515495        2.46833636487291       -1.02987236599623
C           -4.24847963364153        3.63298662925688       -0.32968610224585
C           -5.45101689931449        3.75646122087743        0.33403371270840
C           -6.32754519475198        2.67880831982629        0.29811323424504
N           -7.58365771738495        2.57228620897339        0.84306158373644
C           -8.26460928211671        3.58003804621190        1.54998228261170
C           -8.42227564023431        4.84330922224105        0.98889745299856
C           -9.08581398190828        5.83138289551498        1.69392325849784
C           -9.60137941706404        5.56565970488174        2.95212890255112
C           -9.45051806839966        4.30554572773190        3.50793904798828
C           -8.78127041729486        3.31352189123444        2.81428843911825
C           -7.43043118684881       -0.74951339439512       -0.47240222453649
C           -4.50161652230035       -1.52116539337556       -0.05997175366849
C           -3.14044348866192       -1.61943730177553       -0.14554213297612
O           -0.27557602860041       -1.78296640751683       -0.42640073442865
C            3.41302100112660       -2.03161233081526       -0.90610416933829
C            4.57828893586081       -1.82636986740059       -0.22332316905230
C            6.89582123883019       -0.62365980216185        1.38057567173173
C            9.81114625422420        3.42014817452332       -1.72333602671000
C           10.96346263114446        3.94557322336935       -2.27997403799509
H           12.90074516088465        3.52351078035714       -3.08770769999301
H           12.69062609415479        1.08470729532065       -2.77311159560863
H           10.62839683335522        0.13705235570447       -1.80722348013238
H            7.51092152032991        3.03570285318458       -3.12159444881517
H            5.08009791220577        3.24076603947286       -3.51202933119914
H            3.47630806567405        2.11660842211628       -2.03182516624602
H            4.23337527012020        0.69959893713290       -0.19130888117710
H           10.53061135157990        0.61445113432779        0.69495951907783
H           10.06688681000609       -0.80318872464000        2.67833270978089
H            9.02241186217667       -2.33558384035783        4.60607951851484
H            7.55571170927963       -3.73072540775972        6.02613743579973
H            5.18993813371160       -4.03320795853938        5.46274898366328
H            4.20252192517618       -2.93184096210642        3.49103929219448
H            3.30943433920715       -0.80628730063083        2.76579300513353
H            1.20042394053653       -1.15600979053226        1.53840744159885
H           -2.86423409458570       -2.58617378551878       -3.39884927638717
H           -5.32933609848096       -2.42173668827312       -3.23489085609913
H           -6.24496117678058       -4.34723387446874       -2.11361451102011
H           -8.07106472578142       -5.99344433630761       -2.28602269268746
H          -10.33530030809712       -5.45400610023903       -1.51868089493777
H          -10.83653464766142       -3.24899855316922       -0.51833975282569
H          -10.71586253540741       -0.78459851741550        0.51454563385381
H          -10.08592094807786        1.47784429543601        1.31658009066368
H           -4.52038964441048        0.50389420074615       -1.60560349492527
H           -2.99690936577621        2.41225223157573       -1.56885963626849
H           -3.54650620691358        4.45366331008972       -0.32009768586344
H           -5.70561526661027        4.66175783899474        0.86364576914287
H           -8.03502212391565        5.03894310898988        0.00003212148693
H           -9.20632135226336        6.81067400821514        1.25497067521273
H          -10.12045852386583        6.33894144357368        3.49811058702335
H           -9.84899178669867        4.09504592742482        4.48933045469493
H           -8.64593498012962        2.33421625444169        3.24907383952301
H           -4.97278496373015       -1.22937358582876        0.86714604819275
H           -2.51798720896369       -1.40768575983998        0.71077113708294
H            3.41254734978664       -2.37856584265890       -1.92699084636438
H            5.53121875205755       -2.00968935860049       -0.69710881409071
H            9.00731392037689        4.06924359010913       -1.40945076528212
H           11.05298181489880        5.01359459670975       -2.41267498886425

          :  Hamiltonian                  GFN2-xTB          :
         :: gradient norm              0.000083228675 Eh/a0 ::
         :: HOMO-LUMO gap              0.550535558065 eV    ::
         :: SCC energy              -177.036071445280 Eh    ::
         :: -> dispersion             -0.160795697859 Eh    ::
         :: -> Gsolv                  -0.076296562472 Eh    ::
         :: repulsion energy           3.137023303595 Eh    ::

    * Orbital Energies and Occupations

         #    Occupation            Energy/Eh            Energy/eV
      -------------------------------------------------------------
         1        2.0000           -0.7293051             -19.8454
       ...           ...                  ...                  ...
       150        2.0000           -0.4074808             -11.0881
       151        2.0000           -0.4045470             -11.0083
       152        2.0000           -0.3996527             -10.8751
       153        2.0000           -0.3986209             -10.8470
       154        2.0000           -0.3928158             -10.6891
       155        2.0000           -0.3908721             -10.6362
       156        2.0000           -0.3771614             -10.2631
       157        1.9996           -0.3685725             -10.0294
       158        1.9975           -0.3667842              -9.9807
       159        1.9908           -0.3655298              -9.9466
       160        1.9139           -0.3633329              -9.8868
       161        1.0982           -0.3589821              -9.7684
       162        1.0000           -0.2754722              -7.4960 (HOMO)
       163        0.0000           -0.2552415              -6.9455 (LUMO)
       164        0.0000           -0.2550435              -6.9401
       165        0.0000           -0.2521810              -6.8622
       166                         -0.2427056              -6.6044
       167                         -0.2408632              -6.5542
       168                         -0.2368245              -6.4443
       169                         -0.2362153              -6.4277
       170                         -0.2347983              -6.3892
       171                         -0.2341324              -6.3711
       172                         -0.2241007              -6.0981
       173                         -0.2240873              -6.0977
       ...                                ...                  ...
       314                          0.7544831              20.5305
      -------------------------------------------------------------
                  HL-Gap            0.0202308 Eh            0.5505 eV

     #   Z          covCN         q      C6AA      α(0)
     1   6 C        2.919    -0.030    28.756     8.794
     2   6 C        2.920    -0.027    28.664     8.780
     3   6 C        2.922    -0.040    28.997     8.831
     4   6 C        2.914     0.062    26.602     8.458
     5   7 N        2.802    -0.031    21.835     6.940
     6   6 C        3.081     0.048    26.833     8.492
     7   6 C        2.909    -0.050    29.232     8.866
     8   6 C        2.923    -0.032    28.791     8.799
     9   6 C        2.919    -0.038    28.933     8.821
    10   6 C        2.912    -0.036    28.890     8.814
    11   6 C        3.063    -0.013    28.267     8.718
    12   6 C        3.051    -0.033    28.764     8.796
    13   6 C        3.082     0.044    26.918     8.506
    14   6 C        2.912    -0.052    29.281     8.873
    15   6 C        2.914    -0.034    28.836     8.806
    16   6 C        3.067    -0.020    28.447     8.746
    17   6 C        3.062    -0.013    28.269     8.719
    18   6 C        2.912    -0.032    28.790     8.798
    19   6 C        2.920    -0.037    28.909     8.817
    20   6 C        2.923    -0.033    28.829     8.805
    21   6 C        2.910    -0.044    29.089     8.844
    22   6 C        3.076     0.045    26.920     8.507
    23   7 N        2.800    -0.017    21.573     6.898
    24   6 C        2.913     0.047    26.948     8.512
    25   6 C        2.914    -0.042    29.044     8.837
    26   6 C        2.919    -0.039    28.968     8.826
    27   6 C        2.968    -0.023    28.576     8.768
    28   6 C        3.102     0.195    23.734     7.983
    29   7 N        2.027    -0.225    26.684     7.662
    30   7 N        2.028    -0.225    26.689     7.663
    31   6 C        3.102     0.195    23.735     7.983
    32   6 C        2.969    -0.023    28.574     8.768
    33   6 C        2.920    -0.040    28.985     8.829
    34   6 C        2.914    -0.041    29.021     8.834
    35   6 C        2.913     0.047    26.948     8.512
    36   7 N        2.800    -0.017    21.569     6.898
    37   6 C        3.076     0.045    26.923     8.507
    38   6 C        2.910    -0.044    29.089     8.844
    39   6 C        2.923    -0.033    28.825     8.804
    40   6 C        2.920    -0.036    28.905     8.816
    41   6 C        2.912    -0.032    28.792     8.799
    42   6 C        3.063    -0.013    28.271     8.719
    43   6 C        3.067    -0.021    28.455     8.747
    44   6 C        2.914    -0.034    28.838     8.806
    45   6 C        2.912    -0.052    29.294     8.875
    46   6 C        3.082     0.044    26.918     8.505
    47   6 C        3.051    -0.033    28.768     8.797
    48   6 C        3.063    -0.013    28.277     8.720
    49   6 C        2.912    -0.036    28.900     8.815
    50   6 C        2.919    -0.038    28.951     8.823
    51   6 C        2.923    -0.032    28.806     8.801
    52   6 C        2.909    -0.050    29.244     8.867
    53   6 C        3.081     0.048    26.835     8.492
    54   7 N        2.802    -0.032    21.865     6.945
    55   6 C        2.914     0.062    26.600     8.457
    56   6 C        2.922    -0.040    28.994     8.830
    57   6 C        2.920    -0.026    28.663     8.780
    58   6 C        2.919    -0.030    28.757     8.794
    59   6 C        2.920    -0.027    28.667     8.780
    60   6 C        2.922    -0.040    28.999     8.831
    61   6 C        3.057     0.045    26.935     8.511
    62   6 C        2.915    -0.037    28.924     8.819
    63   6 C        2.918    -0.037    28.920     8.819
    64   8 O        1.712    -0.297    18.946     5.877
    65   6 C        2.920    -0.038    28.937     8.821
    66   6 C        2.915    -0.036    28.903     8.816
    67   6 C        3.057     0.045    26.928     8.510
    68   6 C        2.922    -0.040    28.995     8.830
    69   6 C        2.920    -0.026    28.663     8.780
    70   1 H        0.926     0.043     2.411     2.428
    71   1 H        0.926     0.044     2.395     2.420
    72   1 H        0.926     0.045     2.384     2.414
    73   1 H        0.926     0.038     2.475     2.460
    74   1 H        0.926     0.035     2.515     2.480
    75   1 H        0.926     0.027     2.636     2.539
    76   1 H        0.926     0.031     2.578     2.511
    77   1 H        0.926     0.043     2.404     2.425
    78   1 H        0.926     0.045     2.379     2.412
    79   1 H        0.926     0.040     2.445     2.445
    80   1 H        0.926     0.037     2.487     2.466
    81   1 H        0.926     0.036     2.496     2.471
    82   1 H        0.926     0.036     2.503     2.474
    83   1 H        0.926     0.040     2.448     2.447
    84   1 H        0.926     0.032     2.562     2.503
    85   1 H        0.926     0.043     2.403     2.424
    86   1 H        0.926     0.043     2.409     2.427
    87   1 H        0.926     0.038     2.482     2.464
    88   1 H        0.926     0.037     2.487     2.466
    89   1 H        0.926     0.037     2.486     2.465
    90   1 H        0.926     0.040     2.448     2.447
    91   1 H        0.926     0.045     2.383     2.414
    92   1 H        0.926     0.043     2.413     2.429
    93   1 H        0.926     0.031     2.575     2.509
    94   1 H        0.926     0.025     2.652     2.547
    95   1 H        0.926     0.034     2.529     2.487
    96   1 H        0.926     0.037     2.488     2.466
    97   1 H        0.926     0.044     2.391     2.418
    98   1 H        0.926     0.044     2.400     2.423
    99   1 H        0.926     0.043     2.410     2.428
   100   1 H        0.926     0.044     2.396     2.421
   101   1 H        0.926     0.044     2.390     2.418
   102   1 H        0.926     0.036     2.499     2.472
   103   1 H        0.926     0.032     2.563     2.504
   104   1 H        0.926     0.043     2.403     2.424
   105   1 H        0.926     0.039     2.460     2.453
   106   1 H        0.926     0.045     2.388     2.416
   107   1 H        0.926     0.044     2.400     2.423

molecular dipole:
                 x           y           z       tot (Debye)
 q only:        0.303       2.545       1.656
   full:        0.194       2.699       2.068       8.656

 projected vibrational frequencies (cm⁻¹)
eigval :       -0.00    -0.00    -0.00     0.00     0.00     0.00
eigval :        5.22     5.75    11.01    17.30    18.75    26.83
eigval :       34.21    35.30    36.42    53.25    56.78    58.66
eigval :       61.61    65.11    66.34    68.01    78.64    89.69
eigval :       91.56    99.80   104.41   115.73   118.74   127.88
eigval :      133.53   147.13   150.56   154.95   158.19   167.26
eigval :      169.63   213.30   217.46   220.80   224.96   227.78
eigval :      234.35   241.33   242.97   258.85   261.40   282.47
eigval :      290.19   290.65   315.76   321.56   322.09   345.25
eigval :      364.13   377.47   378.43   378.98   380.41   382.16
eigval :      383.25   384.54   392.04   393.95   404.79   419.33
eigval :      419.67   424.72   436.68   440.02   445.24   451.20
eigval :      459.20   463.68   477.59   479.18   482.23   495.37
eigval :      495.84   506.85   515.83   516.04   535.08   535.94
eigval :      552.11   552.68   565.51   568.46   570.66   578.67
eigval :      585.29   589.86   591.63   593.52   595.16   603.81
eigval :      604.36   609.21   610.18   623.70   626.01   642.86
eigval :      645.51   656.04   659.13   671.60   673.02   674.34
eigval :      675.03   682.71   685.82   686.87   688.53   699.89
eigval :      700.56   704.61   708.66   711.09   753.80   754.96
eigval :      769.11   769.85   772.58   773.40   774.85   774.96
eigval :      795.46   798.14   813.35   815.19   830.04   837.03
eigval :      838.18   839.55   869.07   869.40   870.26   870.98
eigval :      875.92   876.13   881.61   881.69   891.63   891.65
eigval :      896.16   897.93   898.57   901.33   902.39   903.19
eigval :      905.59   906.64   909.06   910.76   911.17   912.80
eigval :      915.25   917.48   917.88   920.88   925.04   925.28
eigval :      926.26   927.20   933.81   934.08   934.31   935.18
eigval :      981.71   983.01   990.73   991.53  1005.50  1005.83
eigval :     1031.61  1044.05  1067.07  1067.99  1069.64  1070.87
eigval :     1076.67  1077.27  1081.65  1082.27  1095.71  1098.07
eigval :     1116.12  1116.78  1122.39  1125.56  1136.49  1137.93
eigval :     1140.47  1141.68  1150.62  1165.42  1171.11  1172.32
eigval :     1177.06  1177.81  1178.67  1179.60  1180.97  1183.06
eigval :     1187.06  1187.75  1198.63  1203.07  1204.36  1211.29
eigval :     1219.34  1219.86  1230.83  1234.19  1246.40  1247.42
eigval :     1252.09  1257.21  1271.21  1271.91  1275.40  1277.46
eigval :     1283.53  1298.22  1300.12  1300.82  1302.45  1314.59
eigval :     1314.83  1328.64  1330.73  1334.47  1340.59  1341.39
eigval :     1345.05  1353.14  1355.42  1356.78  1360.59  1362.98
eigval :     1386.17  1386.95  1394.77  1395.49  1409.33  1410.61
eigval :     1419.37  1420.81  1423.16  1423.90  1431.68  1432.50
eigval :     1434.97  1445.03  1445.47  1456.07  1464.09  1464.31
eigval :     1469.17  1469.33  1475.76  1476.14  1479.33  1479.86
eigval :     1526.10  1540.62  1547.11  1548.37  1554.26  1555.46
eigval :     1576.48  1576.69  1580.32  1580.84  1581.30  1581.44
eigval :     1587.89  1588.42  1588.91  1590.10  1591.63  1593.15
eigval :     1594.98  3074.55  3076.07  3076.89  3078.01  3078.26
eigval :     3078.54  3078.98  3079.13  3080.59  3081.04  3081.95
eigval :     3083.28  3084.10  3084.38  3085.00  3085.42  3088.73
eigval :     3088.94  3090.50  3092.02  3092.28  3092.41  3092.44
eigval :     3093.29  3094.13  3094.86  3095.17  3095.60  3098.28
eigval :     3098.89  3098.95  3101.23  3105.08  3105.41  3106.82
eigval :     3109.37  3132.17  3132.85

   temp. (K)  partition function   enthalpy   heat capacity  entropy
                                   cal/mol     cal/K/mol   cal/K/mol   J/K/mol
 298.15  VIB  0.554E+25            31263.091    199.892    195.522
         ROT  0.366E+09              888.752      2.981     42.167
         INT  0.203E+34            32151.843    202.873    237.689
         TR   0.254E+29             1481.254      4.968     46.190
         TOT                       33633.0972   207.8409   283.8785  1187.7475

       T/K    H(0)-H(T)+PV         H(T)/Eh          T*S/Eh         G(T)/Eh
   ------------------------------------------------------------------------
    298.15    0.535978E-01    0.857523E+00    0.134880E+00    0.722643E+00
   ------------------------------------------------------------------------

         :::::::::::::::::::::::::::::::::::::::::::::::::::::
         ::                  THERMODYNAMIC                  ::
         :::::::::::::::::::::::::::::::::::::::::::::::::::::
         :: total free energy        -173.176404928955 Eh   ::
         ::.................................................::
         :: total energy             -173.899048147227 Eh   ::
         :: zero point energy           0.803925286965 Eh   ::
         :: G(RRHO) w/o ZPVE           -0.081282068692 Eh   ::
         :: G(RRHO) contrib.            0.722643218273 Eh   ::
         :::::::::::::::::::::::::::::::::::::::::::::::::::::

           -------------------------------------------------
          | TOTAL ENERGY             -173.899048147227 Eh   |
          | TOTAL ENTHALPY           -173.041525108204 Eh   |
          | TOTAL FREE ENERGY        -173.176404928955 Eh   |
          | GRADIENT NORM               0.000074988925 Eh/α |
          | HOMO-LUMO GAP               0.550506761992 eV   |
           -------------------------------------------------

 * finished run on 2025/09/11 at 19:46:32.028
