   * xtb version 6.7.1 (edcfbbe) compiled by 'albert@albert-system' on 2024-07-22

   ID    Z sym.   atoms
    1    6 C      1-4, 6-22, 24-28, 31-35, 37-53, 55-63, 65-69
    2    7 N      5, 23, 29, 30, 36, 54
    3    8 O      64
    4    1 H      70-107

          program call               : xtb data2507/toluene/2ICz-OXD/2ICz-OXD.xyz --gfn 2 --gbsa toluene --ohess vtight --parallel 40 --molden --ceasefiles --namespace data2507/toluene/2ICz-OXD/2ICz-OXD_toluene_S0_preOpt
      * Solvation model:               GBSA
        Solvent                        toluene
        Solvent mass                       9.2140E+01 g/mol
          :  Hamiltonian                  GFN2-xTB          :
 * total energy  :  -173.9293303 Eh     change       -0.3823629E-08 Eh
 * total energy  :  -173.9567907 Eh     change       -0.2746042E-01 Eh
 * total energy  :  -173.9653054 Eh     change       -0.8514685E-02 Eh
 * total energy  :  -173.9684594 Eh     change       -0.3153968E-02 Eh
 * total energy  :  -173.9710598 Eh     change       -0.2600465E-02 Eh
 * total energy  :  -173.9729021 Eh     change       -0.1842275E-02 Eh
 * total energy  :  -173.9743164 Eh     change       -0.1414276E-02 Eh
 * total energy  :  -173.9753647 Eh     change       -0.1048329E-02 Eh
 * total energy  :  -173.9761050 Eh     change       -0.7403451E-03 Eh
 * total energy  :  -173.9766540 Eh     change       -0.5489067E-03 Eh
 * total energy  :  -173.9801842 Eh     change       -0.9103572E-06 Eh
 * total energy  :  -173.9801851 Eh     change       -0.8202874E-06 Eh
 * total energy  :  -173.9801859 Eh     change       -0.8730734E-06 Eh
 * total energy  :  -173.9801868 Eh     change       -0.8903063E-06 Eh
 * total energy  :  -173.9801876 Eh     change       -0.8062028E-06 Eh
 * total energy  :  -173.9801883 Eh     change       -0.6323295E-06 Eh
 * total energy  :  -173.9801888 Eh     change       -0.5216592E-06 Eh
 * total energy  :  -173.9801892 Eh     change       -0.4504538E-06 Eh
 * total energy  :  -173.9801892 Eh     change       -0.4539061E-08 Eh
   *** GEOMETRY OPTIMIZATION CONVERGED AFTER 68 ITERATIONS ***

 final structure:
================
107
 xtb: 6.7.1 (edcfbbe)
C           11.99522725490329        3.28631469796165       -1.95362131260265
C           11.88216464255278        1.90823198999206       -2.03967879501195
C           10.72038133167843        1.27711360378529       -1.63328879489656
C            9.66394243604177        2.02774006344929       -1.12659916742822
N            8.48384164637983        1.38883888205687       -0.70672647803879
C            7.20852632831920        1.70158303369942       -1.11752141861413
C            6.80122471401567        2.65759396362037       -2.03781128623326
C            5.44711125599081        2.80835159575031       -2.25887932751476
C            4.51883874780669        2.03717990321959       -1.56329627916987
C            4.92033290279673        1.06651353780072       -0.66767472699363
C            6.28080717282181        0.85498345178632       -0.46069159760828
C            7.05704102110253       -0.02996493241524        0.36736948166374
C            8.40969720673888        0.36566851260202        0.21268256941103
C            9.45881875538499       -0.16417194199473        0.96500614399605
C            9.17612372851477       -1.12976576494614        1.90246387751229
C            7.86778355736047       -1.59486724501239        2.03776308637471
C            7.29904315303406       -2.59073555155019        2.90111039360867
C            7.83155056476478       -3.42224136209880        3.87848548068740
C            6.99307238828041       -4.31380809232328        4.51784823684824
C            5.64398478848384       -4.39469079937337        4.18107008960161
C            5.09325099302318       -3.57874582734142        3.20974331259150
C            5.92547653107960       -2.66307590310542        2.58427278871607
N            5.64194648744007       -1.75147370517514        1.57667255880813
C            4.46173507201818       -1.78835923546463        0.82706116407167
C            3.22633780854377       -1.64010297379188        1.45631233337767
C            2.06199225313413       -1.71171678186019        0.72014812275320
C            2.11555141776765       -1.93898703459312       -0.65583508286757
C            0.90450011960994       -2.01777083354487       -1.43473356032174
N            0.80626206025506       -2.24047900994353       -2.71449040925080
N           -0.49952302840566       -2.23436385757271       -3.02195596813733
C           -1.15676473334060       -2.00691413877493       -1.92024519533515
C           -2.58714045847812       -1.90943868172024       -1.76541336178199
C           -3.41471505520137       -2.10252088370358       -2.87373577442432
C           -4.78326336231423       -2.00643012520629       -2.73977854754905
C           -5.34647166426624       -1.71200059571703       -1.49725414547412
N           -6.73470790404995       -1.63982468653942       -1.34674975555808
C           -7.58329858492421       -2.71159863272810       -1.58767551161782
C           -7.33025116666797       -3.91362071651530       -2.23041319948675
C           -8.36348745494419       -4.82868470435074       -2.31844420126341
C           -9.61646272709262       -4.56462783703687       -1.77042280110568
C           -9.86422160722513       -3.38090879068854       -1.10393717426005
C           -8.84141626725843       -2.44583474940745       -1.00510423738007
C           -8.74003041378206       -1.15906868195886       -0.37612454998327
C           -9.65930895906742       -0.41727629016785        0.36632516934414
C           -9.28637686110608        0.79987541847562        0.88725573428167
C           -8.00966687822993        1.28687780454945        0.60380661912976
C           -7.07124636196198        0.59650837567924       -0.20370107949704
C           -5.96073779475250        1.49272872338960       -0.38901623707670
C           -4.79762610233068        1.47042042700858       -1.15421627512614
C           -3.93110576086410        2.54328946889898       -1.09126605896213
C           -4.19990061223709        3.64412924901615       -0.28104546100225
C           -5.36944638218384        3.71876318310446        0.44844074180929
C           -6.25780436999880        2.65534639213943        0.36542111968987
N           -7.48923513930689        2.51139378346504        0.96217675615975
C           -8.12613788939236        3.46561928656983        1.77531512574808
C           -8.29964408201305        4.76887266450636        1.32000840356532
C           -8.92204909047768        5.70407815798034        2.12711620589766
C           -9.38243734229412        5.34633203409815        3.38381064220567
C           -9.21527158576654        4.04736730413352        3.83549489982531
C           -8.58511561069499        3.10811983838390        3.03934241950297
C           -7.43109963837026       -0.68844981154803       -0.62366404196434
C           -4.51900105479597       -1.52171736766264       -0.38971651966482
C           -3.15080417648161       -1.61882974414461       -0.52192517491167
O           -0.31629497729472       -1.85864104046394       -0.86728293279856
C            3.35307120043058       -2.08951458834658       -1.28608217060940
C            4.51496360812065       -2.01451852427700       -0.55034349434492
C            6.81141602848339       -1.09068590057690        1.24603696799255
C            9.78011265382989        3.41121665489749       -1.03554871612931
C           10.94215035800955        4.03460873426058       -1.45326907581262
H           12.90243147959146        3.77586842423763       -2.27480340384560
H           12.69924500824002        1.32113161670172       -2.43234338728647
H           10.62132973953963        0.20454889053613       -1.71255670901612
H            7.52255192176299        3.26562961486974       -2.56261283198868
H            5.10167682914636        3.54542972352630       -2.96892302496216
H            3.46378931069481        2.20004543033510       -1.72969679292410
H            4.18060639861288        0.49779816267889       -0.13033800070088
H           10.46391866542854        0.20446415903730        0.83124687239027
H            9.95750144675187       -1.53373862570338        2.52735126600097
H            8.88091588488071       -3.37209969337374        4.12763342004784
H            7.38685092894574       -4.96673227910868        5.28309226059784
H            5.01422596726298       -5.11258200281953        4.68607688670534
H            4.05063491708851       -3.66624882853393        2.94454134577738
H            3.18895168948438       -1.44525932308525        2.51740133880835
H            1.10493998820115       -1.58554823256708        1.20390237839229
H           -2.96092186598058       -2.31726181971820       -3.82819421937389
H           -5.42507669352588       -2.13276415138964       -3.59823724084589
H           -6.35902641479004       -4.13899088913165       -2.64354791797885
H           -8.19289671181784       -5.77005150444743       -2.82006751709023
H          -10.39970907486865       -5.30283670159074       -1.86277390487200
H          -10.83039708948058       -3.18404890045249       -0.66402333476806
H          -10.65228281360876       -0.80472511403173        0.53383407215869
H           -9.97382424070484        1.38684324924936        1.47622028800508
H           -4.57338463362225        0.64135557145117       -1.80414534263114
H           -3.02655845892297        2.52826085557798       -1.68221195016555
H           -3.49134369271793        4.45837159135523       -0.23734677373533
H           -5.58930441054527        4.57962054862248        1.06167414427408
H           -7.95619080309381        5.03764361067663        0.33199631023084
H           -9.05471100394015        6.71443457048750        1.76916193825653
H           -9.87120333721125        6.07814267344111        4.00934511031208
H           -9.57031138322639        3.76477235030527        4.81563869627123
H           -8.43842269584035        2.09806418583757        3.39252457234113
H           -4.96033486748662       -1.29664469833863        0.56916081116376
H           -2.51074940901263       -1.47299832529243        0.33485827552013
H            3.37541797799654       -2.26768772440028       -2.34915460942649
H            5.47440462875626       -2.12835687403394       -1.03096029937707
H            8.96364264880430        3.98807716328940       -0.62703226789110
H           11.02739207788952        5.10884090316399       -1.38006900577958

          :  Hamiltonian                  GFN2-xTB          :
         :: gradient norm              0.000048533111 Eh/a0 ::
         :: HOMO-LUMO gap              1.864511617310 eV    ::
         :: SCC energy              -177.135284413603 Eh    ::
         :: -> dispersion             -0.160818272051 Eh    ::
         :: -> Gsolv                  -0.070702413179 Eh    ::
         :: repulsion energy           3.155095173938 Eh    ::

    * Orbital Energies and Occupations

         #    Occupation            Energy/Eh            Energy/eV
      -------------------------------------------------------------
         1        2.0000           -0.7729026             -21.0318
       ...           ...                  ...                  ...
       149        2.0000           -0.4124008             -11.2220
       150        2.0000           -0.4100584             -11.1583
       151        2.0000           -0.4091227             -11.1328
       152        2.0000           -0.4014126             -10.9230
       153        2.0000           -0.3942098             -10.7270
       154        2.0000           -0.3938335             -10.7168
       155        2.0000           -0.3934839             -10.7072
       156        2.0000           -0.3861389             -10.5074
       157        2.0000           -0.3851431             -10.4803
       158        2.0000           -0.3638171              -9.9000
       159        2.0000           -0.3626252              -9.8675
       160        2.0000           -0.3579114              -9.7393
       161        2.0000           -0.3571414              -9.7183 (HOMO)
       162                         -0.2886219              -7.8538 (LUMO)
       163                         -0.2660061              -7.2384
       164                         -0.2495717              -6.7912
       165                         -0.2487945              -6.7700
       166                         -0.2434548              -6.6247
       167                         -0.2434188              -6.6238
       168                         -0.2367100              -6.4412
       169                         -0.2360989              -6.4246
       170                         -0.2333857              -6.3507
       171                         -0.2324606              -6.3256
       172                         -0.2322521              -6.3199
       ...                                ...                  ...
       314                          0.7614331              20.7196
      -------------------------------------------------------------
                  HL-Gap            0.0685195 Eh            1.8645 eV

     #   Z          covCN         q      C6AA      α(0)
     1   6 C        2.919    -0.032    28.799     8.800
     2   6 C        2.920    -0.028    28.694     8.784
     3   6 C        2.922    -0.041    29.018     8.834
     4   6 C        2.913     0.064    26.566     8.452
     5   7 N        2.803    -0.042    22.059     6.976
     6   6 C        3.080     0.046    26.876     8.499
     7   6 C        2.910    -0.052    29.289     8.874
     8   6 C        2.923    -0.035    28.880     8.813
     9   6 C        2.919    -0.043    29.063     8.841
    10   6 C        2.914    -0.040    28.991     8.829
    11   6 C        3.062    -0.018    28.397     8.739
    12   6 C        3.052    -0.038    28.892     8.815
    13   6 C        3.081     0.044    26.917     8.505
    14   6 C        2.912    -0.061    29.509     8.908
    15   6 C        2.916    -0.037    28.929     8.820
    16   6 C        3.067    -0.028    28.636     8.775
    17   6 C        3.066    -0.015    28.322     8.727
    18   6 C        2.913    -0.036    28.898     8.815
    19   6 C        2.920    -0.042    29.032     8.836
    20   6 C        2.924    -0.036    28.905     8.817
    21   6 C        2.910    -0.052    29.294     8.875
    22   6 C        3.073     0.044    26.932     8.509
    23   7 N        2.802    -0.043    22.075     6.978
    24   6 C        2.914     0.076    26.304     8.410
    25   6 C        2.920    -0.040    28.995     8.830
    26   6 C        2.922    -0.026    28.649     8.777
    27   6 C        2.974    -0.012    28.313     8.728
    28   6 C        3.163     0.218    23.125     7.860
    29   7 N        2.044    -0.216    26.452     7.629
    30   7 N        2.044    -0.216    26.453     7.629
    31   6 C        3.163     0.218    23.127     7.860
    32   6 C        2.974    -0.012    28.313     8.728
    33   6 C        2.924    -0.027    28.672     8.781
    34   6 C        2.920    -0.038    28.939     8.822
    35   6 C        2.915     0.076    26.306     8.410
    36   7 N        2.802    -0.043    22.069     6.977
    37   6 C        3.072     0.044    26.931     8.509
    38   6 C        2.910    -0.052    29.292     8.875
    39   6 C        2.924    -0.036    28.896     8.815
    40   6 C        2.920    -0.041    29.027     8.835
    41   6 C        2.913    -0.036    28.898     8.815
    42   6 C        3.067    -0.015    28.323     8.727
    43   6 C        3.066    -0.028    28.635     8.775
    44   6 C        2.916    -0.037    28.928     8.820
    45   6 C        2.911    -0.061    29.511     8.908
    46   6 C        3.080     0.044    26.920     8.506
    47   6 C        3.053    -0.038    28.894     8.816
    48   6 C        3.062    -0.018    28.398     8.739
    49   6 C        2.913    -0.040    28.994     8.830
    50   6 C        2.919    -0.043    29.074     8.842
    51   6 C        2.923    -0.036    28.889     8.814
    52   6 C        2.910    -0.052    29.294     8.875
    53   6 C        3.079     0.046    26.877     8.499
    54   7 N        2.802    -0.043    22.068     6.977
    55   6 C        2.913     0.064    26.567     8.452
    56   6 C        2.922    -0.041    29.020     8.834
    57   6 C        2.920    -0.028    28.692     8.784
    58   6 C        2.919    -0.032    28.798     8.800
    59   6 C        2.920    -0.028    28.694     8.784
    60   6 C        2.922    -0.041    29.020     8.834
    61   6 C        3.058     0.043    26.989     8.520
    62   6 C        2.921    -0.035    28.881     8.813
    63   6 C        2.922    -0.024    28.603     8.771
    64   8 O        1.721    -0.232    17.845     5.704
    65   6 C        2.923    -0.025    28.628     8.774
    66   6 C        2.920    -0.033    28.819     8.803
    67   6 C        3.057     0.043    26.990     8.520
    68   6 C        2.922    -0.041    29.022     8.834
    69   6 C        2.920    -0.028    28.693     8.784
    70   1 H        0.926     0.040     2.445     2.445
    71   1 H        0.926     0.041     2.431     2.438
    72   1 H        0.926     0.043     2.414     2.430
    73   1 H        0.926     0.031     2.571     2.507
    74   1 H        0.926     0.029     2.598     2.520
    75   1 H        0.926     0.022     2.707     2.573
    76   1 H        0.926     0.023     2.690     2.565
    77   1 H        0.926     0.032     2.559     2.501
    78   1 H        0.926     0.035     2.523     2.484
    79   1 H        0.926     0.031     2.566     2.505
    80   1 H        0.926     0.029     2.604     2.524
    81   1 H        0.926     0.030     2.588     2.516
    82   1 H        0.926     0.029     2.605     2.524
    83   1 H        0.926     0.056     2.245     2.343
    84   1 H        0.926     0.051     2.302     2.372
    85   1 H        0.926     0.062     2.176     2.307
    86   1 H        0.926     0.059     2.212     2.326
    87   1 H        0.926     0.030     2.582     2.513
    88   1 H        0.926     0.031     2.578     2.511
    89   1 H        0.926     0.029     2.601     2.522
    90   1 H        0.926     0.031     2.567     2.505
    91   1 H        0.926     0.035     2.522     2.483
    92   1 H        0.926     0.032     2.561     2.503
    93   1 H        0.926     0.024     2.679     2.559
    94   1 H        0.926     0.021     2.712     2.575
    95   1 H        0.926     0.029     2.605     2.524
    96   1 H        0.926     0.031     2.575     2.510
    97   1 H        0.926     0.042     2.426     2.436
    98   1 H        0.926     0.041     2.435     2.440
    99   1 H        0.926     0.040     2.443     2.444
   100   1 H        0.926     0.041     2.431     2.438
   101   1 H        0.926     0.042     2.418     2.432
   102   1 H        0.926     0.052     2.294     2.368
   103   1 H        0.926     0.051     2.308     2.376
   104   1 H        0.926     0.062     2.180     2.309
   105   1 H        0.926     0.055     2.259     2.350
   106   1 H        0.926     0.042     2.427     2.436
   107   1 H        0.926     0.041     2.437     2.441

molecular dipole:
                 x           y           z       tot (Debye)
 q only:        0.163       1.231       1.067
   full:        0.060       1.387       1.538       5.267

 projected vibrational frequencies (cm⁻¹)
eigval :       -0.00    -0.00     0.00     0.00     0.00     0.00
eigval :        4.72     6.34     8.58    15.35    16.84    25.88
eigval :       34.40    36.49    39.15    50.66    53.94    55.53
eigval :       59.23    64.10    65.95    68.47    73.30    83.56
eigval :       90.92    95.11   100.68   101.92   116.98   127.33
eigval :      133.96   148.18   152.18   153.85   157.94   171.36
eigval :      176.08   214.15   218.91   220.71   227.12   229.86
eigval :      234.81   243.48   245.01   262.78   264.89   285.15
eigval :      292.04   294.22   320.77   321.82   342.88   350.71
eigval :      376.16   377.02   378.07   380.33   380.52   381.39
eigval :      384.59   391.53   392.90   398.54   411.76   416.95
eigval :      418.27   426.86   441.50   443.40   451.81   455.04
eigval :      471.94   475.91   484.17   493.30   499.44   500.80
eigval :      502.76   505.60   520.87   523.15   535.78   536.12
eigval :      553.90   553.99   567.72   569.92   582.72   583.91
eigval :      591.14   591.55   594.77   596.35   606.36   606.81
eigval :      611.84   612.81   624.54   626.12   645.05   649.19
eigval :      672.25   673.46   673.80   674.68   675.26   678.91
eigval :      687.17   687.49   697.29   698.95   699.66   705.12
eigval :      707.69   712.55   721.85   723.85   754.82   759.73
eigval :      770.78   771.79   771.93   774.01   775.19   775.77
eigval :      815.72   818.70   821.99   823.17   840.97   841.07
eigval :      864.49   865.92   867.03   868.65   872.70   875.17
eigval :      877.76   879.15   879.22   881.45   893.50   895.55
eigval :      899.91   900.97   901.75   903.11   907.48   909.94
eigval :      914.02   915.03   917.18   917.76   919.14   920.62
eigval :      921.28   921.66   923.34   924.47   927.43   929.44
eigval :      930.92   933.29   933.90   937.56   970.48   972.76
eigval :      987.49   988.94  1005.59  1007.51  1010.30  1017.69
eigval :     1070.44  1070.56  1072.80  1073.57  1077.77  1078.23
eigval :     1081.57  1084.45  1084.52  1094.02  1101.73  1102.35
eigval :     1115.29  1116.77  1125.70  1128.79  1138.75  1139.43
eigval :     1150.04  1151.52  1170.79  1171.88  1174.12  1176.77
eigval :     1177.11  1178.41  1179.55  1179.71  1180.40  1183.45
eigval :     1185.31  1188.56  1190.98  1205.64  1206.76  1224.26
eigval :     1224.53  1239.77  1239.87  1254.09  1255.46  1258.43
eigval :     1260.49  1272.46  1273.14  1279.19  1286.26  1286.49
eigval :     1302.82  1308.11  1308.52  1311.88  1313.76  1314.90
eigval :     1315.36  1322.01  1323.88  1346.39  1346.70  1360.21
eigval :     1360.89  1362.43  1362.58  1371.28  1371.83  1394.69
eigval :     1394.74  1402.98  1403.18  1409.35  1410.96  1426.37
eigval :     1426.53  1432.64  1432.71  1433.41  1434.05  1463.38
eigval :     1463.78  1465.53  1467.92  1476.83  1477.11  1480.56
eigval :     1481.01  1482.29  1482.31  1533.67  1536.41  1557.06
eigval :     1559.57  1567.49  1567.62  1573.94  1574.00  1581.67
eigval :     1582.08  1583.98  1584.33  1587.72  1587.89  1592.59
eigval :     1592.89  1595.36  1595.43  1604.79  1604.86  1606.69
eigval :     1606.74  3069.74  3071.01  3071.87  3071.99  3076.85
eigval :     3076.91  3078.13  3078.33  3078.51  3078.81  3078.95
eigval :     3079.30  3086.04  3086.91  3087.12  3087.21  3088.17
eigval :     3088.51  3090.20  3090.24  3090.29  3090.63  3090.70
eigval :     3092.10  3093.22  3095.79  3097.04  3097.43  3097.54
eigval :     3099.41  3099.63  3100.05  3100.80  3102.80  3112.78
eigval :     3114.83  3125.51  3128.78

   temp. (K)  partition function   enthalpy   heat capacity  entropy
                                   cal/mol     cal/K/mol   cal/K/mol   J/K/mol
 298.15  VIB  0.969E+25            31035.232    197.667    195.109
         ROT  0.365E+09              888.752      2.981     42.159
         INT  0.353E+34            31923.985    200.648    237.268
         TR   0.254E+29             1481.254      4.968     46.190
         TOT                       33405.2387   205.6158   283.4582  1185.9889

       T/K    H(0)-H(T)+PV         H(T)/Eh          T*S/Eh         G(T)/Eh
   ------------------------------------------------------------------------
    298.15    0.532346E-01    0.861778E+00    0.134680E+00    0.727098E+00
   ------------------------------------------------------------------------

         :::::::::::::::::::::::::::::::::::::::::::::::::::::
         ::                  THERMODYNAMIC                  ::
         :::::::::::::::::::::::::::::::::::::::::::::::::::::
         :: total free energy        -173.253091132930 Eh   ::
         ::.................................................::
         :: total energy             -173.980189240138 Eh   ::
         :: zero point energy           0.808543585863 Eh   ::
         :: G(RRHO) w/o ZPVE           -0.081445478655 Eh   ::
         :: G(RRHO) contrib.            0.727098107208 Eh   ::
         :::::::::::::::::::::::::::::::::::::::::::::::::::::

           -------------------------------------------------
          | TOTAL ENERGY             -173.980189240138 Eh   |
          | TOTAL ENTHALPY           -173.118411017843 Eh   |
          | TOTAL FREE ENERGY        -173.253091132930 Eh   |
          | GRADIENT NORM               0.000048536370 Eh/α |
          | HOMO-LUMO GAP               1.864511449339 eV   |
           -------------------------------------------------

 * finished run on 2025/09/11 at 19:32:21.425
