   * xtb version 6.7.1 (edcfbbe) compiled by 'albert@albert-system' on 2024-07-22

   ID    Z sym.   atoms
    1    6 C      1-8, 10-15, 19-25, 28, 29
    2    7 N      9, 16-18, 26, 27
    3    1 H      30-45

          program call               : xtb data2507/gas/ICz-2/ICz-2_gas_S0_crest.xyz --gfn 2 --ohess vtight --parallel 40 --molden --ceasefiles --namespace data2507/gas/ICz-2/ICz-2_gas_S0_finalOpt
          :  Hamiltonian                  GFN2-xTB          :
 * total energy  :   -74.9075475 Eh     change       -0.8000001E-09 Eh
 * total energy  :   -74.9075482 Eh     change       -0.6993399E-06 Eh
 * total energy  :   -74.9075490 Eh     change       -0.8202563E-06 Eh
 * total energy  :   -74.9075498 Eh     change       -0.7974864E-06 Eh
 * total energy  :   -74.9075506 Eh     change       -0.7319083E-06 Eh
 * total energy  :   -74.9075510 Eh     change       -0.4283933E-06 Eh
 * total energy  :   -74.9075511 Eh     change       -0.8767221E-07 Eh
   *** GEOMETRY OPTIMIZATION CONVERGED AFTER 7 ITERATIONS ***

 final structure:
================
45
 xtb: 6.7.1 (edcfbbe)
C           -3.94187215672069        0.82526467371918       -1.62342379526207
C           -4.40312298870087        0.18808612093771       -0.48490464893383
C           -3.68491763678222       -0.85988442942545        0.06404881678724
C           -2.49176651839268       -1.27681097182055       -0.51644920422502
C           -1.74745953073327       -2.40837235688244        0.05650795968992
C           -2.38709030357830       -3.62934618809658        0.25268822959840
C           -1.67248360846919       -4.71335580442410        0.73107153719625
C           -0.31904260873714       -4.53988114884938        0.98170709322385
N            0.29845103971749       -3.38662909100049        0.82646463074707
C           -0.38585854724013       -2.33270534675979        0.39546744839928
C            0.37079054787401       -1.07145247321636        0.31709831877639
C            1.74655590421717       -1.09687659300881        0.10063697109406
C            2.43223855567964        0.11279294424643        0.02071934569252
C            3.86558231346873        0.12430832855162       -0.21027542347420
C            4.75873813297989        1.18322172669449       -0.24206867875394
N            5.94998101198083        0.60030903784823       -0.49530159599018
N            5.80336056579618       -0.71885780099384       -0.61351221616283
N            4.57864400084688       -1.00750400825083       -0.44610644058746
C            1.70736853326540        1.29316164675422        0.15942413055806
C            0.33569664586664        1.21365961655364        0.38922016240387
C           -0.47082282241386        2.43349157874931        0.53328312393363
C           -1.83573108309614        2.34996743309024        0.81135910449976
C           -2.56498455098870        3.51940384925530        0.91256754493098
C           -1.91313290674505        4.73191912406386        0.74194035921744
C           -0.55138244255115        4.70853022601669        0.47845651088970
N            0.15396101429126        3.59916634603556        0.37410812141467
N           -0.31089945764973        0.05655781496642        0.47245809691772
C           -2.04336712894273       -0.64130432810402       -1.67143123188236
C           -2.76206194120466        0.40461430790770       -2.21633499057806
H           -4.49978033886984        1.64583279051560       -2.05019196394163
H           -5.32482103795695        0.50855322397299       -0.02040935756306
H           -4.03847955316434       -1.34757057461612        0.96167584464822
H           -3.43674825433592       -3.72418029267458        0.01044111044359
H           -2.14799561800852       -5.66840947628100        0.89230261753263
H            0.29996358589979       -5.35673902798544        1.32911804107990
H            2.26816636275965       -2.03327990942585       -0.00400840938133
H            4.64328203300937        2.23697715709533       -0.10715078745418
H            6.85424010647162        1.03556698347455       -0.59365510173227
H            2.16756520502339        2.26497994179350        0.09487019364439
H           -2.28502216814320        1.37904260454494        0.93411532407925
H           -3.62497895007877        3.48846419922587        1.12109577783662
H           -2.44357393871662        5.66909633274144        0.81149628437244
H            0.00602598931979        5.62701025244545        0.34082104201545
H           -1.12896715700423       -0.97537031349492       -2.14045418267301
H           -2.40297190404283        0.89443318881033       -3.10977843242782

          :  Hamiltonian                  GFN2-xTB          :
         :: gradient norm              0.000200106681 Eh/a0 ::
         :: HOMO-LUMO gap              2.301435719277 eV    ::
         :: SCC energy               -76.176011805114 Eh    ::
         :: -> dispersion             -0.060180717385 Eh    ::
         :: repulsion energy           1.268460720872 Eh    ::

    * Orbital Energies and Occupations

         #    Occupation            Energy/Eh            Energy/eV
      -------------------------------------------------------------
         1        2.0000           -0.7234157             -19.6851
       ...           ...                  ...                  ...
        57        2.0000           -0.4284236             -11.6580
        58        2.0000           -0.4223511             -11.4928
        59        2.0000           -0.4197655             -11.4224
        60        2.0000           -0.4184425             -11.3864
        61        2.0000           -0.4125805             -11.2269
        62        2.0000           -0.4052903             -11.0285
        63        2.0000           -0.4016201             -10.9286
        64        2.0000           -0.3957205             -10.7681
        65        2.0000           -0.3873569             -10.5405
        66        2.0000           -0.3846009             -10.4655
        67        2.0000           -0.3732831             -10.1576
        68        2.0000           -0.3653684              -9.9422
        69        2.0000           -0.3567125              -9.7066 (HOMO)
        70                         -0.2721364              -7.4052 (LUMO)
        71                         -0.2674675              -7.2782
        72                         -0.2476919              -6.7400
        73                         -0.2434194              -6.6238
        74                         -0.2419623              -6.5841
        75                         -0.2338114              -6.3623
        76                         -0.2204049              -5.9975
        77                         -0.2100320              -5.7153
        78                         -0.1925158              -5.2386
        79                         -0.1637733              -4.4565
        80                         -0.1128430              -3.0706
       ...                                ...                  ...
       132                          0.6901032              18.7787
      -------------------------------------------------------------
                  HL-Gap            0.0845761 Eh            2.3014 eV

     #   Z          covCN         q      C6AA      α(0)
     1   6 C        2.920    -0.031    28.770     8.796
     2   6 C        2.919    -0.029    28.728     8.789
     3   6 C        2.925    -0.032    28.786     8.799
     4   6 C        2.977     0.021    27.532     8.607
     5   6 C        2.974     0.006    27.876     8.661
     6   6 C        2.934    -0.018    28.453     8.748
     7   6 C        2.911    -0.041    29.009     8.832
     8   6 C        2.903     0.058    26.701     8.473
     9   7 N        1.845    -0.225    26.767     7.668
    10   6 C        2.967     0.087    26.054     8.373
    11   6 C        2.962     0.095    25.883     8.345
    12   6 C        2.924    -0.040    28.998     8.831
    13   6 C        2.978     0.023    27.481     8.599
    14   6 C        3.116     0.055    26.603     8.448
    15   6 C        2.964    -0.009    28.229     8.715
    16   7 N        2.971     0.003    21.196     6.838
    17   7 N        2.156    -0.101    23.731     7.229
    18   7 N        2.070    -0.160    25.134     7.437
    19   6 C        2.923    -0.049    29.215     8.864
    20   6 C        2.961     0.089    26.018     8.367
    21   6 C        2.970     0.090    25.991     8.362
    22   6 C        2.919    -0.037    28.921     8.819
    23   6 C        2.927    -0.011    28.279     8.721
    24   6 C        2.914    -0.040    28.999     8.831
    25   6 C        2.907     0.060    26.659     8.466
    26   7 N        1.842    -0.234    26.983     7.698
    27   7 N        1.850    -0.246    27.267     7.739
    28   6 C        2.924    -0.024    28.613     8.772
    29   6 C        2.919    -0.028    28.690     8.784
    30   1 H        0.926     0.028     2.613     2.528
    31   1 H        0.926     0.029     2.598     2.521
    32   1 H        0.926     0.030     2.585     2.514
    33   1 H        0.925     0.036     2.503     2.474
    34   1 H        0.926     0.036     2.500     2.472
    35   1 H        0.925     0.040     2.449     2.447
    36   1 H        0.926     0.078     2.001     2.212
    37   1 H        0.927     0.044     2.392     2.418
    38   1 H        0.860     0.168     1.283     1.775
    39   1 H        0.926     0.056     2.252     2.347
    40   1 H        0.926     0.059     2.209     2.324
    41   1 H        0.926     0.035     2.513     2.479
    42   1 H        0.926     0.035     2.515     2.480
    43   1 H        0.925     0.035     2.514     2.479
    44   1 H        0.926     0.026     2.640     2.541
    45   1 H        0.926     0.029     2.601     2.522

molecular dipole:
                 x           y           z       tot (Debye)
 q only:        0.025       0.705      -0.096
   full:       -0.296       1.393      -0.086       3.627

 projected vibrational frequencies (cm⁻¹)
eigval :       -0.00    -0.00    -0.00     0.00     0.00     0.00
eigval :       15.00    26.50    33.95    41.77    58.21    62.88
eigval :       68.92    75.50    85.01   102.56   115.64   153.45
eigval :      191.37   220.62   222.24   234.30   267.40   276.57
eigval :      294.10   332.41   340.07   367.27   373.21   386.53
eigval :      416.34   428.78   450.91   497.73   529.45   554.56
eigval :      565.14   588.84   591.72   596.81   609.55   616.47
eigval :      628.15   647.14   668.60   678.47   700.47   711.52
eigval :      719.91   740.44   744.78   760.26   768.48   778.73
eigval :      792.64   804.77   844.87   854.52   877.88   888.66
eigval :      897.72   900.31   911.68   916.60   924.49   929.18
eigval :      930.81   933.41   937.81   963.64   976.39  1005.97
eigval :     1010.87  1038.46  1047.76  1081.91  1087.83  1090.61
eigval :     1094.07  1110.38  1117.23  1120.46  1128.91  1137.75
eigval :     1147.92  1159.58  1182.72  1197.31  1202.14  1224.51
eigval :     1227.71  1250.39  1269.57  1275.50  1284.53  1288.68
eigval :     1291.49  1305.19  1317.89  1323.23  1367.60  1375.91
eigval :     1394.45  1409.57  1417.37  1428.07  1431.03  1435.96
eigval :     1453.02  1485.73  1527.67  1538.26  1549.50  1556.84
eigval :     1566.14  1571.77  1580.45  1582.58  1599.65  3045.59
eigval :     3056.85  3065.27  3067.78  3069.92  3071.15  3076.97
eigval :     3082.17  3090.62  3092.26  3092.70  3119.20  3127.31
eigval :     3128.53  3198.46  3444.48

   temp. (K)  partition function   enthalpy   heat capacity  entropy
                                   cal/mol     cal/K/mol   cal/K/mol   J/K/mol
 298.15  VIB  0.574E+10            12647.917     79.712     79.357
         ROT  0.166E+08              888.752      2.981     36.019
         INT  0.953E+17            13536.669     82.693    115.376
         TR   0.707E+28             1481.254      4.968     43.649
         TOT                       15017.9233    87.6614   159.0250   665.3607

       T/K    H(0)-H(T)+PV         H(T)/Eh          T*S/Eh         G(T)/Eh
   ------------------------------------------------------------------------
    298.15    0.239326E-01    0.358243E+00    0.755579E-01    0.282685E+00
   ------------------------------------------------------------------------

         :::::::::::::::::::::::::::::::::::::::::::::::::::::
         ::                  THERMODYNAMIC                  ::
         :::::::::::::::::::::::::::::::::::::::::::::::::::::
         :: total free energy         -74.624865635350 Eh   ::
         ::.................................................::
         :: total energy              -74.907551084249 Eh   ::
         :: zero point energy           0.334310787875 Eh   ::
         :: G(RRHO) w/o ZPVE           -0.051625338976 Eh   ::
         :: G(RRHO) contrib.            0.282685448899 Eh   ::
         :::::::::::::::::::::::::::::::::::::::::::::::::::::

           -------------------------------------------------
          | TOTAL ENERGY              -74.907551084249 Eh   |
          | TOTAL ENTHALPY            -74.549307712182 Eh   |
          | TOTAL FREE ENERGY         -74.624865635350 Eh   |
          | GRADIENT NORM               0.000200163530 Eh/α |
          | HOMO-LUMO GAP               2.301432358220 eV   |
           -------------------------------------------------

 * finished run on 2025/09/08 at 22:09:23.213
