   * xtb version 6.7.1 (edcfbbe) compiled by 'albert@albert-system' on 2024-07-22

   ID    Z sym.   atoms
    1    6 C      1-8, 10-15, 19-25, 28, 29
    2    7 N      9, 16-18, 26, 27
    3    1 H      30-45

          program call               : xtb data2507/gas/ICz-2/ICz-2_gas_S0_finalOpt.xtbopt.xyz --gfn 2 --spinpol --tblite --uhf 2 --ohess vtight --parallel 40 --molden --ceasefiles --namespace data2507/gas/ICz-2/ICz-2_gas_T1_preOpt
 * total energy  :   -74.8214744 Eh     change       -0.3251387E-08 Eh
 * total energy  :   -74.8254430 Eh     change       -0.3968625E-02 Eh
 * total energy  :   -74.8267567 Eh     change       -0.1313672E-02 Eh
 * total energy  :   -74.8270055 Eh     change       -0.2487876E-03 Eh
 * total energy  :   -74.8272992 Eh     change       -0.2937221E-03 Eh
 * total energy  :   -74.8275041 Eh     change       -0.2049223E-03 Eh
 * total energy  :   -74.8277806 Eh     change       -0.2764506E-03 Eh
 * total energy  :   -74.8280927 Eh     change       -0.3121275E-03 Eh
 * total energy  :   -74.8283690 Eh     change       -0.2763005E-03 Eh
 * total energy  :   -74.8285744 Eh     change       -0.2053364E-03 Eh
 * total energy  :   -74.8550550 Eh     change       -0.1757842E-05 Eh
 * total energy  :   -74.8550566 Eh     change       -0.1635849E-05 Eh
 * total energy  :   -74.8550580 Eh     change       -0.1389284E-05 Eh
 * total energy  :   -74.8550591 Eh     change       -0.1077181E-05 Eh
 * total energy  :   -74.8550601 Eh     change       -0.1023778E-05 Eh
 * total energy  :   -74.8550610 Eh     change       -0.8929227E-06 Eh
 * total energy  :   -74.8550619 Eh     change       -0.8751039E-06 Eh
 * total energy  :   -74.8550619 Eh     change        0.4002516E-08 Eh
 * total energy  :   -74.8550619 Eh     change       -0.1693786E-07 Eh
   *** GEOMETRY OPTIMIZATION CONVERGED AFTER 69 ITERATIONS ***

 final structure:
================
45
 xtb: 6.7.1 (edcfbbe)
C           -3.69949050005137        1.07985913626536       -1.25938582345743
C           -4.43058572470298        0.14044360252646       -0.50883829626763
C           -3.81290044019607       -1.00814792824055       -0.02680579616114
C           -2.48395495010118       -1.27386226590984       -0.27254670262713
C           -1.78126313335431       -2.45837142771420        0.12793937432976
C           -2.40221299323383       -3.65246404619333        0.50166784974446
C           -1.63435851316402       -4.76901342724296        0.77293032515852
C           -0.25151301171870       -4.67035960967296        0.62956550096234
N            0.36709654321515       -3.55377032192982        0.32029522018600
C           -0.35360220207471       -2.45069977062731        0.10074092195010
C            0.36368966494999       -1.21892283699075       -0.08955549303939
C            1.73474693438396       -1.14238745720832       -0.02810783762290
C            2.39177235633240        0.09111992945585       -0.12803061093745
C            3.82678991029998        0.16156076562851       -0.13208466450455
C            4.67401493802073        1.25977918191104       -0.22302525784193
N            5.91439108244254        0.72176158391026       -0.18565040444718
N            5.84209556144281       -0.60369894510259       -0.08088379233004
N            4.61863194144813       -0.94443275019061       -0.04962366914904
C            1.58891308721456        1.24965748018512       -0.12714161719243
C            0.22143832805930        1.16560786103589       -0.15756887486802
C           -0.58413825242065        2.34686060095854        0.11193392473803
C           -1.76608475194135        2.25188885894577        0.86100432398204
C           -2.47572996832057        3.40509508400052        1.12842930573808
C           -1.99816339123016        4.61722009013586        0.64730300858386
C           -0.80319431903682        4.61116128394485       -0.05786676802192
N           -0.11211876390662        3.51999954084978       -0.31857240584490
N           -0.39625160971759       -0.06388637827554       -0.28896912366390
C           -1.64102399029380       -0.29548319944262       -1.04774353332438
C           -2.37280788263172        0.92164496001152       -1.48845102788389
H           -4.20493383731507        1.95712636317414       -1.63564174809981
H           -5.47526496251644        0.31507568400557       -0.30664837334295
H           -4.39244998907932       -1.70409947491772        0.56175579405790
H           -3.47996824179353       -3.71155509040407        0.54239793098123
H           -2.09225863346012       -5.70303260626253        1.05791662896743
H            0.38741427194303       -5.53131424888949        0.77674796491939
H            2.30051291591134       -2.04877696493828        0.10926613794445
H            4.49883477373121        2.31020438717907       -0.30898393597277
H            6.80375801044067        1.19472528683300       -0.22654178631246
H            2.02480839853420        2.23093729264663       -0.03485588238063
H           -2.08590017482156        1.29816261845696        1.25116027105722
H           -3.38681374808308        3.36345705327639        1.70800215742733
H           -2.52838768070249        5.53913248204743        0.82672277397203
H           -0.37509374906555        5.53049545643099       -0.43769084746495
H           -1.30178892797291       -0.81187740935520       -1.97356898059366
H           -1.81535519111924        1.63914519999779       -2.07124027058023

 projected vibrational frequencies (cm⁻¹)
eigval :       -0.00     0.00     0.00     0.00     0.00     0.00
eigval :       26.49    43.92    45.58    54.66    65.87    68.56
eigval :       91.31   102.79   118.08   139.44   175.60   207.22
eigval :      223.76   227.45   255.73   257.77   270.37   281.24
eigval :      307.26   353.84   377.20   397.06   403.09   406.65
eigval :      424.92   440.50   469.77   492.97   508.75   534.18
eigval :      558.97   577.15   592.30   598.08   607.33   609.44
eigval :      611.86   621.64   647.45   665.32   702.77   706.69
eigval :      711.70   723.49   735.69   735.86   760.98   772.45
eigval :      778.40   804.01   825.72   838.38   853.51   881.89
eigval :      884.75   890.40   899.01   900.54   910.06   912.84
eigval :      929.85   931.40   933.11   969.23   974.81   995.39
eigval :     1031.51  1043.12  1052.56  1067.77  1090.08  1092.21
eigval :     1094.89  1104.63  1122.06  1128.32  1131.65  1144.37
eigval :     1165.22  1165.89  1177.47  1201.17  1217.90  1222.96
eigval :     1231.30  1250.04  1254.75  1266.03  1289.48  1291.00
eigval :     1292.40  1300.83  1323.66  1329.18  1340.57  1353.01
eigval :     1363.43  1368.84  1380.91  1398.66  1404.94  1413.91
eigval :     1428.46  1437.14  1450.06  1487.00  1503.83  1521.29
eigval :     1530.31  1541.89  1554.90  1566.03  1580.93  2694.48
eigval :     3048.68  3055.86  3070.76  3073.32  3077.46  3081.49
eigval :     3090.14  3093.50  3096.88  3098.19  3104.09  3116.20
eigval :     3129.78  3198.03  3445.52

   temp. (K)  partition function   enthalpy   heat capacity  entropy
                                   cal/mol     cal/K/mol   cal/K/mol   J/K/mol
 298.15  VIB  0.176E+09            12175.052     81.145     74.060
         ROT  0.158E+08              888.752      2.981     35.921
         INT  0.278E+16            13063.804     84.125    109.981
         TR   0.707E+28             1481.254      4.968     43.649
         TOT                       14545.0583    89.0935   153.6302   642.7886

       T/K    H(0)-H(T)+PV         H(T)/Eh          T*S/Eh         G(T)/Eh
   ------------------------------------------------------------------------
    298.15    0.231790E-01    0.355808E+00    0.729946E-01    0.282814E+00
   ------------------------------------------------------------------------

         :::::::::::::::::::::::::::::::::::::::::::::::::::::
         ::                  THERMODYNAMIC                  ::
         :::::::::::::::::::::::::::::::::::::::::::::::::::::
         :: total free energy         -74.572248122355 Eh   ::
         ::.................................................::
         :: total energy              -74.855061905110 Eh   ::
         :: zero point energy           0.332629400824 Eh   ::
         :: G(RRHO) w/o ZPVE           -0.049815618068 Eh   ::
         :: G(RRHO) contrib.            0.282813782755 Eh   ::
         :::::::::::::::::::::::::::::::::::::::::::::::::::::

           -------------------------------------------------
          | TOTAL ENERGY              -74.855061905110 Eh   |
          | TOTAL ENTHALPY            -74.499253478548 Eh   |
          | TOTAL FREE ENERGY         -74.572248122355 Eh   |
          | GRADIENT NORM               0.000077302875 Eh/α |
           -------------------------------------------------

 * finished run on 2025/09/08 at 22:09:28.477
