   * xtb version 6.7.1 (edcfbbe) compiled by 'albert@albert-system' on 2024-07-22

   ID    Z sym.   atoms
    1    6 C      1-8, 10-15, 19-25, 28, 29
    2    7 N      9, 16-18, 26, 27
    3    1 H      30-45

          program call               : xtb data2507/gas/ICz-2/ICz-2_gas_T1_crest.xyz --gfn 2 --spinpol --tblite --uhf 2 --ohess vtight --parallel 40 --molden --ceasefiles --namespace data2507/gas/ICz-2/ICz-2_gas_T1_finalOpt
 * total energy  :   -74.8553451 Eh     change        0.1126128E-07 Eh
 * total energy  :   -74.8553637 Eh     change       -0.1862897E-04 Eh
 * total energy  :   -74.8553750 Eh     change       -0.1126251E-04 Eh
 * total energy  :   -74.8553786 Eh     change       -0.3603804E-05 Eh
 * total energy  :   -74.8553841 Eh     change       -0.5518095E-05 Eh
 * total energy  :   -74.8553877 Eh     change       -0.3553025E-05 Eh
 * total energy  :   -74.8553892 Eh     change       -0.1528824E-05 Eh
 * total energy  :   -74.8553901 Eh     change       -0.8753529E-06 Eh
 * total energy  :   -74.8553907 Eh     change       -0.6583251E-06 Eh
 * total energy  :   -74.8553913 Eh     change       -0.6012247E-06 Eh
 * total energy  :   -74.8553930 Eh     change       -0.1809441E-06 Eh
 * total energy  :   -74.8553932 Eh     change       -0.1892909E-06 Eh
 * total energy  :   -74.8553933 Eh     change       -0.1419494E-06 Eh
 * total energy  :   -74.8553935 Eh     change       -0.1472409E-06 Eh
 * total energy  :   -74.8553936 Eh     change       -0.1528514E-06 Eh
 * total energy  :   -74.8553938 Eh     change       -0.1565535E-06 Eh
 * total energy  :   -74.8553939 Eh     change       -0.1451711E-06 Eh
 * total energy  :   -74.8553939 Eh     change        0.9139384E-08 Eh
 * total energy  :   -74.8553939 Eh     change       -0.1103352E-07 Eh
   *** GEOMETRY OPTIMIZATION CONVERGED AFTER 23 ITERATIONS ***

 final structure:
================
45
 xtb: 6.7.1 (edcfbbe)
C           -3.62193533328257        1.32701586396157       -1.15582233476300
C           -4.40873228731207        0.41188598851189       -0.43246235084109
C           -3.86596906582391       -0.79235395971944        0.00232689790612
C           -2.55904234374865       -1.13572906872560       -0.26317653337755
C           -1.93449852768400       -2.37779909909752        0.09066730385017
C           -2.62995287546105       -3.54160640046657        0.42259864966668
C           -1.93463525603312       -4.71492392858126        0.65087679054387
C           -0.54908596561600       -4.69955786547512        0.50862001383519
N            0.14208232440288       -3.61539688827187        0.23622996704089
C           -0.50880463226942       -2.45988499097799        0.05771441674396
C            0.28255460630961       -1.27123394892837       -0.09295493024249
C            1.65821963981983       -1.28733976453347       -0.02732332843415
C            2.39442883298571       -0.10074509425951       -0.08733519164135
C            3.83123828960870       -0.08848856364074       -0.08280436291068
C            4.74102753028330       -1.13901087338920       -0.11195949415725
N            5.94767644822336       -0.52875380972850       -0.09792057151959
N            5.79871620746183        0.79389111588522       -0.06297693721598
N            4.55709772354286        1.06433770014590       -0.05494465397965
C            1.66949005074309        1.11138921564017       -0.05357938425158
C            0.30217992563226        1.11848818578457       -0.08725500262206
C           -0.43251671532775        2.33882030162787        0.22048825918193
C           -1.59816307415326        2.29003041516603        0.99787431348332
C           -2.23629563898461        3.47425485901074        1.30933413889966
C           -1.70428859565767        4.66849152843631        0.84264062354732
C           -0.53188067566770        4.61319443145866        0.10173451141051
N            0.08878478259884        3.49156565877571       -0.20132438612174
N           -0.39669072022198       -0.06359900075099       -0.25422312475674
C           -1.65797441769654       -0.18774349849587       -1.01028780754826
C           -2.31039588843336        1.08922072531157       -1.40330449690558
H           -4.07030727493944        2.24859627018902       -1.49660743624718
H           -5.43801930394326        0.64790710377072       -0.21434950580278
H           -4.48692168695266       -1.46944549498132        0.57036014354635
H           -3.70913704033538       -3.53335380137692        0.46547827358228
H           -2.45077886233239       -5.62762916515490        0.90331622643113
H            0.03251076272302       -5.60508805585377        0.62600327235220
H            2.13404478521811       -2.24712015696626        0.08851373855449
H            4.62630935266170       -2.20071647771955       -0.14221988356838
H            6.86317176765375       -0.95078430658140       -0.11020648394353
H            2.19743341434775        2.04362920910781        0.05941081987912
H           -1.96300301625896        1.34606984853333        1.37262215208094
H           -3.13376805348122        3.46871145867882        1.91136627228975
H           -2.17715810589947        5.61365057602431        1.05826543349640
H           -0.06419764813642        5.51518341537326       -0.27191021903882
H           -1.35854346218624       -0.69239584444439       -1.95619915202849
H           -1.71062762957785        1.78742257802723       -1.96694525170394

 projected vibrational frequencies (cm⁻¹)
eigval :       -0.00    -0.00    -0.00     0.00     0.00     0.00
eigval :       26.02    43.21    46.81    53.47    64.67    68.67
eigval :       91.01   103.03   118.58   139.58   175.61   204.43
eigval :      223.10   227.68   253.92   261.37   267.64   282.56
eigval :      306.54   352.88   375.47   397.98   402.78   405.84
eigval :      426.53   441.11   469.95   493.44   509.46   533.96
eigval :      559.21   577.19   592.18   597.94   607.13   609.39
eigval :      612.63   622.19   648.19   666.36   702.61   707.02
eigval :      711.62   722.43   735.35   737.28   761.26   772.99
eigval :      777.51   803.98   825.85   846.22   853.31   878.17
eigval :      881.88   890.95   897.28   899.16   910.07   913.95
eigval :      929.77   931.36   933.17   969.25   974.63   995.33
eigval :     1032.36  1042.79  1052.93  1068.15  1089.13  1091.99
eigval :     1099.51  1108.44  1120.30  1123.13  1133.46  1143.40
eigval :     1165.66  1166.13  1177.27  1202.06  1213.60  1220.02
eigval :     1233.45  1250.69  1255.30  1265.31  1289.28  1290.46
eigval :     1294.36  1302.38  1322.83  1333.41  1343.75  1351.27
eigval :     1363.14  1374.00  1376.76  1392.19  1405.05  1415.73
eigval :     1430.16  1437.64  1452.96  1487.21  1501.76  1520.77
eigval :     1533.15  1543.65  1555.20  1565.75  1580.61  2693.58
eigval :     3050.38  3053.68  3069.44  3073.83  3078.92  3081.48
eigval :     3090.93  3092.08  3097.25  3097.64  3104.45  3121.00
eigval :     3127.21  3199.23  3445.31

   temp. (K)  partition function   enthalpy   heat capacity  entropy
                                   cal/mol     cal/K/mol   cal/K/mol   J/K/mol
 298.15  VIB  0.184E+09            12179.483     81.110     74.110
         ROT  0.158E+08              888.752      2.981     35.919
         INT  0.291E+16            13068.235     84.091    110.028
         TR   0.707E+28             1481.254      4.968     43.649
         TOT                       14549.4892    89.0588   153.6777   642.9876

       T/K    H(0)-H(T)+PV         H(T)/Eh          T*S/Eh         G(T)/Eh
   ------------------------------------------------------------------------
    298.15    0.231861E-01    0.355837E+00    0.730172E-01    0.282820E+00
   ------------------------------------------------------------------------

         :::::::::::::::::::::::::::::::::::::::::::::::::::::
         ::                  THERMODYNAMIC                  ::
         :::::::::::::::::::::::::::::::::::::::::::::::::::::
         :: total free energy         -74.572573788871 Eh   ::
         ::.................................................::
         :: total energy              -74.855393938199 Eh   ::
         :: zero point energy           0.332651307083 Eh   ::
         :: G(RRHO) w/o ZPVE           -0.049831157755 Eh   ::
         :: G(RRHO) contrib.            0.282820149328 Eh   ::
         :::::::::::::::::::::::::::::::::::::::::::::::::::::

           -------------------------------------------------
          | TOTAL ENERGY              -74.855393938199 Eh   |
          | TOTAL ENTHALPY            -74.499556544202 Eh   |
          | TOTAL FREE ENERGY         -74.572573788871 Eh   |
          | GRADIENT NORM               0.000062704033 Eh/α |
           -------------------------------------------------

 * finished run on 2025/09/08 at 22:10:26.776
