   * xtb version 6.7.1 (edcfbbe) compiled by 'albert@albert-system' on 2024-07-22

   ID    Z sym.   atoms
    1    6 C      1-8, 10-15, 19-25, 28, 29
    2    7 N      9, 16-18, 26, 27
    3    1 H      30-45

          program call               : xtb data2507/gas/ICz-2/ICz-2.xyz --gfn 2 --ohess vtight --parallel 40 --molden --ceasefiles --namespace data2507/gas/ICz-2/ICz-2_gas_S0_preOpt
          :  Hamiltonian                  GFN2-xTB          :
 * total energy  :   -74.8897032 Eh     change       -0.8333529E-09 Eh
 * total energy  :   -74.9006922 Eh     change       -0.1098896E-01 Eh
 * total energy  :   -74.9033098 Eh     change       -0.2617620E-02 Eh
 * total energy  :   -74.9036844 Eh     change       -0.3745637E-03 Eh
 * total energy  :   -74.9040617 Eh     change       -0.3773414E-03 Eh
 * total energy  :   -74.9043416 Eh     change       -0.2799298E-03 Eh
 * total energy  :   -74.9047522 Eh     change       -0.4105436E-03 Eh
 * total energy  :   -74.9052417 Eh     change       -0.4895395E-03 Eh
 * total energy  :   -74.9056933 Eh     change       -0.4515566E-03 Eh
 * total energy  :   -74.9060498 Eh     change       -0.3565625E-03 Eh
 * total energy  :   -74.9075292 Eh     change       -0.5531566E-06 Eh
 * total energy  :   -74.9075297 Eh     change       -0.5205428E-06 Eh
 * total energy  :   -74.9075302 Eh     change       -0.4851703E-06 Eh
 * total energy  :   -74.9075306 Eh     change       -0.4539224E-06 Eh
 * total energy  :   -74.9075310 Eh     change       -0.4285645E-06 Eh
 * total energy  :   -74.9075315 Eh     change       -0.4249853E-06 Eh
 * total energy  :   -74.9075319 Eh     change       -0.4243516E-06 Eh
 * total energy  :   -74.9075323 Eh     change       -0.4358252E-06 Eh
 * total energy  :   -74.9075323 Eh     change       -0.3693671E-08 Eh
   *** GEOMETRY OPTIMIZATION CONVERGED AFTER 94 ITERATIONS ***

 final structure:
================
45
 xtb: 6.7.1 (edcfbbe)
C           -2.95393275761048        2.01370931637047       -1.66266439290349
C           -3.62844807109001        1.69039325504756       -0.49845928011466
C           -3.40728072657204        0.47076103306236        0.11708953277961
C           -2.50151405362118       -0.43644148666125       -0.42218613080525
C           -2.28456247726096       -1.73951727080278        0.22380092441603
C           -3.36611634000469       -2.57523619323427        0.48743146841618
C           -3.15106319045284       -3.82788060378310        1.03485874273433
C           -1.84174123680225       -4.21313986422223        1.28351669637517
N           -0.80698512431998       -3.42731571166777        1.06429066805850
C           -1.00653296578517       -2.21191399541893        0.56782531545601
C            0.19594593794065       -1.37426939339044        0.41930576184766
C            1.43421919682996       -1.96286840440415        0.17548678659571
C            2.54587176038911       -1.13771748145396        0.02112765670373
C            3.85078722609444       -1.71521073995601       -0.24657789123022
C            5.09197201749851       -1.10949106011205       -0.35838155723369
N            5.93494636652331       -2.13293596398054       -0.61304641200122
N            5.26481839362390       -3.28377433459532       -0.65719823408336
N            4.03658229205010       -3.04660082074060       -0.44152231532152
C            2.36571938892430        0.23917964896562        0.12031963094590
C            1.08955131240651        0.73021763301860        0.38633619639428
C            0.84947430358922        2.17574545186919        0.49539469273602
C           -0.42270507452683        2.65876676023474        0.80484381874437
C           -0.61450057055968        4.02539736841895        0.87541358859924
C            0.46441380147503        4.86569983161530        0.64280709896374
C            1.69058452547655        4.28667968536761        0.35042482722159
N            1.88487959232536        2.98439275675192        0.27574029145838
N            0.03467506372283       -0.06230460085437        0.53696247561046
C           -1.84046872600252       -0.11064806960014       -1.60375300769198
C           -2.06281124637565        1.10757545053952       -2.21504681854973
H           -3.12263359331207        2.96738813489903       -2.14093153252207
H           -4.32831823964649        2.39109229222925       -0.06581366158502
H           -3.92337885964803        0.22530060688187        1.03468740551768
H           -4.36617560315277       -2.24376804237943        0.24359651045337
H           -3.97405815317635       -4.49179364443756        1.24978039882348
H           -1.60762710571706       -5.19123863695447        1.68311686298244
H            1.52913949044759       -3.03330145673342        0.10394503664317
H            5.41653435965242       -0.09463759813749       -0.27656749877123
H            6.93235760369584       -2.10385788090533       -0.75882868501410
H            3.17629209267270        0.93815079883696       -0.00133046495707
H           -1.22068178520924        1.95580493939978        0.97461903335727
H           -1.58873158109803        4.43139950524079        1.10792135202125
H            0.35983232851786        5.93881283096489        0.68723689323205
H            2.56541736588650        4.89743699048149        0.16375111387192
H           -1.15298371519405       -0.82078257679753       -2.04076058397380
H           -1.54076422260726        1.35274154102225       -3.12856131421745

          :  Hamiltonian                  GFN2-xTB          :
         :: gradient norm              0.000049684660 Eh/a0 ::
         :: HOMO-LUMO gap              2.305291436064 eV    ::
         :: SCC energy               -76.176109493943 Eh    ::
         :: -> dispersion             -0.060181573780 Eh    ::
         :: repulsion energy           1.268577165600 Eh    ::

    * Orbital Energies and Occupations

         #    Occupation            Energy/Eh            Energy/eV
      -------------------------------------------------------------
         1        2.0000           -0.7235408             -19.6885
       ...           ...                  ...                  ...
        57        2.0000           -0.4285225             -11.6607
        58        2.0000           -0.4224456             -11.4953
        59        2.0000           -0.4197921             -11.4231
        60        2.0000           -0.4185484             -11.3893
        61        2.0000           -0.4126722             -11.2294
        62        2.0000           -0.4053851             -11.0311
        63        2.0000           -0.4016607             -10.9297
        64        2.0000           -0.3956607             -10.7665
        65        2.0000           -0.3874432             -10.5429
        66        2.0000           -0.3847254             -10.4689
        67        2.0000           -0.3733502             -10.1594
        68        2.0000           -0.3654026              -9.9431
        69        2.0000           -0.3568986              -9.7117 (HOMO)
        70                         -0.2721807              -7.4064 (LUMO)
        71                         -0.2672081              -7.2711
        72                         -0.2478239              -6.7436
        73                         -0.2434981              -6.6259
        74                         -0.2420405              -6.5863
        75                         -0.2339685              -6.3666
        76                         -0.2204422              -5.9985
        77                         -0.2099313              -5.7125
        78                         -0.1928758              -5.2484
        79                         -0.1639297              -4.4608
        80                         -0.1128893              -3.0719
       ...                                ...                  ...
       132                          0.6898225              18.7710
      -------------------------------------------------------------
                  HL-Gap            0.0847179 Eh            2.3053 eV

     #   Z          covCN         q      C6AA      α(0)
     1   6 C        2.920    -0.031    28.771     8.796
     2   6 C        2.919    -0.029    28.725     8.789
     3   6 C        2.925    -0.031    28.783     8.798
     4   6 C        2.977     0.021    27.536     8.608
     5   6 C        2.975     0.006    27.878     8.661
     6   6 C        2.934    -0.018    28.452     8.748
     7   6 C        2.911    -0.041    29.010     8.832
     8   6 C        2.904     0.058    26.702     8.473
     9   7 N        1.845    -0.225    26.763     7.667
    10   6 C        2.968     0.088    26.047     8.371
    11   6 C        2.962     0.096    25.878     8.344
    12   6 C        2.924    -0.040    28.997     8.831
    13   6 C        2.978     0.023    27.481     8.599
    14   6 C        3.116     0.055    26.602     8.448
    15   6 C        2.964    -0.009    28.228     8.715
    16   7 N        2.971     0.004    21.195     6.838
    17   7 N        2.156    -0.101    23.730     7.228
    18   7 N        2.070    -0.160    25.137     7.437
    19   6 C        2.922    -0.049    29.215     8.864
    20   6 C        2.961     0.089    26.017     8.366
    21   6 C        2.970     0.090    25.990     8.362
    22   6 C        2.919    -0.037    28.919     8.819
    23   6 C        2.927    -0.011    28.279     8.721
    24   6 C        2.914    -0.040    28.999     8.830
    25   6 C        2.907     0.060    26.659     8.466
    26   7 N        1.842    -0.234    26.981     7.698
    27   7 N        1.851    -0.246    27.266     7.739
    28   6 C        2.925    -0.025    28.622     8.773
    29   6 C        2.919    -0.028    28.691     8.784
    30   1 H        0.926     0.028     2.612     2.528
    31   1 H        0.926     0.029     2.597     2.520
    32   1 H        0.926     0.030     2.584     2.514
    33   1 H        0.925     0.036     2.503     2.474
    34   1 H        0.926     0.036     2.500     2.472
    35   1 H        0.925     0.040     2.449     2.447
    36   1 H        0.926     0.077     2.009     2.216
    37   1 H        0.927     0.044     2.391     2.418
    38   1 H        0.860     0.168     1.283     1.774
    39   1 H        0.926     0.055     2.253     2.347
    40   1 H        0.926     0.059     2.209     2.324
    41   1 H        0.926     0.035     2.512     2.479
    42   1 H        0.926     0.035     2.515     2.480
    43   1 H        0.925     0.035     2.513     2.479
    44   1 H        0.926     0.026     2.644     2.543
    45   1 H        0.926     0.029     2.600     2.522

molecular dipole:
                 x           y           z       tot (Debye)
 q only:        0.303       0.636      -0.149
   full:        0.291       1.396      -0.179       3.654

 projected vibrational frequencies (cm⁻¹)
eigval :       -0.00    -0.00    -0.00     0.00     0.00     0.00
eigval :       15.12    25.84    33.41    40.92    57.83    62.80
eigval :       68.86    74.32    85.84   102.50   115.66   152.88
eigval :      191.88   220.58   221.44   235.14   267.28   276.64
eigval :      294.21   332.64   340.19   367.02   373.47   385.59
eigval :      416.09   428.91   450.83   497.38   529.19   554.75
eigval :      565.25   588.84   591.55   596.82   610.06   616.51
eigval :      628.33   647.14   668.61   678.89   700.79   711.44
eigval :      719.88   740.61   744.79   760.23   768.56   778.60
eigval :      792.49   804.78   844.69   854.53   878.04   888.28
eigval :      897.26   900.42   911.68   916.54   924.44   929.20
eigval :      930.97   933.39   937.49   963.61   976.38  1005.98
eigval :     1010.90  1038.57  1047.90  1081.95  1087.86  1090.68
eigval :     1094.21  1110.21  1117.27  1120.50  1129.20  1137.74
eigval :     1147.84  1159.66  1182.74  1197.30  1201.98  1224.60
eigval :     1228.10  1250.44  1269.62  1275.48  1284.48  1288.72
eigval :     1291.53  1305.15  1318.08  1323.04  1367.69  1376.08
eigval :     1394.84  1409.76  1417.81  1427.80  1431.09  1436.38
eigval :     1453.08  1485.73  1527.91  1538.45  1549.31  1556.82
eigval :     1566.12  1571.79  1580.43  1582.69  1599.81  3045.88
eigval :     3056.77  3065.25  3067.73  3069.94  3070.70  3076.76
eigval :     3081.88  3090.54  3092.33  3092.57  3119.12  3126.23
eigval :     3128.06  3198.29  3444.07

   temp. (K)  partition function   enthalpy   heat capacity  entropy
                                   cal/mol     cal/K/mol   cal/K/mol   J/K/mol
 298.15  VIB  0.612E+10            12652.101     79.667     79.385
         ROT  0.165E+08              888.752      2.981     36.012
         INT  0.101E+18            13540.853     82.648    115.397
         TR   0.707E+28             1481.254      4.968     43.649
         TOT                       15022.1072    87.6158   159.0464   665.4500

       T/K    H(0)-H(T)+PV         H(T)/Eh          T*S/Eh         G(T)/Eh
   ------------------------------------------------------------------------
    298.15    0.239393E-01    0.358242E+00    0.755681E-01    0.282673E+00
   ------------------------------------------------------------------------

         :::::::::::::::::::::::::::::::::::::::::::::::::::::
         ::                  THERMODYNAMIC                  ::
         :::::::::::::::::::::::::::::::::::::::::::::::::::::
         :: total free energy         -74.624858857945 Eh   ::
         ::.................................................::
         :: total energy              -74.907532328340 Eh   ::
         :: zero point energy           0.334302284641 Eh   ::
         :: G(RRHO) w/o ZPVE           -0.051628814246 Eh   ::
         :: G(RRHO) contrib.            0.282673470395 Eh   ::
         :::::::::::::::::::::::::::::::::::::::::::::::::::::

           -------------------------------------------------
          | TOTAL ENERGY              -74.907532328340 Eh   |
          | TOTAL ENTHALPY            -74.549290792060 Eh   |
          | TOTAL FREE ENERGY         -74.624858857945 Eh   |
          | GRADIENT NORM               0.000049689610 Eh/α |
          | HOMO-LUMO GAP               2.305290511551 eV   |
           -------------------------------------------------

 * finished run on 2025/09/08 at 22:08:28.778
