   * xtb version 6.7.1 (edcfbbe) compiled by 'albert@albert-system' on 2024-07-22

   ID    Z sym.   atoms
    1    6 C      1-12, 14-27, 29-36, 38-65
    2    7 N      13, 28, 37
    3    1 H      66-106

          program call               : xtb data2507/toluene/TPBPPI-PY/TPBPPI-PY_toluene_T1_crest.xyz --gfn 2 --uhf 2 --gbsa toluene --ohess vtight --parallel 40 --molden --ceasefiles --namespace data2507/toluene/TPBPPI-PY/TPBPPI-PY_toluene_T1_finalOpt
      * Solvation model:               GBSA
        Solvent                        toluene
        Solvent mass                       9.2140E+01 g/mol
          :  Hamiltonian                  GFN2-xTB          :
 * total energy  :  -162.4559676 Eh     change       -0.6583036E-08 Eh
 * total energy  :  -162.4560311 Eh     change       -0.6345047E-04 Eh
 * total energy  :  -162.4560728 Eh     change       -0.4172731E-04 Eh
 * total energy  :  -162.4560906 Eh     change       -0.1782811E-04 Eh
 * total energy  :  -162.4561117 Eh     change       -0.2104540E-04 Eh
 * total energy  :  -162.4561260 Eh     change       -0.1430401E-04 Eh
 * total energy  :  -162.4561326 Eh     change       -0.6668833E-05 Eh
 * total energy  :  -162.4561372 Eh     change       -0.4546175E-05 Eh
 * total energy  :  -162.4561412 Eh     change       -0.3989337E-05 Eh
 * total energy  :  -162.4561455 Eh     change       -0.4292351E-05 Eh
 * total energy  :  -162.4563087 Eh     change       -0.1920558E-05 Eh
 * total energy  :  -162.4563107 Eh     change       -0.1986284E-05 Eh
 * total energy  :  -162.4563125 Eh     change       -0.1790689E-05 Eh
 * total energy  :  -162.4563140 Eh     change       -0.1480705E-05 Eh
 * total energy  :  -162.4563152 Eh     change       -0.1179465E-05 Eh
 * total energy  :  -162.4563163 Eh     change       -0.1093129E-05 Eh
 * total energy  :  -162.4563173 Eh     change       -0.1047774E-05 Eh
 * total energy  :  -162.4563184 Eh     change       -0.1060602E-05 Eh
 * total energy  :  -162.4563184 Eh     change       -0.6597503E-08 Eh
   *** GEOMETRY OPTIMIZATION CONVERGED AFTER 68 ITERATIONS ***

 final structure:
================
106
 xtb: 6.7.1 (edcfbbe)
C           -5.57790492019529       -5.21790328278851       -0.81474458605950
C           -4.65482091430096       -4.65791304155360       -1.68223658000280
C           -4.24808087226405       -3.34705490063158       -1.51153419271066
C           -4.76635376863755       -2.57406653237026       -0.47584744593290
C           -4.31203215440889       -1.18310495878456       -0.29097775964448
C           -2.95739576449993       -0.92516155354269       -0.23331097802092
C           -2.44832194567433        0.36809663044248       -0.04529387023260
C           -1.01856490349907        0.56889908492565       -0.07584501419438
C           -0.14479093583273       -0.39936524748649        0.47560830042819
C            1.20944634492869       -0.25375101097976        0.44865476531156
C            1.81402404652850        0.87961170698732       -0.17171944273845
C            3.18921078409691        1.11707942202578       -0.27144853494015
N            3.68358312085248        2.34940650183081       -0.51298901361019
C            4.99948333407864        2.26051574945443       -0.40904900964231
C            5.94913199105554        3.32051429845337       -0.50450667842847
C            5.52869241612309        4.64202930322141       -0.67356464777220
C            6.44933501069268        5.66635988804460       -0.71907603147070
C            7.80022234947963        5.36937474723965       -0.58518063872147
C            8.22598592867628        4.06519801046542       -0.42473840963243
C            7.32096290788226        2.99672860902169       -0.39092568191775
C            7.73748170542530        1.60778546055396       -0.27083366329288
C            9.08621190808604        1.24938485906310       -0.28727965484494
C            9.50231827747658       -0.06513057723636       -0.22250472174108
C            8.55923486921761       -1.09069588330762       -0.15935421366213
C            7.22402166437737       -0.78727551493291       -0.13235553655306
C            6.76995316943708        0.55167462106592       -0.16589911986813
C            5.41118397836735        0.91364729626265       -0.15534985741305
N            4.24357477270479        0.19510581648136       -0.06494945443328
C            4.07619859089088       -1.18493349151774        0.09351105622404
C            4.57429737553734       -1.84148758456045        1.22228362109100
C            4.38790480290531       -3.19830652787603        1.37054783760421
C            3.69587079702748       -3.94012808323820        0.40753981015577
C            3.49627609507690       -5.37949054893480        0.57259496251333
C            4.48173926476539       -6.20469060831671        1.12122009093287
C            4.23839895038997       -7.55967751069563        1.25080789183378
C            3.01422813739763       -8.05670050704287        0.82656243190494
N            2.06513452847666       -7.28918541526028        0.31149344290769
C            2.30021892684188       -5.99740495118902        0.19203642825918
C            3.19426007176634       -3.27167491209519       -0.71332749841334
C            3.37986597459828       -1.91645809812783       -0.87278275796796
C            0.92847521101396        1.86851368579804       -0.70261015661653
C           -0.42103871869354        1.71221219944070       -0.66492467445788
C           -3.37037143490138        1.42836819406128        0.13209533102437
C           -2.89417362184640        2.78696440157311        0.45056765755289
C           -2.06213147049938        2.99124168606632        1.55002594713399
C           -1.62736749636443        4.26226876755399        1.87490694721497
C           -2.01016728396258        5.34755299115563        1.10369924594141
C           -2.83192620471911        5.15396012256292        0.00508408405343
C           -3.27485331581838        3.88513481368300       -0.31783006777314
C           -4.74061441933542        1.17452114022686        0.07429531867222
C           -5.70590385117787        2.28347845206659        0.25035723787143
C           -5.74873400187802        3.00601529911330        1.43824536385854
C           -6.65748184676781        4.03572663509895        1.59953415689058
C           -7.53084729378228        4.36025991932214        0.57481680322029
C           -7.49328115990610        3.64718007266439       -0.61182887239571
C           -6.58975388219043        2.61278141366093       -0.77217849659219
C           -5.22568529305593       -0.12212724144787       -0.14609036787654
C           -6.67374880067624       -0.37557017394260       -0.23231204273166
C           -7.53212726905529       -0.00793393243593        0.80150752802956
C           -8.88878003322718       -0.25467944032395        0.70835436695885
C           -9.41071646139905       -0.86592472588457       -0.42005844704655
C           -8.56543178064038       -1.23439146690718       -1.45402773177273
C           -7.20742368105125       -0.99645212698879       -1.35988467607021
C           -5.68715472207370       -3.14867283845258        0.39632303203080
C           -6.08864357387778       -4.46066489614632        0.22685354210265
H           -5.89611751249743       -6.24158583440775       -0.94841027717538
H           -4.25052167009952       -5.24480332921818       -2.49471169754963
H           -3.53603900744619       -2.90789025426568       -2.19637921889048
H           -2.26749382842201       -1.74552143234256       -0.36523141975340
H           -0.56811216563198       -1.25015277027164        0.99004732674428
H            1.82603212927638       -0.97794265461044        0.95581900438542
H            4.46891959942992        4.82797718875692       -0.75750947502651
H            6.12615119242455        6.68809949120530       -0.84963495595942
H            8.52959969090903        6.16615783489563       -0.60655836347614
H            9.28415344915106        3.88776671808434       -0.31962636650636
H            9.84209093845798        2.01375354882955       -0.36724350824112
H           10.55633324184490       -0.29836819812802       -0.23681180922924
H            8.87980285968379       -2.12182192233739       -0.13836197319237
H            6.50077958232871       -1.58507247584536       -0.10801060651736
H            5.09434664017241       -1.27286220142318        1.97984449253350
H            4.75562994161780       -3.68812919357005        2.25976324176276
H            5.43339259039104       -5.78857920516885        1.41926950168437
H            4.98441022501579       -8.22044768410711        1.66526377055134
H            2.77588584239257       -9.10982926364637        0.89810668900292
H            1.48245511524390       -5.41438512660103       -0.21265452994622
H            2.67822080545965       -3.83001537734907       -1.47971516659104
H            2.99754567374827       -1.40836410932000       -1.74582545509491
H            1.37470905388901        2.73032716949931       -1.17279975817038
H           -1.05261211129496        2.45095543419995       -1.13263715818538
H           -1.76890706750102        2.14661592414015        2.15748300072389
H           -0.98708755700341        4.40690005973919        2.73325822131913
H           -1.66887611795374        6.34053432820480        1.35739448814536
H           -3.12927297780270        5.99553816220382       -0.60389997636467
H           -3.90473642435439        3.73701020046926       -1.18289190548796
H           -5.07127781558927        2.75140971544923        2.24101688806218
H           -6.68327921448132        4.58748605255055        2.52834988563863
H           -8.23873881361219        5.16668013096868        0.70062730047571
H           -8.17123922185485        3.89641110565733       -1.41564672360559
H           -6.55969886909214        2.05929128816415       -1.70009132889476
H           -7.12809948976467        0.45745336786224        1.68883220021707
H           -9.54181474093037        0.03068584417728        1.52072524853857
H          -10.47180497650173       -1.05522121668747       -0.49299657856697
H           -8.96626618002725       -1.71017465514733       -2.33764690544713
H           -6.55164154099426       -1.27859598330818       -2.17116360998302
H           -6.07954622844815       -2.56627565855842        1.21697927391309
H           -6.80262535295330       -4.89487940261174        0.91199135513919

          :  Hamiltonian                  GFN2-xTB          :
         :: gradient norm              0.000053796784 Eh/a0 ::
         :: HOMO-LUMO gap              0.461874838691 eV    ::
         :: SCC energy              -165.545801504606 Eh    ::
         :: -> dispersion             -0.161746855146 Eh    ::
         :: -> Gsolv                  -0.066604248473 Eh    ::
         :: repulsion energy           3.089483132480 Eh    ::

    * Orbital Energies and Occupations

         #    Occupation            Energy/Eh            Energy/eV
      -------------------------------------------------------------
         1        2.0000           -0.6895757             -18.7643
       ...           ...                  ...                  ...
       141        2.0000           -0.4021071             -10.9419
       142        2.0000           -0.4011706             -10.9164
       143        2.0000           -0.3970076             -10.8031
       144        2.0000           -0.3966930             -10.7946
       145        2.0000           -0.3951611             -10.7529
       146        2.0000           -0.3908923             -10.6367
       147        2.0000           -0.3869526             -10.5295
       148        2.0000           -0.3827694             -10.4157
       149        2.0000           -0.3814247             -10.3791
       150        2.0000           -0.3775815             -10.2745
       151        1.9965           -0.3703148             -10.0768
       152        1.0035           -0.3596018              -9.7853
       153        0.9999           -0.2809831              -7.6459 (HOMO)
       154        0.0001           -0.2640094              -7.1841 (LUMO)
       155                         -0.2561567              -6.9704
       156                         -0.2537972              -6.9062
       157                         -0.2472165              -6.7271
       158                         -0.2464175              -6.7054
       159                         -0.2391543              -6.5077
       160                         -0.2360914              -6.4244
       161                         -0.2247320              -6.1153
       162                         -0.2245312              -6.1098
       163                         -0.2220952              -6.0435
       164                         -0.2200655              -5.9883
       ...                                ...                  ...
       301                          0.7218216              19.6418
      -------------------------------------------------------------
                  HL-Gap            0.0169737 Eh            0.4619 eV

     #   Z          covCN         q      C6AA      α(0)
     1   6 C        2.920    -0.032    28.792     8.799
     2   6 C        2.918    -0.030    28.759     8.794
     3   6 C        2.925    -0.035    28.865     8.811
     4   6 C        2.978     0.012    27.734     8.638
     5   6 C        2.974     0.004    27.919     8.667
     6   6 C        2.930    -0.044    29.098     8.846
     7   6 C        2.972     0.005    27.906     8.665
     8   6 C        2.973     0.010    27.786     8.647
     9   6 C        2.916    -0.034    28.840     8.806
    10   6 C        2.911    -0.041    29.015     8.833
    11   6 C        2.968    -0.008    28.215     8.713
    12   6 C        3.140     0.127    24.991     8.181
    13   7 N        1.879    -0.312    28.948     7.976
    14   6 C        3.168     0.085    25.775     8.296
    15   6 C        2.984    -0.005    28.152     8.703
    16   6 C        2.922    -0.027    28.668     8.780
    17   6 C        2.916    -0.031    28.778     8.797
    18   6 C        2.917    -0.027    28.677     8.782
    19   6 C        2.922    -0.035    28.863     8.810
    20   6 C        2.977     0.001    28.005     8.681
    21   6 C        2.977    -0.002    28.069     8.690
    22   6 C        2.920    -0.033    28.810     8.802
    23   6 C        2.916    -0.033    28.813     8.802
    24   6 C        2.914    -0.032    28.787     8.798
    25   6 C        2.918    -0.038    28.948     8.823
    26   6 C        2.973    -0.011    28.288     8.724
    27   6 C        3.032     0.038    27.127     8.543
    28   7 N        2.812    -0.063    22.456     7.038
    29   6 C        2.909     0.059    26.681     8.470
    30   6 C        2.917    -0.042    29.049     8.838
    31   6 C        2.923    -0.034    28.857     8.809
    32   6 C        2.974     0.002    27.978     8.676
    33   6 C        2.971    -0.001    28.055     8.688
    34   6 C        2.933    -0.019    28.487     8.753
    35   6 C        2.911    -0.040    29.001     8.831
    36   6 C        2.912     0.055    26.768     8.484
    37   7 N        1.834    -0.241    27.140     7.720
    38   6 C        2.916     0.055    26.757     8.482
    39   6 C        2.923    -0.033    28.833     8.806
    40   6 C        2.918    -0.040    29.006     8.832
    41   6 C        2.922    -0.033    28.827     8.805
    42   6 C        2.913    -0.032    28.801     8.800
    43   6 C        2.979    -0.001    28.037     8.686
    44   6 C        2.977     0.018    27.608     8.619
    45   6 C        2.925    -0.031    28.762     8.795
    46   6 C        2.918    -0.030    28.740     8.791
    47   6 C        2.920    -0.031    28.768     8.796
    48   6 C        2.918    -0.030    28.742     8.792
    49   6 C        2.924    -0.032    28.806     8.802
    50   6 C        2.979     0.001    28.003     8.680
    51   6 C        2.978     0.016    27.656     8.626
    52   6 C        2.924    -0.032    28.795     8.800
    53   6 C        2.919    -0.030    28.760     8.794
    54   6 C        2.920    -0.032    28.800     8.801
    55   6 C        2.919    -0.030    28.760     8.794
    56   6 C        2.925    -0.032    28.796     8.800
    57   6 C        2.981    -0.000    28.027     8.684
    58   6 C        2.976     0.016    27.639     8.624
    59   6 C        2.924    -0.032    28.800     8.801
    60   6 C        2.918    -0.030    28.758     8.794
    61   6 C        2.920    -0.032    28.791     8.799
    62   6 C        2.918    -0.030    28.757     8.794
    63   6 C        2.925    -0.031    28.785     8.798
    64   6 C        2.924    -0.032    28.792     8.800
    65   6 C        2.919    -0.030    28.754     8.793
    66   1 H        0.926     0.031     2.569     2.507
    67   1 H        0.926     0.032     2.559     2.501
    68   1 H        0.926     0.032     2.563     2.503
    69   1 H        0.926     0.039     2.468     2.457
    70   1 H        0.926     0.037     2.495     2.470
    71   1 H        0.926     0.028     2.612     2.528
    72   1 H        0.926     0.050     2.323     2.383
    73   1 H        0.926     0.040     2.455     2.450
    74   1 H        0.926     0.040     2.446     2.446
    75   1 H        0.926     0.041     2.432     2.439
    76   1 H        0.926     0.041     2.437     2.441
    77   1 H        0.926     0.036     2.502     2.473
    78   1 H        0.926     0.034     2.535     2.490
    79   1 H        0.926     0.034     2.527     2.486
    80   1 H        0.926     0.039     2.463     2.454
    81   1 H        0.926     0.042     2.419     2.432
    82   1 H        0.926     0.041     2.435     2.440
    83   1 H        0.926     0.040     2.446     2.445
    84   1 H        0.925     0.035     2.520     2.483
    85   1 H        0.925     0.036     2.509     2.477
    86   1 H        0.926     0.041     2.440     2.443
    87   1 H        0.926     0.035     2.510     2.478
    88   1 H        0.926     0.047     2.353     2.399
    89   1 H        0.926     0.038     2.478     2.462
    90   1 H        0.926     0.028     2.622     2.532
    91   1 H        0.926     0.031     2.570     2.507
    92   1 H        0.926     0.033     2.550     2.497
    93   1 H        0.926     0.032     2.556     2.500
    94   1 H        0.926     0.029     2.595     2.519
    95   1 H        0.926     0.026     2.638     2.540
    96   1 H        0.926     0.030     2.579     2.512
    97   1 H        0.926     0.031     2.572     2.508
    98   1 H        0.926     0.031     2.577     2.510
    99   1 H        0.926     0.027     2.628     2.535
   100   1 H        0.926     0.028     2.615     2.529
   101   1 H        0.926     0.031     2.579     2.511
   102   1 H        0.926     0.031     2.569     2.506
   103   1 H        0.926     0.031     2.572     2.508
   104   1 H        0.926     0.028     2.610     2.526
   105   1 H        0.926     0.028     2.611     2.527
   106   1 H        0.926     0.030     2.583     2.513

molecular dipole:
                 x           y           z       tot (Debye)
 q only:        0.273       0.390       0.180
   full:        0.788       0.197       0.368       2.267

 projected vibrational frequencies (cm⁻¹)
eigval :       -0.00    -0.00    -0.00     0.00     0.00     0.00
eigval :        6.23     7.24    12.56    16.69    17.78    26.20
eigval :       27.77    35.64    41.96    43.02    45.98    48.88
eigval :       50.12    57.10    64.30    69.88    72.01    74.23
eigval :       76.23    79.25    85.66    97.52    99.98   103.27
eigval :      113.23   122.80   129.86   141.61   161.14   168.47
eigval :      181.08   193.54   202.76   211.09   214.71   219.28
eigval :      228.57   236.79   242.20   245.69   253.48   257.32
eigval :      274.16   288.84   300.22   315.65   327.46   350.40
eigval :      360.43   367.98   371.16   374.07   374.43   375.46
eigval :      376.06   381.08   384.33   389.92   394.71   396.78
eigval :      405.95   422.70   434.25   450.80   460.64   462.21
eigval :      477.79   486.91   494.21   495.30   498.86   505.62
eigval :      522.13   523.53   531.78   539.29   574.31   580.91
eigval :      581.70   584.80   586.18   588.54   590.66   593.60
eigval :      593.69   602.42   603.70   612.15   618.89   627.31
eigval :      635.16   646.34   653.94   660.31   665.52   667.89
eigval :      668.36   671.86   675.11   678.30   682.10   684.58
eigval :      688.68   691.23   713.43   718.91   728.86   740.91
eigval :      754.41   756.54   762.76   764.30   765.33   771.45
eigval :      777.36   781.89   792.68   805.29   819.77   823.87
eigval :      831.15   850.16   861.00   862.04   864.47   869.40
eigval :      876.33   877.25   878.54   879.74   898.23   898.28
eigval :      899.58   902.01   902.59   904.92   905.73   910.27
eigval :      911.21   913.88   916.37   917.90   918.89   920.09
eigval :      923.54   925.74   928.37   929.80   930.12   931.08
eigval :      931.57   931.79   933.16   934.55   934.60   949.89
eigval :      960.38   973.29   979.13   982.66   989.38   993.29
eigval :     1005.26  1032.38  1049.69  1062.94  1073.96  1080.24
eigval :     1081.87  1082.86  1084.38  1085.96  1089.51  1092.88
eigval :     1102.09  1117.31  1118.09  1119.41  1121.05  1129.09
eigval :     1132.19  1134.82  1140.49  1141.60  1154.76  1174.40
eigval :     1176.87  1177.68  1178.78  1180.86  1182.05  1182.57
eigval :     1185.95  1192.98  1194.35  1197.00  1197.37  1200.44
eigval :     1202.59  1205.74  1221.33  1234.92  1246.24  1248.70
eigval :     1256.70  1258.64  1261.87  1267.94  1279.37  1279.57
eigval :     1279.81  1280.76  1281.06  1283.94  1288.56  1290.88
eigval :     1296.00  1307.65  1312.64  1313.42  1314.80  1315.35
eigval :     1315.95  1317.86  1326.43  1334.75  1344.24  1352.10
eigval :     1382.67  1388.40  1391.70  1392.74  1404.85  1408.67
eigval :     1414.03  1415.95  1422.54  1425.65  1427.76  1431.58
eigval :     1432.54  1435.46  1446.84  1447.31  1462.03  1469.48
eigval :     1475.02  1477.35  1480.66  1482.57  1485.89  1493.21
eigval :     1506.51  1516.10  1521.48  1538.23  1540.45  1542.91
eigval :     1556.06  1561.11  1573.32  1574.88  1575.07  1575.51
eigval :     1580.11  1582.21  1587.46  1592.61  1595.15  1597.75
eigval :     1600.26  3048.10  3055.38  3064.07  3066.55  3066.80
eigval :     3067.23  3067.35  3067.68  3069.14  3069.73  3071.23
eigval :     3073.89  3074.00  3074.70  3075.08  3076.24  3076.80
eigval :     3077.50  3078.75  3079.61  3081.68  3082.21  3082.39
eigval :     3082.78  3084.23  3086.58  3087.41  3088.24  3088.66
eigval :     3089.28  3089.69  3089.92  3091.41  3094.40  3098.03
eigval :     3099.68  3101.68  3110.09  3110.32  3111.43  3126.74

   temp. (K)  partition function   enthalpy   heat capacity  entropy
                                   cal/mol     cal/K/mol   cal/K/mol   J/K/mol
 298.15  VIB  0.375E+26            31067.272    192.943    197.057
         ROT  0.229E+09              888.752      2.981     41.230
         INT  0.858E+34            31956.025    195.924    238.288
         TR   0.231E+29             1481.254      4.968     45.998
         TOT                       33437.2785   200.8923   284.2859  1189.4524

       T/K    H(0)-H(T)+PV         H(T)/Eh          T*S/Eh         G(T)/Eh
   ------------------------------------------------------------------------
    298.15    0.532857E-01    0.866772E+00    0.135073E+00    0.731699E+00
   ------------------------------------------------------------------------

         :::::::::::::::::::::::::::::::::::::::::::::::::::::
         ::                  THERMODYNAMIC                  ::
         :::::::::::::::::::::::::::::::::::::::::::::::::::::
         :: total free energy        -161.724619546929 Eh   ::
         ::.................................................::
         :: total energy             -162.456318365357 Eh   ::
         :: zero point energy           0.813486550692 Eh   ::
         :: G(RRHO) w/o ZPVE           -0.081787732263 Eh   ::
         :: G(RRHO) contrib.            0.731698818428 Eh   ::
         :::::::::::::::::::::::::::::::::::::::::::::::::::::

           -------------------------------------------------
          | TOTAL ENERGY             -162.456318365357 Eh   |
          | TOTAL ENTHALPY           -161.589546119673 Eh   |
          | TOTAL FREE ENERGY        -161.724619546929 Eh   |
          | GRADIENT NORM               0.000053869770 Eh/α |
          | HOMO-LUMO GAP               0.461878785338 eV   |
           -------------------------------------------------

 * finished run on 2025/08/21 at 20:26:40.899
