   * xtb version 6.7.1 (edcfbbe) compiled by 'albert@albert-system' on 2024-07-22

   ID    Z sym.   atoms
    1    6 C      1-12, 14-27, 29-36, 38-65
    2    7 N      13, 28, 37
    3    1 H      66-106

          program call               : xtb data2507/toluene/TPBPPI-PY/TPBPPI-PY_toluene_S0_finalOpt.xtbopt.xyz --gfn 2 --uhf 2 --gbsa toluene --ohess vtight --parallel 40 --molden --ceasefiles --namespace data2507/toluene/TPBPPI-PY/TPBPPI-PY_toluene_T1_preOpt
      * Solvation model:               GBSA
        Solvent                        toluene
        Solvent mass                       9.2140E+01 g/mol
          :  Hamiltonian                  GFN2-xTB          :
 * total energy  :  -162.4436312 Eh     change        0.1045350E-09 Eh
 * total energy  :  -162.4486574 Eh     change       -0.5026142E-02 Eh
 * total energy  :  -162.4512052 Eh     change       -0.2547827E-02 Eh
 * total energy  :  -162.4517608 Eh     change       -0.5556264E-03 Eh
 * total energy  :  -162.4523541 Eh     change       -0.5933279E-03 Eh
 * total energy  :  -162.4526389 Eh     change       -0.2847688E-03 Eh
 * total energy  :  -162.4528382 Eh     change       -0.1993003E-03 Eh
 * total energy  :  -162.4529723 Eh     change       -0.1340678E-03 Eh
 * total energy  :  -162.4530805 Eh     change       -0.1082464E-03 Eh
 * total energy  :  -162.4531757 Eh     change       -0.9512177E-04 Eh
 * total energy  :  -162.4559802 Eh     change       -0.1687800E-06 Eh
 * total energy  :  -162.4559803 Eh     change       -0.1464873E-06 Eh
 * total energy  :  -162.4559805 Eh     change       -0.1684339E-06 Eh
 * total energy  :  -162.4559807 Eh     change       -0.2555920E-06 Eh
 * total energy  :  -162.4559811 Eh     change       -0.3153546E-06 Eh
 * total energy  :  -162.4559813 Eh     change       -0.2779157E-06 Eh
 * total energy  :  -162.4559816 Eh     change       -0.2388447E-06 Eh
 * total energy  :  -162.4559818 Eh     change       -0.2140508E-06 Eh
 * total energy  :  -162.4559818 Eh     change       -0.6586220E-08 Eh
   *** GEOMETRY OPTIMIZATION CONVERGED AFTER 185 ITERATIONS ***

 final structure:
================
106
 xtb: 6.7.1 (edcfbbe)
C           -6.21289123221707        0.14623348767055       -5.17531331783607
C           -5.26705088859307        1.13106377172505       -4.94354319479324
C           -4.69990924670465        1.26787767859158       -3.68944676559837
C           -5.08040899904622        0.42892509505583       -2.64556081829971
C           -4.46324473226987        0.57830154720886       -1.31395572490211
C           -3.08592454538430        0.58096303304652       -1.21153024316165
C           -2.43126692498900        0.71677287457995        0.01926742056088
C           -0.98650286517851        0.78571104795509        0.05299915215168
C           -0.20355958191753       -0.02433222000707       -0.80196569580683
C            1.15871188073519       -0.02006870060240       -0.75382851690787
C            1.85840049781407        0.84546073723504        0.13903640056775
C            3.24816003319203        0.93188879991022        0.27087410248173
N            3.84203728138056        1.99907346653162        0.84906623866911
C            5.14532676101188        1.84295374948028        0.69468839791411
C            6.17766306613042        2.75326729966046        1.06954510241486
C            5.86609861475524        3.99627874848211        1.62570803391637
C            6.86673737117213        4.89121982991753        1.93828799614022
C            8.18794937865068        4.54625333365244        1.68185193423541
C            8.50644279818700        3.31572176769049        1.14035163329481
C            7.51839719308775        2.37312316756740        0.82946723787954
C            7.82169998229080        1.04922925260882        0.30732055924205
C            9.13651352282814        0.59541123494777        0.19710185651263
C            9.44509092153945       -0.67303876338559       -0.25234651662232
C            8.42269733610760       -1.55786954045404       -0.59529841903927
C            7.11658038698888       -1.15533580819463       -0.50997116036243
C            6.77189394571119        0.14724444326145       -0.07800571745115
C            5.44788442907627        0.60016593989133        0.04975088479682
N            4.22638011500846        0.03239910460015       -0.22022008720082
C            3.95516786779082       -1.22506961224387       -0.77203323907265
C            3.22465683987211       -2.16404271620994       -0.03920989816558
C            2.93550993901281       -3.39430121194514       -0.58675485197482
C            3.36353655701253       -3.72827699139129       -1.87516296251945
C            3.05446123882355       -5.03668813286436       -2.45110017514470
C            1.83447142685147       -5.67721442244492       -2.21670025776380
C            1.59607264575271       -6.91417321921272       -2.78670270313391
C            2.58297448983884       -7.47901505212874       -3.58208694293577
N            3.74750736224954       -6.89013532243321       -3.81065413083602
C            3.97228416914468       -5.71241929470289       -3.26211834182588
C            4.09309355629570       -2.78055744527591       -2.60055051344840
C            4.38447771935207       -1.54628278594096       -2.06262449011211
C            1.06214415923272        1.74373073439646        0.91752887373089
C           -0.29598153930133        1.69453552878549        0.89278605226944
C           -3.21894611120604        0.81322430089917        1.19000976102290
C           -2.57391089806009        0.84919708018144        2.51581269368092
C           -1.68100972012163       -0.15641932816731        2.88085261750859
C           -1.08314493762592       -0.14672530039026        4.12691789440305
C           -1.36228849042483        0.87020923918094        5.02510016925613
C           -2.24446076544156        1.87740665495280        4.66933049620077
C           -2.84954285152045        1.86626616626296        3.42652404505954
C           -4.61047835271203        0.80271472400596        1.09473106128693
C           -5.43602285774532        0.90313858418373        2.31959964346151
C           -5.34965959255565       -0.06381687823058        3.31604156458221
C           -6.13073907075989        0.03029290762585        4.45321345680050
C           -7.00331787579408        1.09390210012580        4.61251516474044
C           -7.09292542730955        2.06262829542756        3.62686684376556
C           -6.31683593673183        1.96687346536775        2.48642866809600
C           -5.24512008517003        0.69512323630431       -0.15055376784669
C           -6.71538377527401        0.70559506679804       -0.24521200775431
C           -7.48586948686409       -0.21649724468859        0.45940743147960
C           -8.86424584403456       -0.20203870504930        0.35885096520815
C           -9.49530369311024        0.73598877012994       -0.44176084899118
C           -8.73788768942360        1.65819390340005       -1.14530166192449
C           -7.35905861027106        1.64119799193555       -1.05233198614060
C           -6.02421284395976       -0.56471577693746       -2.89074026016529
C           -6.58453459362349       -0.70438502444776       -4.14686455580821
H           -6.65686078793404        0.04023887979086       -6.15452919969965
H           -4.97059211990129        1.79553047002527       -5.74272909636886
H           -3.96894854104720        2.04354027390698       -3.50776879293767
H           -2.49742139999199        0.50681261025305       -2.11417934512200
H           -0.70175415631398       -0.69817216863209       -1.48433931046110
H            1.71022929628977       -0.65008864310969       -1.43197102095879
H            4.82539597390427        4.22907652089687        1.79124929085015
H            6.62771366362444        5.85201043129066        2.36858324114962
H            8.97937912137565        5.24597227457488        1.90828643746506
H            9.54583230514512        3.09805359286876        0.95462552182929
H            9.95124844767216        1.24080058431812        0.48290451338976
H           10.47651566920180       -0.98374375033156       -0.32272850336394
H            8.65917928058539       -2.56011533127524       -0.92079277743437
H            6.33166490565776       -1.85161016675846       -0.75346552920325
H            2.89539327898103       -1.91438314462569        0.95876810235766
H            2.39411373260556       -4.12030125344200        0.00097158453272
H            1.07718884623669       -5.19733513070298       -1.61356596566687
H            0.66083765164768       -7.42850037332338       -2.62623261660349
H            2.44412501593017       -8.44064248178166       -4.05846010998226
H            4.94836519805571       -5.28904382245390       -3.46334727253967
H            4.40659502807155       -3.00656912648456       -3.60860028220113
H            4.93408267691720       -0.81382112944807       -2.63612965588699
H            1.58255104674661        2.45153785680944        1.54261651154637
H           -0.86520747878353        2.38676623372556        1.49378136606314
H           -1.46859282042940       -0.95545113284448        2.18441085258775
H           -0.39700285257994       -0.93595825604795        4.39931074029572
H           -0.89355743673800        0.87812598809400        5.99832290089748
H           -2.46228889077114        2.67637726865171        5.36337497252259
H           -3.52777234735845        2.66009387378133        3.14909909772456
H           -4.67278895250840       -0.89724698649429        3.19244016671661
H           -6.05726054603911       -0.72929792300924        5.21837553287818
H           -7.61191790669519        1.16732148944849        5.50212325856601
H           -7.77144202333439        2.89524190311476        3.74555817477729
H           -6.38523357151449        2.72598675717684        1.72013653065737
H           -6.99773391066215       -0.95769734473843        1.07548654963483
H           -9.44868848660084       -0.92717375266157        0.90694576891911
H          -10.57289802974843        0.74764031848752       -0.51756631326867
H           -9.22378407827351        2.39379624440485       -1.77029192435480
H           -6.77201139987044        2.36677152985776       -1.59710089500914
H           -6.31048504002864       -1.23606849189018       -2.09449082768514
H           -7.31481327054145       -1.48099866130133       -4.32378566610465

          :  Hamiltonian                  GFN2-xTB          :
         :: gradient norm              0.000038617164 Eh/a0 ::
         :: HOMO-LUMO gap              0.455376620541 eV    ::
         :: SCC energy              -165.545516563899 Eh    ::
         :: -> dispersion             -0.161556054553 Eh    ::
         :: -> Gsolv                  -0.066620040521 Eh    ::
         :: repulsion energy           3.089534770884 Eh    ::

    * Orbital Energies and Occupations

         #    Occupation            Energy/Eh            Energy/eV
      -------------------------------------------------------------
         1        2.0000           -0.6899434             -18.7743
       ...           ...                  ...                  ...
       141        2.0000           -0.4030149             -10.9666
       142        2.0000           -0.4020201             -10.9395
       143        2.0000           -0.3983162             -10.8387
       144        2.0000           -0.3965507             -10.7907
       145        2.0000           -0.3956251             -10.7655
       146        2.0000           -0.3922414             -10.6734
       147        2.0000           -0.3873706             -10.5409
       148        2.0000           -0.3834125             -10.4332
       149        2.0000           -0.3822215             -10.4008
       150        2.0000           -0.3779623             -10.2849
       151        1.9955           -0.3705459             -10.0831
       152        1.0045           -0.3602987              -9.8042
       153        0.9999           -0.2810393              -7.6475 (HOMO)
       154        0.0001           -0.2643046              -7.1921 (LUMO)
       155                         -0.2564562              -6.9785
       156                         -0.2539183              -6.9095
       157                         -0.2476722              -6.7395
       158                         -0.2469938              -6.7210
       159                         -0.2400478              -6.5320
       160                         -0.2362683              -6.4292
       161                         -0.2254853              -6.1358
       162                         -0.2253619              -6.1324
       163                         -0.2231941              -6.0734
       164                         -0.2207190              -6.0061
       ...                                ...                  ...
       301                          0.7216703              19.6376
      -------------------------------------------------------------
                  HL-Gap            0.0167347 Eh            0.4554 eV

     #   Z          covCN         q      C6AA      α(0)
     1   6 C        2.920    -0.032    28.799     8.800
     2   6 C        2.918    -0.031    28.764     8.795
     3   6 C        2.925    -0.035    28.865     8.811
     4   6 C        2.978     0.013    27.729     8.638
     5   6 C        2.975     0.004    27.927     8.668
     6   6 C        2.929    -0.044    29.090     8.845
     7   6 C        2.973     0.005    27.904     8.665
     8   6 C        2.974     0.010    27.784     8.646
     9   6 C        2.916    -0.034    28.839     8.806
    10   6 C        2.911    -0.041    29.030     8.835
    11   6 C        2.968    -0.008    28.213     8.712
    12   6 C        3.136     0.127    25.002     8.184
    13   7 N        1.879    -0.312    28.935     7.974
    14   6 C        3.165     0.086    25.770     8.296
    15   6 C        2.983    -0.005    28.152     8.703
    16   6 C        2.922    -0.026    28.659     8.779
    17   6 C        2.916    -0.031    28.776     8.797
    18   6 C        2.917    -0.027    28.666     8.780
    19   6 C        2.922    -0.034    28.858     8.809
    20   6 C        2.977     0.001    27.997     8.679
    21   6 C        2.976    -0.002    28.061     8.689
    22   6 C        2.920    -0.032    28.803     8.801
    23   6 C        2.916    -0.032    28.796     8.800
    24   6 C        2.914    -0.031    28.779     8.797
    25   6 C        2.917    -0.037    28.931     8.820
    26   6 C        2.972    -0.011    28.290     8.725
    27   6 C        3.031     0.039    27.102     8.539
    28   7 N        2.811    -0.064    22.471     7.041
    29   6 C        2.909     0.059    26.682     8.470
    30   6 C        2.918    -0.041    29.020     8.834
    31   6 C        2.923    -0.033    28.816     8.803
    32   6 C        2.974     0.002    27.978     8.676
    33   6 C        2.971    -0.001    28.055     8.688
    34   6 C        2.933    -0.019    28.484     8.753
    35   6 C        2.911    -0.040    28.996     8.830
    36   6 C        2.912     0.055    26.767     8.484
    37   7 N        1.834    -0.241    27.145     7.721
    38   6 C        2.916     0.055    26.761     8.483
    39   6 C        2.923    -0.035    28.873     8.812
    40   6 C        2.917    -0.042    29.032     8.836
    41   6 C        2.922    -0.034    28.835     8.806
    42   6 C        2.914    -0.032    28.789     8.798
    43   6 C        2.980    -0.001    28.043     8.687
    44   6 C        2.977     0.017    27.615     8.620
    45   6 C        2.925    -0.031    28.775     8.797
    46   6 C        2.918    -0.030    28.756     8.794
    47   6 C        2.920    -0.031    28.780     8.797
    48   6 C        2.919    -0.030    28.741     8.791
    49   6 C        2.924    -0.032    28.801     8.801
    50   6 C        2.979     0.001    28.003     8.680
    51   6 C        2.978     0.016    27.657     8.626
    52   6 C        2.924    -0.032    28.797     8.800
    53   6 C        2.919    -0.030    28.761     8.794
    54   6 C        2.920    -0.032    28.800     8.800
    55   6 C        2.919    -0.030    28.760     8.794
    56   6 C        2.925    -0.032    28.795     8.800
    57   6 C        2.981    -0.001    28.036     8.685
    58   6 C        2.976     0.016    27.645     8.625
    59   6 C        2.924    -0.032    28.803     8.801
    60   6 C        2.918    -0.030    28.761     8.794
    61   6 C        2.920    -0.032    28.794     8.800
    62   6 C        2.918    -0.030    28.759     8.794
    63   6 C        2.925    -0.032    28.789     8.799
    64   6 C        2.924    -0.032    28.793     8.800
    65   6 C        2.919    -0.030    28.756     8.794
    66   1 H        0.926     0.031     2.574     2.509
    67   1 H        0.926     0.031     2.565     2.505
    68   1 H        0.926     0.032     2.565     2.504
    69   1 H        0.926     0.038     2.481     2.463
    70   1 H        0.926     0.036     2.500     2.473
    71   1 H        0.926     0.028     2.608     2.525
    72   1 H        0.926     0.050     2.320     2.382
    73   1 H        0.926     0.040     2.450     2.448
    74   1 H        0.926     0.041     2.438     2.442
    75   1 H        0.926     0.042     2.424     2.435
    76   1 H        0.926     0.042     2.427     2.436
    77   1 H        0.926     0.037     2.489     2.467
    78   1 H        0.926     0.035     2.523     2.484
    79   1 H        0.926     0.034     2.527     2.486
    80   1 H        0.926     0.036     2.508     2.477
    81   1 H        0.926     0.042     2.419     2.432
    82   1 H        0.926     0.041     2.431     2.438
    83   1 H        0.926     0.040     2.444     2.445
    84   1 H        0.925     0.035     2.520     2.482
    85   1 H        0.925     0.035     2.511     2.478
    86   1 H        0.926     0.041     2.439     2.442
    87   1 H        0.926     0.039     2.464     2.455
    88   1 H        0.926     0.048     2.341     2.393
    89   1 H        0.926     0.036     2.504     2.475
    90   1 H        0.926     0.027     2.625     2.534
    91   1 H        0.926     0.030     2.587     2.515
    92   1 H        0.926     0.032     2.559     2.502
    93   1 H        0.926     0.032     2.558     2.501
    94   1 H        0.926     0.029     2.597     2.520
    95   1 H        0.926     0.026     2.638     2.540
    96   1 H        0.926     0.030     2.581     2.512
    97   1 H        0.926     0.031     2.572     2.508
    98   1 H        0.926     0.031     2.577     2.510
    99   1 H        0.926     0.027     2.627     2.535
   100   1 H        0.926     0.028     2.618     2.530
   101   1 H        0.926     0.030     2.580     2.512
   102   1 H        0.926     0.031     2.571     2.507
   103   1 H        0.926     0.031     2.575     2.509
   104   1 H        0.926     0.028     2.615     2.529
   105   1 H        0.926     0.028     2.612     2.527
   106   1 H        0.926     0.030     2.583     2.513

molecular dipole:
                 x           y           z       tot (Debye)
 q only:       -0.327       0.412       0.373
   full:       -0.404       0.244       0.421       1.607

 projected vibrational frequencies (cm⁻¹)
eigval :       -0.00    -0.00    -0.00    -0.00     0.00     0.00
eigval :        5.03     8.72    13.56    16.27    17.96    26.05
eigval :       28.24    35.13    39.27    43.88    48.83    50.38
eigval :       52.05    62.49    65.62    70.13    72.24    73.24
eigval :       76.35    80.64    88.31    94.98   101.97   111.00
eigval :      112.04   121.56   124.57   137.46   157.74   169.13
eigval :      177.42   201.47   203.30   208.97   212.83   218.20
eigval :      223.33   235.45   243.82   243.98   255.26   258.33
eigval :      280.47   286.62   298.16   317.75   322.81   353.17
eigval :      357.64   363.22   371.47   373.23   374.24   375.28
eigval :      376.52   378.55   386.23   389.53   396.54   398.63
eigval :      401.90   421.67   431.07   451.55   460.00   464.07
eigval :      476.96   486.75   491.94   496.78   497.27   510.97
eigval :      516.14   522.75   532.70   539.87   574.25   581.02
eigval :      582.15   585.24   586.54   587.97   589.31   591.70
eigval :      595.14   603.32   605.15   611.39   616.07   626.61
eigval :      638.02   645.58   653.73   659.17   665.15   666.66
eigval :      668.09   671.67   675.11   677.54   682.98   684.38
eigval :      689.43   690.29   714.84   719.27   726.07   739.67
eigval :      753.64   757.45   762.60   764.02   765.28   771.68
eigval :      776.43   781.88   792.30   805.75   819.64   823.13
eigval :      830.75   848.62   861.18   863.49   866.56   869.31
eigval :      873.91   875.37   878.63   879.67   896.92   897.84
eigval :      900.03   901.49   903.07   903.57   903.80   911.04
eigval :      911.73   915.67   917.67   918.52   920.57   921.11
eigval :      924.65   925.02   927.87   929.02   929.48   929.57
eigval :      930.09   930.23   932.50   932.51   934.67   949.96
eigval :      961.32   973.80   978.70   982.79   989.67   992.34
eigval :     1005.02  1032.83  1048.90  1063.92  1074.29  1079.96
eigval :     1082.57  1083.53  1084.06  1086.45  1088.97  1092.48
eigval :     1101.78  1117.19  1118.94  1119.44  1120.46  1128.86
eigval :     1131.42  1134.65  1138.99  1141.37  1153.54  1174.76
eigval :     1177.28  1178.28  1179.77  1179.82  1181.21  1182.38
eigval :     1185.08  1192.16  1194.32  1196.48  1197.75  1200.21
eigval :     1201.61  1205.60  1216.71  1236.11  1245.77  1248.10
eigval :     1256.03  1259.12  1262.60  1269.73  1279.42  1279.86
eigval :     1280.64  1281.21  1281.67  1283.03  1288.32  1290.94
eigval :     1298.17  1305.75  1312.86  1314.04  1314.10  1315.15
eigval :     1316.20  1317.72  1326.14  1334.62  1344.46  1351.58
eigval :     1383.65  1388.41  1390.54  1393.57  1405.65  1409.75
eigval :     1411.95  1416.67  1422.95  1426.80  1427.90  1431.75
eigval :     1432.32  1436.92  1446.33  1447.05  1461.86  1470.48
eigval :     1476.00  1477.03  1481.14  1483.17  1486.39  1495.19
eigval :     1505.13  1516.91  1521.75  1538.06  1540.37  1542.81
eigval :     1555.56  1560.40  1573.40  1574.90  1575.72  1576.08
eigval :     1580.31  1582.11  1587.55  1594.10  1595.42  1598.27
eigval :     1599.81  3048.06  3056.64  3064.39  3065.61  3066.28
eigval :     3066.54  3067.70  3067.90  3068.35  3069.90  3071.20
eigval :     3073.36  3074.05  3075.16  3075.29  3075.81  3077.01
eigval :     3078.24  3079.03  3079.17  3080.90  3081.04  3081.79
eigval :     3081.98  3082.90  3087.24  3088.30  3088.78  3089.00
eigval :     3089.28  3089.57  3089.76  3091.19  3092.41  3094.08
eigval :     3100.66  3102.64  3110.61  3110.88  3117.28  3127.16

   temp. (K)  partition function   enthalpy   heat capacity  entropy
                                   cal/mol     cal/K/mol   cal/K/mol   J/K/mol
 298.15  VIB  0.314E+26            31069.595    193.204    197.035
         ROT  0.228E+09              888.752      2.981     41.228
         INT  0.718E+34            31958.348    196.185    238.263
         TR   0.231E+29             1481.254      4.968     45.998
         TOT                       33439.6015   201.1527   284.2613  1189.3495

       T/K    H(0)-H(T)+PV         H(T)/Eh          T*S/Eh         G(T)/Eh
   ------------------------------------------------------------------------
    298.15    0.532894E-01    0.866726E+00    0.135062E+00    0.731664E+00
   ------------------------------------------------------------------------

         :::::::::::::::::::::::::::::::::::::::::::::::::::::
         ::                  THERMODYNAMIC                  ::
         :::::::::::::::::::::::::::::::::::::::::::::::::::::
         :: total free energy        -161.724317664539 Eh   ::
         ::.................................................::
         :: total energy             -162.455981794161 Eh   ::
         :: zero point energy           0.813436471324 Eh   ::
         :: G(RRHO) w/o ZPVE           -0.081772341702 Eh   ::
         :: G(RRHO) contrib.            0.731664129623 Eh   ::
         :::::::::::::::::::::::::::::::::::::::::::::::::::::

           -------------------------------------------------
          | TOTAL ENERGY             -162.455981794161 Eh   |
          | TOTAL ENTHALPY           -161.589255925886 Eh   |
          | TOTAL FREE ENERGY        -161.724317664539 Eh   |
          | GRADIENT NORM               0.000038668926 Eh/α |
          | HOMO-LUMO GAP               0.455373809192 eV   |
           -------------------------------------------------

 * finished run on 2025/08/21 at 20:19:23.461
