   * xtb version 6.7.1 (edcfbbe) compiled by 'albert@albert-system' on 2024-07-22

   ID    Z sym.   atoms
    1    6 C      1-12, 14-27, 29-36, 38-65
    2    7 N      13, 28, 37
    3    1 H      66-106

          program call               : xtb data2507/toluene/TPBPPI-PY/TPBPPI-PY_toluene_S0_crest.xyz --gfn 2 --gbsa toluene --ohess vtight --parallel 40 --molden --ceasefiles --namespace data2507/toluene/TPBPPI-PY/TPBPPI-PY_toluene_S0_finalOpt
      * Solvation model:               GBSA
        Solvent                        toluene
        Solvent mass                       9.2140E+01 g/mol
          :  Hamiltonian                  GFN2-xTB          :
 * total energy  :  -162.5440820 Eh     change       -0.3261221E-08 Eh
 * total energy  :  -162.5441550 Eh     change       -0.7302044E-04 Eh
 * total energy  :  -162.5442174 Eh     change       -0.6238132E-04 Eh
 * total energy  :  -162.5442549 Eh     change       -0.3752907E-04 Eh
 * total energy  :  -162.5442928 Eh     change       -0.3787909E-04 Eh
 * total energy  :  -162.5443491 Eh     change       -0.5630078E-04 Eh
 * total energy  :  -162.5443833 Eh     change       -0.3422854E-04 Eh
 * total energy  :  -162.5444084 Eh     change       -0.2506564E-04 Eh
 * total energy  :  -162.5444392 Eh     change       -0.3074475E-04 Eh
 * total energy  :  -162.5444636 Eh     change       -0.2440536E-04 Eh
 * total energy  :  -162.5452823 Eh     change       -0.9536584E-06 Eh
 * total energy  :  -162.5452833 Eh     change       -0.1000823E-05 Eh
 * total energy  :  -162.5452844 Eh     change       -0.1081091E-05 Eh
 * total energy  :  -162.5452856 Eh     change       -0.1150373E-05 Eh
 * total energy  :  -162.5452867 Eh     change       -0.1149395E-05 Eh
 * total energy  :  -162.5452878 Eh     change       -0.1087591E-05 Eh
 * total energy  :  -162.5452888 Eh     change       -0.9986853E-06 Eh
 * total energy  :  -162.5452897 Eh     change       -0.9146186E-06 Eh
 * total energy  :  -162.5452897 Eh     change       -0.3986656E-08 Eh
   *** GEOMETRY OPTIMIZATION CONVERGED AFTER 68 ITERATIONS ***

 final structure:
================
106
 xtb: 6.7.1 (edcfbbe)
C           -6.34400359361672        1.97583808043422       -5.09828058653542
C           -5.43060109182965        2.87515289816601       -4.57383884398303
C           -4.80681870060551        2.60782002811009       -3.36862392505280
C           -5.09677461744309        1.44196623435872       -2.66515755944667
C           -4.41945188308704        1.16640564000853       -1.38377624275337
C           -3.03326571566603        1.22123367918325       -1.33003934566429
C           -2.34008156495808        0.95466352873523       -0.15702611687056
C           -0.86918658099318        1.05309189971405       -0.15586553873117
C           -0.12331006338488        0.34943641376637       -1.09756692266711
C            1.25533472906665        0.41918759004192       -1.10489874502525
C            1.92357948669647        1.20928822527311       -0.17160206734606
C            3.37571259992169        1.30542963833290       -0.13422883277881
N            4.02772356691723        2.42467329157555        0.05702225662710
C            5.34867184004086        2.09902530058121        0.01121435106160
C            6.46609271963248        2.97222007152227        0.12960163646413
C            6.29637468256811        4.35015455663111        0.30614605620460
C            7.38708375980308        5.17930842650579        0.39046680404459
C            8.66762146740859        4.63687345484965        0.29600550735019
C            8.84659332297421        3.28351957025848        0.12765437181016
C            7.75732834054603        2.40168855771028        0.04513662910457
C            7.91497246571823        0.96395356624124       -0.09623068155347
C            9.18132926898544        0.36070027316977       -0.10814161565754
C            9.34048565968494       -1.00228177855036       -0.19556167586851
C            8.22551345819527       -1.83238206904614       -0.25926262672302
C            6.96774514635058       -1.28135236663367       -0.25941573701764
C            6.78354970960948        0.10791339996635       -0.20006366980548
C            5.50278911144504        0.73015367402540       -0.19946425001646
N            4.22226862785525        0.23182333698029       -0.30425283403272
C            3.78974109180201       -1.09253931489243       -0.51813272920622
C            3.00546781929724       -1.71991590691392        0.44332541405639
C            2.53267284795718       -2.99762989104235        0.21852267080985
C            2.83741820082954       -3.67340254868810       -0.96163434017980
C            2.33143986110305       -5.03207644758948       -1.19415855511100
C            1.02787111282784       -5.39477245254424       -0.85607291592345
C            0.60107310235988       -6.68881977667805       -1.09731688026684
C            1.49399165332048       -7.58247655132952       -1.67042111508954
N            2.73615064903653       -7.25660818733842       -1.99037046752827
C            3.13906927878971       -6.02154002985026       -1.75842546780436
C            3.63104910975155       -3.03735484901306       -1.91564021349263
C            4.09771758606330       -1.75536207794019       -1.70320183068971
C            1.17588572159435        1.95317715480925        0.74102803303699
C           -0.20075639829797        1.86929670177577        0.75365681959762
C           -3.05190311245925        0.61738210456346        0.99893419336139
C           -2.33526086671512        0.31978327496817        2.25629289888096
C           -1.38980528802634       -0.70010460019994        2.30478444227743
C           -0.73226517126586       -0.98925040544170        3.48636653633564
C           -1.00133458873844       -0.25763327949036        4.63102140083268
C           -1.93287766565576        0.76616959441293        4.58849757405018
C           -2.59859362465287        1.05073037931267        3.41062641997021
C           -4.44833133397355        0.55324719328215        0.95578929164488
C           -5.20244369734561        0.18257441435232        2.17326489948191
C           -4.98327004778865       -1.04568815111914        2.78875627542312
C           -5.68975555448063       -1.39740978951784        3.92401607657340
C           -6.62092234783482       -0.52467925326851        4.46174661944697
C           -6.84358525015527        0.70095733968811        3.85659307565567
C           -6.14136861601455        1.05206928987113        2.71826725320259
C           -5.13640804903636        0.83048470903569       -0.22977790115116
C           -6.61277380064101        0.77743667408405       -0.25999991609689
C           -7.29008212501879       -0.39098576667105        0.07470559460850
C           -8.67162026786797       -0.43448485634670        0.04065564556902
C           -9.39489671842482        0.68971816741732       -0.32158005703283
C           -8.72878126775326        1.85744943374826       -0.65445598330995
C           -7.34705534198647        1.90082382899476       -0.62737140037955
C           -6.00812236362877        0.53910767045622       -3.20530934297312
C           -6.62626799780367        0.80546245371344       -4.41303848520657
H           -6.83217564724282        2.18477657118517       -6.03915321139500
H           -5.20367603403930        3.78840616955212       -5.10545267480179
H           -4.10105246621912        3.31537635093761       -2.95609256328774
H           -2.48024904448132        1.47988881503696       -2.22177557483286
H           -0.63097211077011       -0.27105185545106       -1.82228782607836
H            1.81053872357105       -0.12829818898202       -1.85190274523237
H            5.28796749913909        4.73072826378558        0.36615232102716
H            7.25853706597216        6.24329977616725        0.52533841608836
H            9.52959716480265        5.28587975113565        0.35518994654452
H            9.85575687724363        2.90997774438140        0.05743021462530
H           10.06640166491200        0.97193251105154       -0.03804945128714
H           10.33254738232437       -1.42948834422425       -0.20185863950776
H            8.34696521824017       -2.90465828974568       -0.30387943621895
H            6.10623723536017       -1.92885796212508       -0.29061522463533
H            2.77146644833454       -1.19857080579745        1.35954641352292
H            1.93811253436336       -3.48548697890418        0.97568405042668
H            0.35528118332960       -4.66398080955947       -0.43042664991819
H           -0.40333369335974       -6.99748950598783       -0.85198880650056
H            1.20975998030501       -8.60423428494189       -1.88572149574011
H            4.16847182178659       -5.81268276445299       -2.02112897335486
H            3.86181297431012       -3.54126689683044       -2.84207489883254
H            4.70116533014923       -1.25991438904513       -2.45007488570592
H            1.69526952031543        2.58914687280508        1.44168622771141
H           -0.76735755079841        2.44621840511028        1.46911522390250
H           -1.18158785841339       -1.27409598395850        1.41274484369378
H           -0.00940072239959       -1.79176276672508        3.51897953851145
H           -0.48630101571194       -0.48450364445291        5.55326388912962
H           -2.14457932725943        1.34318050462527        5.47718563564190
H           -3.32310625681655        1.85173039150208        3.37940253685979
H           -4.26127014429660       -1.73041735010279        2.36719507002496
H           -5.51278772761033       -2.35589471797670        4.39083055699171
H           -7.17162214137716       -0.79876174739556        5.34990545961650
H           -7.56812836759260        1.38637566309599        4.27245516254444
H           -6.31332398269438        2.01132078706812        2.25117351346190
H           -6.72834518516007       -1.27175739443613        0.35118145455806
H           -9.18574872998168       -1.34939267329498        0.29855929010181
H          -10.47445467052634        0.65573685497881       -0.34527022573884
H           -9.28778376952808        2.73791321372309       -0.93735506473700
H           -6.82904718512077        2.81414849358832       -0.88379880625165
H           -6.22514894776537       -0.37881342871037       -2.67898347658435
H           -7.33203300957341        0.09638030543773       -4.82143538495564

          :  Hamiltonian                  GFN2-xTB          :
         :: gradient norm              0.000051740672 Eh/a0 ::
         :: HOMO-LUMO gap              2.588773585094 eV    ::
         :: SCC energy              -165.656301301697 Eh    ::
         :: -> dispersion             -0.162054765495 Eh    ::
         :: -> Gsolv                  -0.067490107917 Eh    ::
         :: repulsion energy           3.111011580896 Eh    ::

    * Orbital Energies and Occupations

         #    Occupation            Energy/Eh            Energy/eV
      -------------------------------------------------------------
         1        2.0000           -0.6899756             -18.7752
       ...           ...                  ...                  ...
       140        2.0000           -0.4037773             -10.9873
       141        2.0000           -0.4035270             -10.9805
       142        2.0000           -0.4023814             -10.9494
       143        2.0000           -0.3997140             -10.8768
       144        2.0000           -0.3983251             -10.8390
       145        2.0000           -0.3965319             -10.7902
       146        2.0000           -0.3934858             -10.7073
       147        2.0000           -0.3838154             -10.4441
       148        2.0000           -0.3828620             -10.4182
       149        2.0000           -0.3812004             -10.3730
       150        2.0000           -0.3788571             -10.3092
       151        2.0000           -0.3745128             -10.1910
       152        2.0000           -0.3656939              -9.9510 (HOMO)
       153                         -0.2705582              -7.3623 (LUMO)
       154                         -0.2618590              -7.1255
       155                         -0.2530351              -6.8854
       156                         -0.2505924              -6.8190
       157                         -0.2501799              -6.8077
       158                         -0.2466733              -6.7123
       159                         -0.2438527              -6.6356
       160                         -0.2365817              -6.4377
       161                         -0.2295718              -6.2470
       162                         -0.2255284              -6.1369
       163                         -0.2245256              -6.1097
       ...                                ...                  ...
       301                          0.7241479              19.7051
      -------------------------------------------------------------
                  HL-Gap            0.0951357 Eh            2.5888 eV

     #   Z          covCN         q      C6AA      α(0)
     1   6 C        2.920    -0.032    28.800     8.800
     2   6 C        2.918    -0.031    28.766     8.795
     3   6 C        2.925    -0.035    28.861     8.810
     4   6 C        2.978     0.012    27.730     8.638
     5   6 C        2.977     0.003    27.943     8.671
     6   6 C        2.930    -0.042    29.053     8.840
     7   6 C        2.977     0.003    27.957     8.673
     8   6 C        2.978     0.016    27.643     8.624
     9   6 C        2.924    -0.034    28.850     8.808
    10   6 C        2.921    -0.036    28.884     8.813
    11   6 C        2.974    -0.003    28.101     8.695
    12   6 C        3.192     0.137    24.551     8.081
    13   7 N        1.893    -0.318    29.083     7.995
    14   6 C        3.207     0.060    26.070     8.314
    15   6 C        2.985    -0.003    28.092     8.694
    16   6 C        2.921    -0.033    28.832     8.805
    17   6 C        2.917    -0.032    28.791     8.799
    18   6 C        2.917    -0.034    28.851     8.808
    19   6 C        2.921    -0.036    28.906     8.817
    20   6 C        2.979    -0.005    28.136     8.701
    21   6 C        2.979    -0.001    28.056     8.689
    22   6 C        2.922    -0.035    28.870     8.811
    23   6 C        2.916    -0.034    28.845     8.807
    24   6 C        2.917    -0.032    28.808     8.801
    25   6 C        2.919    -0.041    29.031     8.836
    26   6 C        2.978    -0.005    28.143     8.702
    27   6 C        3.072     0.021    27.459     8.592
    28   7 N        2.840    -0.054    22.273     7.009
    29   6 C        2.913     0.066    26.524     8.445
    30   6 C        2.920    -0.038    28.941     8.822
    31   6 C        2.925    -0.029    28.733     8.790
    32   6 C        2.975     0.011    27.770     8.644
    33   6 C        2.972     0.002    27.980     8.677
    34   6 C        2.933    -0.016    28.402     8.740
    35   6 C        2.912    -0.038    28.955     8.824
    36   6 C        2.912     0.059    26.687     8.471
    37   7 N        1.835    -0.235    27.006     7.701
    38   6 C        2.916     0.056    26.734     8.479
    39   6 C        2.924    -0.032    28.787     8.799
    40   6 C        2.919    -0.037    28.908     8.817
    41   6 C        2.925    -0.029    28.717     8.788
    42   6 C        2.922    -0.030    28.751     8.793
    43   6 C        2.982    -0.001    28.047     8.687
    44   6 C        2.977     0.015    27.665     8.628
    45   6 C        2.924    -0.033    28.823     8.804
    46   6 C        2.919    -0.031    28.778     8.797
    47   6 C        2.920    -0.032    28.808     8.802
    48   6 C        2.919    -0.030    28.754     8.793
    49   6 C        2.925    -0.032    28.797     8.800
    50   6 C        2.982     0.000    28.011     8.682
    51   6 C        2.978     0.016    27.660     8.627
    52   6 C        2.925    -0.032    28.805     8.802
    53   6 C        2.919    -0.031    28.766     8.795
    54   6 C        2.920    -0.032    28.801     8.801
    55   6 C        2.919    -0.030    28.760     8.794
    56   6 C        2.925    -0.032    28.795     8.800
    57   6 C        2.982    -0.001    28.035     8.685
    58   6 C        2.977     0.016    27.653     8.626
    59   6 C        2.924    -0.032    28.806     8.802
    60   6 C        2.919    -0.031    28.765     8.795
    61   6 C        2.920    -0.032    28.802     8.801
    62   6 C        2.919    -0.030    28.761     8.794
    63   6 C        2.925    -0.032    28.797     8.800
    64   6 C        2.924    -0.032    28.802     8.801
    65   6 C        2.919    -0.030    28.758     8.794
    66   1 H        0.926     0.031     2.576     2.510
    67   1 H        0.926     0.031     2.567     2.506
    68   1 H        0.926     0.031     2.565     2.505
    69   1 H        0.926     0.036     2.501     2.473
    70   1 H        0.926     0.039     2.461     2.453
    71   1 H        0.926     0.029     2.605     2.524
    72   1 H        0.926     0.043     2.406     2.426
    73   1 H        0.926     0.033     2.549     2.497
    74   1 H        0.926     0.032     2.555     2.499
    75   1 H        0.926     0.035     2.517     2.481
    76   1 H        0.926     0.037     2.485     2.465
    77   1 H        0.926     0.033     2.543     2.494
    78   1 H        0.926     0.032     2.558     2.501
    79   1 H        0.926     0.029     2.601     2.522
    80   1 H        0.926     0.041     2.432     2.439
    81   1 H        0.926     0.049     2.329     2.387
    82   1 H        0.926     0.046     2.368     2.407
    83   1 H        0.926     0.045     2.377     2.411
    84   1 H        0.925     0.040     2.455     2.450
    85   1 H        0.925     0.040     2.454     2.450
    86   1 H        0.926     0.048     2.340     2.392
    87   1 H        0.926     0.045     2.377     2.411
    88   1 H        0.926     0.042     2.417     2.431
    89   1 H        0.926     0.038     2.473     2.459
    90   1 H        0.926     0.027     2.634     2.538
    91   1 H        0.926     0.029     2.594     2.519
    92   1 H        0.926     0.031     2.575     2.510
    93   1 H        0.926     0.031     2.575     2.509
    94   1 H        0.926     0.028     2.610     2.527
    95   1 H        0.926     0.027     2.626     2.534
    96   1 H        0.926     0.030     2.580     2.512
    97   1 H        0.926     0.031     2.575     2.509
    98   1 H        0.926     0.030     2.580     2.512
    99   1 H        0.926     0.027     2.625     2.534
   100   1 H        0.926     0.027     2.627     2.535
   101   1 H        0.926     0.030     2.585     2.514
   102   1 H        0.926     0.031     2.577     2.510
   103   1 H        0.926     0.030     2.581     2.512
   104   1 H        0.926     0.027     2.626     2.534
   105   1 H        0.926     0.028     2.608     2.526
   106   1 H        0.926     0.030     2.585     2.514

molecular dipole:
                 x           y           z       tot (Debye)
 q only:       -1.062      -0.803       0.048
   full:       -1.155      -0.878       0.161       3.711

 projected vibrational frequencies (cm⁻¹)
eigval :       -0.00    -0.00    -0.00    -0.00     0.00     0.00
eigval :        9.02    10.81    15.60    18.90    22.06    25.94
eigval :       27.50    35.40    39.69    44.45    45.02    48.91
eigval :       53.42    63.96    65.20    69.57    70.04    73.30
eigval :       77.20    79.89    84.57    95.04    98.66   103.99
eigval :      108.67   117.04   118.81   136.66   161.37   164.99
eigval :      177.10   203.61   205.74   208.07   213.41   218.36
eigval :      230.40   235.44   243.87   245.17   254.92   260.06
eigval :      284.45   294.06   304.04   317.89   347.60   359.29
eigval :      361.31   367.80   372.71   373.00   374.37   374.66
eigval :      376.90   378.17   384.56   398.29   404.64   407.01
eigval :      415.13   439.19   448.37   453.33   463.89   481.00
eigval :      489.32   490.99   499.90   501.90   520.57   522.84
eigval :      529.88   537.54   540.54   546.62   578.95   583.40
eigval :      584.80   587.50   587.82   589.87   596.12   597.78
eigval :      605.71   607.80   612.19   616.54   632.77   644.23
eigval :      646.27   656.55   663.04   667.96   669.72   674.23
eigval :      678.01   681.03   683.79   685.75   687.64   689.34
eigval :      700.09   708.73   719.52   725.34   737.29   744.94
eigval :      758.93   764.06   764.95   765.26   769.75   781.86
eigval :      782.74   784.61   797.70   818.87   828.86   837.70
eigval :      861.84   868.57   871.20   872.63   874.54   876.23
eigval :      877.12   878.02   881.08   882.99   897.84   901.15
eigval :      902.90   903.94   904.49   907.13   911.60   913.41
eigval :      917.02   918.61   924.50   926.38   927.12   927.18
eigval :      928.25   929.20   930.28   931.14   931.36   931.46
eigval :      931.86   932.71   935.09   939.00   949.22   959.20
eigval :      969.23   981.33   987.16   992.28  1005.83  1014.24
eigval :     1029.97  1041.17  1069.36  1073.74  1080.96  1083.05
eigval :     1083.72  1084.61  1085.21  1089.94  1094.36  1106.78
eigval :     1118.74  1119.43  1119.90  1120.74  1132.66  1134.33
eigval :     1135.24  1139.38  1139.77  1151.51  1172.65  1179.77
eigval :     1180.20  1180.55  1181.08  1182.25  1184.07  1188.96
eigval :     1189.12  1195.44  1196.82  1196.90  1200.08  1201.70
eigval :     1203.04  1208.15  1241.12  1251.89  1253.79  1255.66
eigval :     1261.54  1268.10  1269.86  1276.93  1278.72  1281.39
eigval :     1281.84  1282.31  1283.72  1288.15  1293.69  1294.40
eigval :     1304.96  1310.56  1313.38  1314.61  1315.78  1316.90
eigval :     1317.84  1327.09  1337.62  1345.25  1361.48  1373.46
eigval :     1389.50  1394.50  1405.93  1406.69  1409.96  1418.68
eigval :     1423.68  1428.26  1429.22  1430.39  1433.23  1434.34
eigval :     1440.99  1445.77  1473.32  1477.67  1480.97  1488.89
eigval :     1493.09  1496.45  1512.99  1515.27  1536.07  1544.88
eigval :     1555.64  1557.69  1562.33  1563.80  1566.03  1569.07
eigval :     1570.15  1581.20  1581.84  1582.52  1583.43  1593.16
eigval :     1593.38  1597.70  1599.46  1600.23  1600.42  1600.83
eigval :     1603.45  3050.50  3057.48  3065.03  3066.39  3066.56
eigval :     3066.59  3067.83  3068.32  3068.70  3069.02  3070.07
eigval :     3073.40  3073.93  3074.16  3074.56  3075.23  3075.48
eigval :     3076.28  3077.36  3079.01  3079.94  3080.09  3080.96
eigval :     3082.59  3083.26  3084.25  3085.42  3088.14  3088.36
eigval :     3088.55  3089.23  3089.34  3090.22  3093.73  3095.51
eigval :     3096.64  3098.20  3099.01  3100.04  3109.81  3115.19

   temp. (K)  partition function   enthalpy   heat capacity  entropy
                                   cal/mol     cal/K/mol   cal/K/mol   J/K/mol
 298.15  VIB  0.879E+25            30785.459    191.102    194.710
         ROT  0.214E+09              888.752      2.981     41.098
         INT  0.188E+34            31674.212    194.083    235.808
         TR   0.231E+29             1481.254      4.968     45.998
         TOT                       33155.4654   199.0508   281.8059  1179.0759

       T/K    H(0)-H(T)+PV         H(T)/Eh          T*S/Eh         G(T)/Eh
   ------------------------------------------------------------------------
    298.15    0.528366E-01    0.870732E+00    0.133895E+00    0.736837E+00
   ------------------------------------------------------------------------

         :::::::::::::::::::::::::::::::::::::::::::::::::::::
         ::                  THERMODYNAMIC                  ::
         :::::::::::::::::::::::::::::::::::::::::::::::::::::
         :: total free energy        -161.808452353298 Eh   ::
         ::.................................................::
         :: total energy             -162.545289715351 Eh   ::
         :: zero point energy           0.817895844561 Eh   ::
         :: G(RRHO) w/o ZPVE           -0.081058482507 Eh   ::
         :: G(RRHO) contrib.            0.736837362053 Eh   ::
         :::::::::::::::::::::::::::::::::::::::::::::::::::::

           -------------------------------------------------
          | TOTAL ENERGY             -162.545289715351 Eh   |
          | TOTAL ENTHALPY           -161.674557273406 Eh   |
          | TOTAL FREE ENERGY        -161.808452353298 Eh   |
          | GRADIENT NORM               0.000051737193 Eh/α |
          | HOMO-LUMO GAP               2.588773778681 eV   |
           -------------------------------------------------

 * finished run on 2025/08/21 at 20:18:53.439
