   * xtb version 6.7.1 (edcfbbe) compiled by 'albert@albert-system' on 2024-07-22

   ID    Z sym.   atoms
    1    6 C      1-12, 14-27, 29-36, 38-65
    2    7 N      13, 28, 37
    3    1 H      66-106

          program call               : xtb data2507/toluene/TPBPPI-PY/TPBPPI-PY.xyz --gfn 2 --gbsa toluene --ohess vtight --parallel 40 --molden --ceasefiles --namespace data2507/toluene/TPBPPI-PY/TPBPPI-PY_toluene_S0_preOpt
      * Solvation model:               GBSA
        Solvent                        toluene
        Solvent mass                       9.2140E+01 g/mol
          :  Hamiltonian                  GFN2-xTB          :
 * total energy  :  -162.5135432 Eh     change       -0.4812534E-08 Eh
 * total energy  :  -162.5293220 Eh     change       -0.1577877E-01 Eh
 * total energy  :  -162.5335293 Eh     change       -0.4207296E-02 Eh
 * total energy  :  -162.5348807 Eh     change       -0.1351361E-02 Eh
 * total energy  :  -162.5356872 Eh     change       -0.8065869E-03 Eh
 * total energy  :  -162.5360139 Eh     change       -0.3266988E-03 Eh
 * total energy  :  -162.5363063 Eh     change       -0.2923816E-03 Eh
 * total energy  :  -162.5366471 Eh     change       -0.3407726E-03 Eh
 * total energy  :  -162.5370492 Eh     change       -0.4020901E-03 Eh
 * total energy  :  -162.5375276 Eh     change       -0.4784378E-03 Eh
 * total energy  :  -162.5451961 Eh     change       -0.7120538E-06 Eh
 * total energy  :  -162.5451968 Eh     change       -0.6859846E-06 Eh
 * total energy  :  -162.5451974 Eh     change       -0.6010477E-06 Eh
 * total energy  :  -162.5451980 Eh     change       -0.5638848E-06 Eh
 * total energy  :  -162.5451985 Eh     change       -0.5481721E-06 Eh
 * total energy  :  -162.5451991 Eh     change       -0.5863578E-06 Eh
 * total energy  :  -162.5451997 Eh     change       -0.6402163E-06 Eh
 * total energy  :  -162.5452005 Eh     change       -0.7264277E-06 Eh
 * total energy  :  -162.5452005 Eh     change       -0.4087525E-08 Eh
   *** GEOMETRY OPTIMIZATION CONVERGED AFTER 185 ITERATIONS ***

 final structure:
================
106
 xtb: 6.7.1 (edcfbbe)
C           -5.99156116249836        3.44568469310212       -4.46456618758237
C           -5.14429565527235        4.11009649877232       -3.59350171877192
C           -4.56986024521932        3.43375210867641       -2.53257386389973
C           -4.84410923680248        2.08527159197211       -2.32133695121295
C           -4.22140223486985        1.37569739372886       -1.18779540812526
C           -2.84456426480143        1.44568323878491       -1.02408272219098
C           -2.20281518573514        0.78713613986906        0.01579519769295
C           -0.74492641138463        0.94171999142908        0.16969744593890
C            0.10754361301388        0.67909902898579       -0.89887230833322
C            1.47383157305325        0.82973478750832       -0.76838817063635
C            2.02076690190640        1.26176201198117        0.43820923699321
C            3.45189919895615        1.45485074772069        0.61965094591472
N            3.96756604924330        2.47322073858846        1.26193842233707
C            5.31730340458389        2.31431626115707        1.19123984479695
C            6.32501785216352        3.18323231025795        1.69585641390188
C            5.99551351472785        4.36840998064768        2.36313929145911
C            6.98238129639211        5.21191285617443        2.80902171043100
C            8.31769959514927        4.88139848478415        2.58419549831218
C            8.65360198840274        3.71591478456636        1.93545549751017
C            7.67429456570333        2.82033745348222        1.47748930359104
C            7.99776935047524        1.56066535812389        0.82909731604946
C            9.32446731239105        1.13129694939800        0.67698162844655
C            9.63919144882670       -0.08181431279985        0.11127790247109
C            8.62748470696675       -0.93683911611887       -0.31506572088391
C            7.31546080325240       -0.55007782297329       -0.19345185806332
C            6.97376358527444        0.69620157535385        0.35195286026287
C            5.63115342503793        1.14762338751014        0.49692128688490
N            4.41891437672024        0.60881381317536        0.12363492519109
C            4.15367988964033       -0.56864242797915       -0.60426271178616
C            3.42781404459675       -1.59484723268207       -0.01027751010633
C            3.13348257135392       -2.73519092436059       -0.73147491752953
C            3.56110598845461       -2.87510114062712       -2.05059910883647
C            3.25535735160663       -4.09531797891886       -2.80752806171917
C            2.01143744713276       -4.71992297301333       -2.72035376242083
C            1.77912439676451       -5.87094884184140       -3.45261575797479
C            2.79968362333462       -6.36120919315653       -4.25417573655735
N            3.98732117436409       -5.78410587183537       -4.34382054125517
C            4.20571620875137       -4.68881569146303       -3.64100406386192
C            4.28797786614185       -1.83880281154489       -2.63611222369134
C            4.57739202496311       -0.69149694379887       -1.92491323535489
C            1.16489099754392        1.56242803838600        1.49786832551829
C           -0.19752045028075        1.39586115349903        1.36758633368965
C           -2.95570037624834        0.02236675693334        0.91335610971526
C           -2.28200791188061       -0.70848995877197        2.00634543946204
C           -1.28191006146374       -1.63193911157682        1.71617671175523
C           -0.65192104940210       -2.32553175526796        2.73280697755601
C           -1.00410920102986       -2.09860377261775        4.05285050136718
C           -1.99253710277561       -1.17552990193773        4.35080144337332
C           -2.63015924169327       -0.48729284810018        3.33505561591373
C           -4.34352455277084       -0.05450249107624        0.75965843952046
C           -5.14365117307534       -0.85799769705023        1.70994926813263
C           -4.91324650745529       -2.22293507037320        1.84807977625194
C           -5.66385458996695       -2.97448956683872        2.73334044047635
C           -6.64887237479740       -2.37107823071294        3.49716169790335
C           -6.88211431144678       -1.01199358619825        3.36867676354045
C           -6.13733700973870       -0.26036249897592        2.47845584016907
C           -4.98100181550490        0.62379302021298       -0.28421327350137
C           -6.45072850557355        0.56140155209151       -0.42321303615549
C           -7.10370247439567       -0.65732830391574       -0.57837579331992
C           -8.47922668628833       -0.70320606980701       -0.71221498716408
C           -9.22087060013541        0.46613488240294       -0.68659510686739
C           -8.57905884056740        1.68344716812992       -0.53027867980523
C           -7.20323110221187        1.73177730706710       -0.40277158615144
C           -5.68838971746926        1.42338672155296       -3.20820222604608
C           -6.25685042939171        2.09979757639514       -4.27163660381671
H           -6.44168549911623        3.97432879026684       -5.29226851165134
H           -4.93098749171546        5.15936841054928       -3.74043214035946
H           -3.91636533546671        3.95641120671088       -1.84796505943280
H           -2.25903238668122        2.03142611086569       -1.71832559934122
H           -0.30593624584182        0.34264472306081       -1.83900498122863
H            2.11303305163780        0.63183370819400       -1.61589223763358
H            4.94936753764502        4.59320079099295        2.50552473974617
H            6.73071785922182        6.12753004710269        3.32393645308989
H            9.09840397600945        5.54715349003925        2.92337808190960
H            9.69968128114717        3.50399282200551        1.78142442996031
H           10.13247654107454        1.75724956723666        1.01936565257014
H           10.67330313088410       -0.37745710456806        0.01169315791268
H            8.87092428594099       -1.90128982514113       -0.73597201437261
H            6.53340846835979       -1.22255759921137       -0.50763742320644
H            3.10190632514714       -1.49071989958221        1.01404245887097
H            2.58656338244347       -3.53667671743726       -0.25876334300005
H            1.23341912695112       -4.29504076626407       -2.10251081202948
H            0.82574749096199       -6.37438700955390       -3.40873181051418
H            2.66820582904924       -7.25299262258396       -4.85298695536830
H            5.19962421486698       -4.26944555892790       -3.73360005523064
H            4.60883881996449       -1.92362679447086       -3.66334479319415
H            5.13387611072614        0.11360719216688       -2.38284291969037
H            1.58998803378768        1.92430830317899        2.42165351310136
H           -0.84914089424386        1.63094999763487        2.19568000662747
H           -1.00851445801334       -1.81223472683978        0.68603816147903
H            0.11556098149270       -3.04862264568481        2.49633964480086
H           -0.50984446769025       -2.63936038452588        4.84692569342244
H           -2.26915008570230       -0.99149374402914        5.37902203358798
H           -3.39680894569465        0.23631734979351        3.57148670059900
H           -4.14788224776950       -2.69654619871757        1.24986340054560
H           -5.47880556335396       -4.03495690859700        2.82836194947650
H           -7.23334024653463       -2.95835605693791        4.19049082375963
H           -7.64837447506524       -0.53547913561091        3.96328932148920
H           -6.31845331210122        0.80077239433007        2.38236921708253
H           -6.52725073561348       -1.57094906220056       -0.60572096608465
H           -8.97418741763681       -1.65584501855076       -0.83642163397000
H          -10.29579148687423        0.42934820171135       -0.78874768668195
H           -9.15233743032166        2.59925436612308       -0.50876951116764
H           -6.70440521010726        2.68229330406817       -0.27645715068001
H           -5.89166427573296        0.37204199129105       -3.06717945406845
H           -6.91063190127116        1.57418879621501       -4.95276496045473

          :  Hamiltonian                  GFN2-xTB          :
         :: gradient norm              0.000048861804 Eh/a0 ::
         :: HOMO-LUMO gap              2.581960152011 eV    ::
         :: SCC energy              -165.656273726360 Eh    ::
         :: -> dispersion             -0.161765605347 Eh    ::
         :: -> Gsolv                  -0.067507623838 Eh    ::
         :: repulsion energy           3.111073263599 Eh    ::

    * Orbital Energies and Occupations

         #    Occupation            Energy/Eh            Energy/eV
      -------------------------------------------------------------
         1        2.0000           -0.6899500             -18.7745
       ...           ...                  ...                  ...
       140        2.0000           -0.4036756             -10.9846
       141        2.0000           -0.4034451             -10.9783
       142        2.0000           -0.4022881             -10.9468
       143        2.0000           -0.3997261             -10.8771
       144        2.0000           -0.3981994             -10.8356
       145        2.0000           -0.3964808             -10.7888
       146        2.0000           -0.3932401             -10.7006
       147        2.0000           -0.3838044             -10.4438
       148        2.0000           -0.3828575             -10.4181
       149        2.0000           -0.3810446             -10.3688
       150        2.0000           -0.3786413             -10.3034
       151        2.0000           -0.3745061             -10.1908
       152        2.0000           -0.3655919              -9.9483 (HOMO)
       153                         -0.2707066              -7.3663 (LUMO)
       154                         -0.2619584              -7.1283
       155                         -0.2529958              -6.8844
       156                         -0.2506427              -6.8203
       157                         -0.2501944              -6.8081
       158                         -0.2464878              -6.7073
       159                         -0.2437993              -6.6341
       160                         -0.2365483              -6.4368
       161                         -0.2294068              -6.2425
       162                         -0.2254275              -6.1342
       163                         -0.2244271              -6.1070
       ...                                ...                  ...
       301                          0.7241621              19.7055
      -------------------------------------------------------------
                  HL-Gap            0.0948853 Eh            2.5820 eV

     #   Z          covCN         q      C6AA      α(0)
     1   6 C        2.920    -0.032    28.800     8.800
     2   6 C        2.918    -0.031    28.766     8.795
     3   6 C        2.925    -0.035    28.862     8.810
     4   6 C        2.978     0.013    27.730     8.638
     5   6 C        2.977     0.003    27.944     8.671
     6   6 C        2.930    -0.042    29.053     8.840
     7   6 C        2.978     0.003    27.958     8.673
     8   6 C        2.978     0.016    27.643     8.624
     9   6 C        2.924    -0.034    28.850     8.808
    10   6 C        2.921    -0.036    28.886     8.814
    11   6 C        2.974    -0.003    28.103     8.696
    12   6 C        3.192     0.137    24.557     8.082
    13   7 N        1.893    -0.318    29.087     7.996
    14   6 C        3.206     0.060    26.074     8.316
    15   6 C        2.985    -0.003    28.092     8.694
    16   6 C        2.921    -0.033    28.832     8.805
    17   6 C        2.917    -0.032    28.791     8.799
    18   6 C        2.917    -0.034    28.851     8.808
    19   6 C        2.921    -0.036    28.906     8.817
    20   6 C        2.979    -0.005    28.136     8.701
    21   6 C        2.979    -0.001    28.057     8.689
    22   6 C        2.922    -0.035    28.870     8.811
    23   6 C        2.916    -0.034    28.845     8.807
    24   6 C        2.917    -0.032    28.807     8.801
    25   6 C        2.919    -0.041    29.028     8.835
    26   6 C        2.978    -0.005    28.144     8.702
    27   6 C        3.072     0.021    27.458     8.592
    28   7 N        2.840    -0.053    22.271     7.009
    29   6 C        2.913     0.066    26.522     8.445
    30   6 C        2.920    -0.038    28.942     8.822
    31   6 C        2.925    -0.029    28.734     8.791
    32   6 C        2.975     0.011    27.771     8.644
    33   6 C        2.972     0.002    27.981     8.677
    34   6 C        2.933    -0.016    28.405     8.741
    35   6 C        2.912    -0.038    28.955     8.824
    36   6 C        2.912     0.059    26.687     8.471
    37   7 N        1.835    -0.235    27.007     7.701
    38   6 C        2.917     0.056    26.734     8.479
    39   6 C        2.924    -0.032    28.787     8.799
    40   6 C        2.919    -0.036    28.906     8.817
    41   6 C        2.926    -0.029    28.717     8.788
    42   6 C        2.923    -0.030    28.753     8.793
    43   6 C        2.982    -0.001    28.048     8.687
    44   6 C        2.977     0.015    27.666     8.628
    45   6 C        2.925    -0.033    28.827     8.805
    46   6 C        2.919    -0.031    28.779     8.797
    47   6 C        2.920    -0.032    28.809     8.802
    48   6 C        2.919    -0.030    28.755     8.793
    49   6 C        2.924    -0.032    28.797     8.800
    50   6 C        2.982     0.001    28.009     8.681
    51   6 C        2.978     0.016    27.658     8.627
    52   6 C        2.925    -0.032    28.802     8.801
    53   6 C        2.919    -0.031    28.765     8.795
    54   6 C        2.920    -0.032    28.801     8.801
    55   6 C        2.919    -0.030    28.760     8.794
    56   6 C        2.925    -0.032    28.796     8.800
    57   6 C        2.982    -0.001    28.036     8.686
    58   6 C        2.977     0.016    27.653     8.626
    59   6 C        2.924    -0.032    28.807     8.802
    60   6 C        2.919    -0.031    28.765     8.795
    61   6 C        2.920    -0.032    28.802     8.801
    62   6 C        2.919    -0.031    28.761     8.794
    63   6 C        2.925    -0.032    28.797     8.800
    64   6 C        2.924    -0.032    28.802     8.801
    65   6 C        2.919    -0.030    28.758     8.794
    66   1 H        0.926     0.031     2.576     2.510
    67   1 H        0.926     0.031     2.568     2.506
    68   1 H        0.926     0.031     2.566     2.505
    69   1 H        0.926     0.036     2.501     2.473
    70   1 H        0.926     0.039     2.461     2.453
    71   1 H        0.926     0.029     2.605     2.524
    72   1 H        0.926     0.043     2.406     2.426
    73   1 H        0.926     0.033     2.549     2.497
    74   1 H        0.926     0.032     2.555     2.499
    75   1 H        0.926     0.035     2.517     2.481
    76   1 H        0.926     0.037     2.484     2.465
    77   1 H        0.926     0.033     2.543     2.494
    78   1 H        0.926     0.032     2.558     2.501
    79   1 H        0.926     0.029     2.606     2.524
    80   1 H        0.926     0.041     2.429     2.437
    81   1 H        0.926     0.049     2.326     2.385
    82   1 H        0.926     0.046     2.365     2.405
    83   1 H        0.926     0.045     2.378     2.411
    84   1 H        0.925     0.040     2.455     2.450
    85   1 H        0.925     0.040     2.454     2.450
    86   1 H        0.926     0.048     2.339     2.392
    87   1 H        0.926     0.045     2.380     2.413
    88   1 H        0.926     0.043     2.414     2.430
    89   1 H        0.926     0.038     2.475     2.460
    90   1 H        0.926     0.027     2.628     2.535
    91   1 H        0.926     0.030     2.593     2.518
    92   1 H        0.926     0.031     2.576     2.510
    93   1 H        0.926     0.031     2.576     2.510
    94   1 H        0.926     0.028     2.611     2.527
    95   1 H        0.926     0.027     2.626     2.534
    96   1 H        0.926     0.030     2.580     2.512
    97   1 H        0.926     0.031     2.575     2.509
    98   1 H        0.926     0.030     2.581     2.512
    99   1 H        0.926     0.027     2.627     2.534
   100   1 H        0.926     0.027     2.627     2.534
   101   1 H        0.926     0.030     2.584     2.514
   102   1 H        0.926     0.031     2.577     2.510
   103   1 H        0.926     0.030     2.582     2.513
   104   1 H        0.926     0.027     2.627     2.534
   105   1 H        0.926     0.028     2.608     2.525
   106   1 H        0.926     0.030     2.585     2.514

molecular dipole:
                 x           y           z       tot (Debye)
 q only:       -0.965      -0.855      -0.335
   full:       -1.054      -0.979      -0.264       3.718

 projected vibrational frequencies (cm⁻¹)
eigval :       -0.00    -0.00    -0.00     0.00     0.00     0.00
eigval :        6.51     7.71     9.27    14.40    16.39    25.25
eigval :       27.27    32.25    35.76    40.68    43.35    48.05
eigval :       50.41    60.08    62.83    65.75    67.98    70.29
eigval :       72.38    79.07    84.15    91.42    95.40   103.22
eigval :      109.19   115.63   117.48   135.04   161.48   163.18
eigval :      176.22   203.63   205.19   206.90   213.19   217.78
eigval :      230.02   234.74   242.36   244.57   252.94   257.99
eigval :      284.45   293.39   304.11   317.35   346.08   359.20
eigval :      360.66   367.06   370.99   371.76   372.83   374.20
eigval :      375.27   377.39   384.05   396.42   404.11   405.77
eigval :      414.28   438.49   446.14   453.53   463.35   480.26
eigval :      488.40   490.13   499.57   501.01   518.67   521.66
eigval :      529.27   534.48   540.25   546.65   578.63   583.38
eigval :      584.77   587.32   587.71   589.75   595.93   597.49
eigval :      605.30   607.60   612.32   615.93   632.85   643.60
eigval :      645.33   656.40   662.95   667.20   669.15   673.86
eigval :      677.35   679.92   682.31   684.91   687.14   688.80
eigval :      699.03   708.30   719.04   724.57   734.84   744.75
eigval :      758.44   763.65   764.93   765.70   770.08   780.15
eigval :      782.50   784.78   797.63   818.06   831.36   837.89
eigval :      859.58   868.45   870.35   874.55   874.96   876.61
eigval :      876.75   877.29   879.37   884.62   900.22   900.91
eigval :      901.06   902.88   905.83   906.21   913.40   914.37
eigval :      916.71   922.37   923.99   926.05   926.15   926.16
eigval :      927.01   927.47   929.27   929.62   929.94   931.46
eigval :      932.04   934.33   935.19   938.95   949.07   959.15
eigval :      969.09   981.14   986.83   992.04  1005.66  1014.29
eigval :     1029.98  1040.98  1069.17  1073.66  1080.57  1083.00
eigval :     1083.34  1084.25  1085.43  1089.43  1094.63  1106.59
eigval :     1117.19  1119.90  1120.47  1120.77  1133.60  1134.83
eigval :     1135.23  1139.96  1140.74  1151.08  1172.21  1178.43
eigval :     1180.47  1181.07  1182.33  1182.84  1183.68  1189.09
eigval :     1190.16  1195.61  1196.46  1196.95  1200.04  1200.98
eigval :     1202.39  1208.54  1241.03  1252.08  1253.43  1255.49
eigval :     1262.09  1268.58  1269.56  1277.25  1278.76  1281.01
eigval :     1281.30  1281.83  1283.21  1288.45  1293.95  1294.26
eigval :     1305.18  1310.63  1313.23  1314.91  1315.92  1317.16
eigval :     1317.79  1327.94  1337.11  1345.53  1361.58  1373.56
eigval :     1389.76  1394.85  1405.85  1406.74  1410.12  1418.76
eigval :     1423.44  1428.48  1429.15  1430.44  1433.52  1434.06
eigval :     1440.48  1445.88  1472.90  1477.58  1480.85  1488.88
eigval :     1492.86  1496.50  1512.71  1514.87  1535.68  1543.73
eigval :     1555.69  1557.60  1562.39  1563.73  1565.92  1568.72
eigval :     1569.94  1581.10  1581.83  1582.51  1583.21  1592.94
eigval :     1593.55  1597.64  1599.46  1600.18  1600.37  1600.73
eigval :     1603.30  3050.54  3057.38  3065.13  3065.40  3065.76
eigval :     3066.13  3066.91  3068.29  3068.69  3068.96  3069.47
eigval :     3073.37  3073.56  3073.96  3074.52  3074.69  3075.15
eigval :     3075.41  3077.64  3078.52  3079.57  3080.14  3080.52
eigval :     3082.52  3082.69  3084.03  3086.98  3087.54  3087.94
eigval :     3088.23  3089.02  3089.63  3090.18  3093.81  3095.09
eigval :     3096.22  3098.76  3099.05  3099.72  3109.27  3114.40

   temp. (K)  partition function   enthalpy   heat capacity  entropy
                                   cal/mol     cal/K/mol   cal/K/mol   J/K/mol
 298.15  VIB  0.107E+27            30914.005    190.642    197.182
         ROT  0.218E+09              888.752      2.981     41.133
         INT  0.233E+35            31802.757    193.623    238.315
         TR   0.231E+29             1481.254      4.968     45.998
         TOT                       33284.0114   198.5910   284.3135  1189.5676

       T/K    H(0)-H(T)+PV         H(T)/Eh          T*S/Eh         G(T)/Eh
   ------------------------------------------------------------------------
    298.15    0.530414E-01    0.870599E+00    0.135087E+00    0.735512E+00
   ------------------------------------------------------------------------

         :::::::::::::::::::::::::::::::::::::::::::::::::::::
         ::                  THERMODYNAMIC                  ::
         :::::::::::::::::::::::::::::::::::::::::::::::::::::
         :: total free energy        -161.809688011278 Eh   ::
         ::.................................................::
         :: total energy             -162.545200463382 Eh   ::
         :: zero point energy           0.817557510640 Eh   ::
         :: G(RRHO) w/o ZPVE           -0.082045058536 Eh   ::
         :: G(RRHO) contrib.            0.735512452104 Eh   ::
         :::::::::::::::::::::::::::::::::::::::::::::::::::::

           -------------------------------------------------
          | TOTAL ENERGY             -162.545200463382 Eh   |
          | TOTAL ENTHALPY           -161.674601504338 Eh   |
          | TOTAL FREE ENERGY        -161.809688011278 Eh   |
          | GRADIENT NORM               0.000048861338 Eh/α |
          | HOMO-LUMO GAP               2.581960291770 eV   |
           -------------------------------------------------

 * finished run on 2025/08/21 at 20:12:39.277
