   * xtb version 6.7.1 (edcfbbe) compiled by 'albert@albert-system' on 2024-07-22

   ID    Z sym.   atoms
    1    7 N      1, 11, 19, 25, 43
    2    6 C      2-10, 12-18, 20-24, 26-42, 44-52
    3    1 H      53-81

          program call               : xtb data2507/gas/4PyCNICz/4PyCNICz_gas_T1_crest.xyz --gfn 2 --spinpol --tblite --uhf 2 --ohess vtight --parallel 40 --molden --ceasefiles --namespace data2507/gas/4PyCNICz/4PyCNICz_gas_T1_finalOpt
 * total energy  :  -130.0148765 Eh     change       -0.3067555E-08 Eh
 * total energy  :  -130.0149070 Eh     change       -0.3044979E-04 Eh
 * total energy  :  -130.0149227 Eh     change       -0.1574107E-04 Eh
 * total energy  :  -130.0149245 Eh     change       -0.1793349E-05 Eh
 * total energy  :  -130.0149263 Eh     change       -0.1826676E-05 Eh
 * total energy  :  -130.0149285 Eh     change       -0.2204757E-05 Eh
 * total energy  :  -130.0149327 Eh     change       -0.4139563E-05 Eh
 * total energy  :  -130.0149378 Eh     change       -0.5123950E-05 Eh
 * total energy  :  -130.0149418 Eh     change       -0.4035586E-05 Eh
 * total energy  :  -130.0149455 Eh     change       -0.3622528E-05 Eh
 * total energy  :  -130.0150042 Eh     change       -0.1376852E-06 Eh
 * total energy  :  -130.0150043 Eh     change       -0.9223115E-07 Eh
 * total energy  :  -130.0150043 Eh     change       -0.6837217E-07 Eh
 * total energy  :  -130.0150044 Eh     change       -0.1007391E-06 Eh
 * total energy  :  -130.0150045 Eh     change       -0.6429823E-07 Eh
 * total energy  :  -130.0150046 Eh     change       -0.1354303E-06 Eh
 * total energy  :  -130.0150046 Eh     change        0.3720362E-07 Eh
 * total energy  :  -130.0150048 Eh     change       -0.1746727E-06 Eh
 * total energy  :  -130.0150048 Eh     change       -0.8214195E-07 Eh
   *** GEOMETRY OPTIMIZATION CONVERGED AFTER 54 ITERATIONS ***

 final structure:
================
81
 xtb: 6.7.1 (edcfbbe)
N            1.51887843528544        2.93761101215657       -0.66434715524352
C            2.33977167660981        2.12453621342573       -0.59444255684718
C            3.32872875576129        1.16529513677514       -0.45637500394395
C            4.70220248547284        1.49035015469349       -0.43986394735378
C            5.16794411942168        2.83886198769032       -0.80485573714898
C            6.23191445494750        3.39800554233299       -0.10072243612570
C            6.68985014323082        4.66079621086984       -0.42315232160404
C            6.09958379967419        5.37153598159973       -1.45557181992607
C            5.05353922999467        4.81154279057503       -2.16955569320846
C            4.58598252233329        3.55028615676159       -1.84874558435986
N            5.61577824869702        0.63237351517089       -0.08012902476390
C            5.30022398538880       -0.64083503254857        0.30048668183007
C            6.33108316911080       -1.54074292355129        0.72140245545724
C            6.02201242859836       -2.85276662628294        1.10757640001602
C            7.01921121293344       -3.71005597736567        1.51636552098835
C            8.34081678598633       -3.28474125209473        1.55064854372692
C            8.65779249238292       -1.98857842234770        1.16776607015939
C            7.66839904637834       -1.12236141396916        0.75680706808383
N            4.03423649297890       -1.00519119352420        0.25164206064116
C            3.04720780756980       -0.23333956842406       -0.12783259812146
C            1.72229468406713       -0.79966061547764       -0.18942514069394
C            1.41848812977287       -1.91360956383452        0.61239435176724
C            0.15668740933437       -2.45809552270980        0.61734525998613
C           -0.83988422826652       -1.91609857688720       -0.19534362296020
N           -2.13764545790562       -2.45135756277998       -0.18917776581159
C           -2.43059797059404       -3.76121801974700       -0.53310766147266
C           -1.57312568687607       -4.82485884119996       -0.76109717104020
C           -2.13488692946424       -6.04188877439458       -1.10752546247406
C           -3.51173651066882       -6.19528522573838       -1.23653870880129
C           -4.36864482571219       -5.12861639751533       -1.03752376143289
C           -3.82734479114940       -3.89971751481140       -0.68620341716612
C           -4.39393390251808       -2.60406288292570       -0.44065944475020
C           -5.70464118687486       -2.14227156340516       -0.50233029194290
C           -5.96545409716565       -0.80857938171587       -0.26978922223114
C           -4.90646680307753        0.03130702350225        0.07719830945419
C           -3.57194104615938       -0.41470801666212        0.23891223979951
C           -2.83005482362024        0.70438280478857        0.75651035468584
C           -1.53450469981442        0.89244678102042        1.23122831613425
C           -1.14652475064243        2.15252644285193        1.63782029336057
C           -2.02703272122369        3.23246085107614        1.59519553892099
C           -3.33650588075690        3.06401413730760        1.19769825665735
C           -3.73874699700797        1.79192898521797        0.80985751136769
N           -4.98157482613170        1.36934909923718        0.40029466586921
C           -6.13712916518495        2.16186975634752        0.33351169060032
C           -6.53388186027949        2.91299977512517        1.43586377056201
C           -7.67054521979523        3.69662120299305        1.36219446419846
C           -8.42147067272869        3.73103899630202        0.19876963424920
C           -8.02986327651667        2.98007894047919       -0.89726904912893
C           -6.89018441186218        2.19987857557293       -0.83643255402682
C           -3.30952874850021       -1.74365020414018       -0.11520542805301
C           -0.53519606974085       -0.84815113450665       -1.03973658724059
C            0.72328442456981       -0.29290254978692       -1.03294928342516
H            6.68292914159489        2.83646675604842        0.70366621475690
H            7.51000672848428        5.09178343345251        0.13203394139091
H            6.45736281532951        6.35928301169788       -1.70605782716070
H            4.59753498461640        5.35833678006869       -2.98126653713188
H            3.78004762082535        3.11517560255801       -2.41983433769506
H            4.99165790951518       -3.17382923008162        1.07311473995407
H            6.77295731900807       -4.72007029223705        1.81167178470012
H            9.11915718660127       -3.96058476608672        1.87248946415621
H            9.68637836760242       -1.65804084747114        1.19206069768609
H            7.90230900310571       -0.11282426134801        0.45310374667909
H            2.18950176107719       -2.31486253873849        1.25216558529639
H           -0.08021933692339       -3.28369657378159        1.27223038377773
H           -0.50302365147793       -4.71065761351807       -0.68227406580982
H           -1.48909220203460       -6.88882204786383       -1.28494783261126
H           -3.91278310829970       -7.16099253666988       -1.50546991412495
H           -5.43539383344449       -5.24485388782870       -1.15466080524565
H           -6.50544439579462       -2.82364745388869       -0.74316141795902
H           -6.97125762448327       -0.42223145894806       -0.32515718693662
H           -0.84115143630497        0.07256364989105        1.29999642222315
H           -0.13669763904896        2.30908708829398        1.98339917476781
H           -1.68072596229257        4.21054620170998        1.89141457714015
H           -4.02766485271855        3.89310863333227        1.18116730753690
H           -5.95707963596754        2.86543458265600        2.34732553353895
H           -7.97528384923686        4.27712796251434        2.22011493788043
H           -9.30976101098480        4.34194253237867        0.14622581322787
H           -8.61006970426548        3.00786726157584       -1.80750297593664
H           -6.56853473374611        1.62928754599476       -1.69492975841101
H           -1.29965271833626       -0.45466112019502       -1.69259482304862
H            0.94014584163047        0.52715178267429       -1.69793280665285

 projected vibrational frequencies (cm⁻¹)
eigval :       -0.00    -0.00    -0.00    -0.00    -0.00     0.00
eigval :        7.42    10.26    15.74    24.85    32.98    36.29
eigval :       39.75    42.53    46.39    54.48    58.49    61.57
eigval :       70.33    84.17    92.71    96.00   114.22   127.30
eigval :      130.21   136.01   152.75   155.36   169.51   188.01
eigval :      216.23   217.62   225.49   230.63   235.62   239.13
eigval :      254.61   262.17   271.24   292.77   311.31   322.63
eigval :      325.33   354.26   371.10   371.95   377.69   380.19
eigval :      382.86   388.37   392.97   406.72   415.13   422.41
eigval :      428.42   439.88   450.50   465.08   472.08   477.08
eigval :      485.60   498.42   517.36   534.68   546.50   551.15
eigval :      553.70   566.76   578.73   580.83   586.28   587.74
eigval :      590.30   592.35   600.11   602.84   612.08   617.86
eigval :      626.67   642.21   646.66   652.09   670.47   671.27
eigval :      673.96   676.64   683.71   688.21   701.03   705.94
eigval :      709.24   750.51   752.81   759.69   767.90   772.20
eigval :      772.97   807.01   816.63   823.66   833.93   840.42
eigval :      853.15   862.11   869.86   870.79   872.36   878.17
eigval :      881.96   883.54   893.29   901.11   903.47   905.06
eigval :      907.91   910.77   914.61   917.77   921.87   922.01
eigval :      923.07   923.24   924.50   927.19   931.34   933.38
eigval :      934.28   963.52   979.50   987.22   999.48  1007.99
eigval :     1028.35  1040.64  1069.75  1071.68  1072.89  1078.86
eigval :     1082.39  1084.50  1097.40  1102.13  1114.09  1118.02
eigval :     1122.33  1134.21  1137.33  1148.19  1158.08  1169.75
eigval :     1175.67  1180.14  1180.36  1180.80  1180.93  1183.68
eigval :     1187.62  1195.54  1197.65  1208.25  1223.66  1235.53
eigval :     1253.36  1256.78  1262.85  1268.89  1272.97  1277.48
eigval :     1280.03  1285.28  1299.54  1304.66  1317.45  1321.66
eigval :     1322.37  1330.29  1333.68  1338.17  1349.12  1359.94
eigval :     1367.26  1375.03  1388.76  1394.12  1396.91  1411.95
eigval :     1417.12  1426.19  1428.76  1434.01  1435.39  1446.33
eigval :     1455.81  1463.28  1470.62  1471.97  1478.87  1479.39
eigval :     1487.58  1520.65  1548.82  1555.94  1559.98  1577.27
eigval :     1580.47  1581.45  1582.58  1582.90  1586.08  1588.61
eigval :     1592.62  1593.10  1596.74  2248.33  3069.74  3072.26
eigval :     3077.11  3080.73  3082.07  3082.86  3083.04  3083.73
eigval :     3084.95  3085.21  3086.43  3088.81  3090.54  3090.80
eigval :     3091.74  3092.58  3092.75  3094.37  3095.39  3095.43
eigval :     3096.15  3098.52  3099.60  3099.96  3101.45  3103.74
eigval :     3105.42  3115.17  3140.36

   temp. (K)  partition function   enthalpy   heat capacity  entropy
                                   cal/mol     cal/K/mol   cal/K/mol   J/K/mol
 298.15  VIB  0.865E+19            23975.243    150.861    149.753
         ROT  0.116E+09              888.752      2.981     39.885
         INT  0.100E+28            24863.995    153.842    189.637
         TR   0.165E+29             1481.254      4.968     45.339
         TOT                       26345.2489   158.8103   234.9768   983.1430

       T/K    H(0)-H(T)+PV         H(T)/Eh          T*S/Eh         G(T)/Eh
   ------------------------------------------------------------------------
    298.15    0.419838E-01    0.648667E+00    0.111645E+00    0.537022E+00
   ------------------------------------------------------------------------

         :::::::::::::::::::::::::::::::::::::::::::::::::::::
         ::                  THERMODYNAMIC                  ::
         :::::::::::::::::::::::::::::::::::::::::::::::::::::
         :: total free energy        -129.477982880290 Eh   ::
         ::.................................................::
         :: total energy             -130.015004892364 Eh   ::
         :: zero point energy           0.606683254587 Eh   ::
         :: G(RRHO) w/o ZPVE           -0.069661242512 Eh   ::
         :: G(RRHO) contrib.            0.537022012075 Eh   ::
         :::::::::::::::::::::::::::::::::::::::::::::::::::::

           -------------------------------------------------
          | TOTAL ENERGY             -130.015004892364 Eh   |
          | TOTAL ENTHALPY           -129.366337811304 Eh   |
          | TOTAL FREE ENERGY        -129.477982880290 Eh   |
          | GRADIENT NORM               0.000179929426 Eh/α |
           -------------------------------------------------

 * finished run on 2025/09/08 at 12:06:28.533
