   * xtb version 6.7.1 (edcfbbe) compiled by 'albert@albert-system' on 2024-07-22

   ID    Z sym.   atoms
    1    7 N      1, 11, 19, 25, 43
    2    6 C      2-10, 12-18, 20-24, 26-42, 44-52
    3    1 H      53-81

          program call               : xtb data2507/gas/4PyCNICz/4PyCNICz.xyz --gfn 2 --ohess vtight --parallel 40 --molden --ceasefiles --namespace data2507/gas/4PyCNICz/4PyCNICz_gas_S0_preOpt
          :  Hamiltonian                  GFN2-xTB          :
 * total energy  :  -130.0496556 Eh     change       -0.2014730E-08 Eh
 * total energy  :  -130.0692303 Eh     change       -0.1957472E-01 Eh
 * total energy  :  -130.0751244 Eh     change       -0.5894167E-02 Eh
 * total energy  :  -130.0771371 Eh     change       -0.2012677E-02 Eh
 * total energy  :  -130.0788362 Eh     change       -0.1699026E-02 Eh
 * total energy  :  -130.0800377 Eh     change       -0.1201594E-02 Eh
 * total energy  :  -130.0810221 Eh     change       -0.9843483E-03 Eh
 * total energy  :  -130.0818180 Eh     change       -0.7959304E-03 Eh
 * total energy  :  -130.0824453 Eh     change       -0.6272543E-03 Eh
 * total energy  :  -130.0829108 Eh     change       -0.4655114E-03 Eh
 * total energy  :  -130.0856408 Eh     change       -0.3039000E-06 Eh
 * total energy  :  -130.0856410 Eh     change       -0.2642969E-06 Eh
 * total energy  :  -130.0856413 Eh     change       -0.2308075E-06 Eh
 * total energy  :  -130.0856415 Eh     change       -0.1973405E-06 Eh
 * total energy  :  -130.0856416 Eh     change       -0.1575972E-06 Eh
 * total energy  :  -130.0856418 Eh     change       -0.1382799E-06 Eh
 * total energy  :  -130.0856419 Eh     change       -0.1246729E-06 Eh
 * total energy  :  -130.0856420 Eh     change       -0.1200290E-06 Eh
 * total energy  :  -130.0856421 Eh     change       -0.8057603E-07 Eh
   *** GEOMETRY OPTIMIZATION CONVERGED AFTER 139 ITERATIONS ***

 final structure:
================
81
 xtb: 6.7.1 (edcfbbe)
N            2.62849049853292        1.37936869850711        3.12821941720274
C            3.16805540280632        0.86721684539470        2.25259875533655
C            3.79163235502479        0.29333632453084        1.13127610206555
C            5.12840288609073        0.57842388801945        0.78100453205563
C            6.03564784327668        1.32934002502298        1.65363723701124
C            6.98848422645911        2.16490152611483        1.07254364398679
C            7.85811462007280        2.88666141272840        1.86588189939818
C            7.79669351943171        2.77209117730113        3.24570100897379
C            6.86717596086846        1.92667237758393        3.82843375497001
C            5.98869030149074        1.20703474549031        3.04006996487560
N            5.62055790551014        0.18186048617647       -0.38215661088805
C            4.83688999037094       -0.49944706083370       -1.21198502248962
C            5.38820766760394       -0.88163516732026       -2.51027269448325
C            4.60462989129159       -1.58384295071457       -3.42521805922963
C            5.12772606831319       -1.94038343548527       -4.65267882373461
C            6.43228523157154       -1.60230758001389       -4.97819524312954
C            7.21643648138509       -0.90636522304214       -4.07100258688767
C            6.70025803742696       -0.54597521247016       -2.84172358567343
N            3.58970616741362       -0.86946692460686       -0.93531955994585
C            3.06185416223882       -0.50025141900912        0.21961315327927
C            1.68860089391186       -0.93221726149805        0.48989909596642
C            1.29152310083811       -1.34438733308073        1.76005438149741
C           -0.01260212305725       -1.73299180159690        1.99148736335486
C           -0.94361756968236       -1.69827225992317        0.95684022790113
N           -2.27276812669361       -2.07193743125435        1.18172811114907
C           -2.66145689090696       -3.34120060794538        1.57822668864603
C           -1.89406069737233       -4.38866340187874        2.06265235188877
C           -2.54000111034994       -5.57094082086585        2.37274917188159
C           -3.91365708562950       -5.71578125784174        2.19560506859614
C           -4.67720444855602       -4.68426126177668        1.68683927283516
C           -4.05043347633815       -3.48616869692188        1.36986674191140
C           -4.51305274285155       -2.24819549583482        0.80965015171456
C           -5.77443640849615       -1.83680244341872        0.37969901073825
C           -5.93186497763809       -0.58055140235726       -0.15832798212552
C           -4.82930006359660        0.27354721827976       -0.20214167109264
C           -3.55048296096285       -0.07797692738047        0.29481078087374
C           -2.74585379667670        1.11325286120107        0.22918435865306
C           -1.47166104125413        1.46350500118670        0.66790453958367
C           -1.00821243453214        2.74170522557950        0.43153756071837
C           -1.78942000663479        3.68205226053299       -0.23501352161842
C           -3.07692282670323        3.38183567405302       -0.63233899250907
C           -3.55933750764452        2.10834135422139       -0.36637809596104
N           -4.80710711377718        1.58540392665308       -0.62560234388611
C           -5.88684295027843        2.27921075939658       -1.19129352406021
C           -6.28305197990936        3.50618455005449       -0.66766347216246
C           -7.34422235459255        4.18765989438817       -1.23426008285421
C           -8.02308558646843        3.65003847635656       -2.31518006417351
C           -7.63412281323574        2.42581181915934       -2.83311430550328
C           -6.56761129709505        1.74188487418433       -2.27986560906167
C           -3.38832783632358       -1.39765926724443        0.72608972386992
C           -0.54304441874307       -1.31155210410261       -0.32191111351690
C            0.76376732273904       -0.94273449487756       -0.55332845132717
H            7.02311468763699        2.24373768948792       -0.00328745042441
H            8.58667643528264        3.54016465840278        1.40920757601796
H            8.47662949333981        3.33669658345341        3.86627030139283
H            6.82600986210655        1.82524779704349        4.90254482288527
H            5.28291772065039        0.53430822716085        3.50379917400545
H            3.59292411732338       -1.84149388180396       -3.15351318862915
H            4.51932101948521       -2.48443514017094       -5.36022506734388
H            6.83874516926467       -1.88278979919636       -5.93892601533329
H            8.23334688172958       -0.64622133077123       -4.32584486920983
H            7.29727244863760       -0.00805304079450       -2.12200067818302
H            2.00524785395709       -1.37448500241448        2.56975011467937
H           -0.32352163470350       -2.03459822002635        2.98006896168271
H           -0.82599620720144       -4.29294969169258        2.18698364892568
H           -1.96594479851249       -6.40071871019817        2.75794410052101
H           -4.38261126592949       -6.65390215559857        2.45310274199855
H           -5.73935698897405       -4.80280757509722        1.53435513300097
H           -6.61567466839932       -2.50713087699119        0.46336856317098
H           -6.89489472867718       -0.24376419658117       -0.50960078645084
H           -0.85417049372968        0.76704427022129        1.20895251220822
H           -0.02139772814992        3.01625121626479        0.77352591818086
H           -1.39001103004951        4.66704204294864       -0.42604856329986
H           -3.69128385705023        4.11569555969899       -1.13207921633432
H           -5.76519739921340        3.91064059812465        0.18910298023328
H           -7.64795873896254        5.13932191533135       -0.82386974579705
H           -8.85375065157653        4.18329703224652       -2.75223446493261
H           -8.15909893118372        2.00425585428520       -3.67756346740117
H           -6.24886415085010        0.79581332603771       -2.69166091118621
H           -1.26702161103891       -1.29963369942230       -1.12245982407412
H            1.08448230614511       -0.64189760879671       -1.53849395496728

          :  Hamiltonian                  GFN2-xTB          :
         :: gradient norm              0.000039872359 Eh/a0 ::
         :: HOMO-LUMO gap              1.561111855460 eV    ::
         :: SCC energy              -132.548677411797 Eh    ::
         :: -> dispersion             -0.118691981664 Eh    ::
         :: repulsion energy           2.463035334735 Eh    ::

    * Orbital Energies and Occupations

         #    Occupation            Energy/Eh            Energy/eV
      -------------------------------------------------------------
         1        2.0000           -0.6887311             -18.7413
       ...           ...                  ...                  ...
       109        2.0000           -0.4139443             -11.2640
       110        2.0000           -0.4134194             -11.2497
       111        2.0000           -0.4123099             -11.2195
       112        2.0000           -0.4114180             -11.1953
       113        2.0000           -0.4073541             -11.0847
       114        2.0000           -0.4067113             -11.0672
       115        2.0000           -0.4057137             -11.0400
       116        2.0000           -0.4007775             -10.9057
       117        2.0000           -0.3890506             -10.5866
       118        2.0000           -0.3812972             -10.3756
       119        2.0000           -0.3715574             -10.1106
       120        2.0000           -0.3583998              -9.7526
       121        2.0000           -0.3534258              -9.6172 (HOMO)
       122                         -0.2960561              -8.0561 (LUMO)
       123                         -0.2854442              -7.7673
       124                         -0.2495443              -6.7904
       125                         -0.2456575              -6.6847
       126                         -0.2380054              -6.4765
       127                         -0.2330779              -6.3424
       128                         -0.2324973              -6.3266
       129                         -0.2323023              -6.3213
       130                         -0.2314625              -6.2984
       131                         -0.2303757              -6.2688
       132                         -0.2195652              -5.9747
       ...                                ...                  ...
       237                          1.1669158              31.7534
      -------------------------------------------------------------
                  HL-Gap            0.0573697 Eh            1.5611 eV

     #   Z          covCN         q      C6AA      α(0)
     1   7 N        0.911    -0.250    26.498     7.445
     2   6 C        1.905     0.111    28.374     8.603
     3   6 C        2.963    -0.025    28.635     8.777
     4   6 C        2.968     0.119    25.382     8.264
     5   6 C        2.982     0.005    27.909     8.666
     6   6 C        2.926    -0.022    28.565     8.765
     7   6 C        2.918    -0.026    28.659     8.779
     8   6 C        2.920    -0.023    28.591     8.768
     9   6 C        2.919    -0.025    28.630     8.774
    10   6 C        2.922    -0.025    28.636     8.776
    11   7 N        1.850    -0.266    27.765     7.810
    12   6 C        2.942     0.187    24.010     8.036
    13   6 C        2.985     0.002    27.976     8.676
    14   6 C        2.924    -0.025    28.618     8.773
    15   6 C        2.918    -0.027    28.677     8.782
    16   6 C        2.920    -0.023    28.584     8.767
    17   6 C        2.918    -0.027    28.680     8.782
    18   6 C        2.924    -0.025    28.619     8.773
    19   7 N        1.849    -0.266    27.768     7.810
    20   6 C        2.972     0.120    25.363     8.261
    21   6 C        2.982     0.001    27.990     8.678
    22   6 C        2.922    -0.025    28.630     8.775
    23   6 C        2.920    -0.039    28.977     8.827
    24   6 C        2.916     0.074    26.339     8.416
    25   7 N        2.803    -0.043    22.067     6.977
    26   6 C        3.075     0.045    26.918     8.506
    27   6 C        2.910    -0.051    29.260     8.870
    28   6 C        2.924    -0.035    28.868     8.811
    29   6 C        2.920    -0.040    29.003     8.831
    30   6 C        2.913    -0.034    28.856     8.809
    31   6 C        3.069    -0.015    28.309     8.724
    32   6 C        3.067    -0.028    28.624     8.773
    33   6 C        2.916    -0.036    28.902     8.816
    34   6 C        2.912    -0.061    29.514     8.908
    35   6 C        3.078     0.043    26.945     8.510
    36   6 C        3.054    -0.038    28.881     8.813
    37   6 C        3.061    -0.017    28.373     8.735
    38   6 C        2.914    -0.037    28.925     8.819
    39   6 C        2.919    -0.040    29.000     8.831
    40   6 C        2.923    -0.034    28.840     8.807
    41   6 C        2.910    -0.052    29.284     8.873
    42   6 C        3.079     0.045    26.902     8.503
    43   7 N        2.803    -0.042    22.054     6.975
    44   6 C        2.914     0.065    26.533     8.447
    45   6 C        2.922    -0.041    29.030     8.836
    46   6 C        2.920    -0.028    28.695     8.784
    47   6 C        2.919    -0.033    28.818     8.803
    48   6 C        2.920    -0.028    28.701     8.785
    49   6 C        2.922    -0.042    29.033     8.836
    50   6 C        3.064     0.043    26.969     8.516
    51   6 C        2.921    -0.036    28.889     8.814
    52   6 C        2.925    -0.021    28.527     8.759
    53   1 H        0.926     0.050     2.324     2.384
    54   1 H        0.926     0.038     2.471     2.458
    55   1 H        0.926     0.039     2.467     2.456
    56   1 H        0.926     0.040     2.443     2.444
    57   1 H        0.926     0.038     2.476     2.461
    58   1 H        0.926     0.056     2.241     2.341
    59   1 H        0.926     0.038     2.482     2.464
    60   1 H        0.926     0.037     2.484     2.465
    61   1 H        0.926     0.037     2.482     2.464
    62   1 H        0.926     0.056     2.242     2.341
    63   1 H        0.926     0.041     2.438     2.441
    64   1 H        0.926     0.050     2.317     2.380
    65   1 H        0.926     0.026     2.648     2.545
    66   1 H        0.926     0.028     2.613     2.528
    67   1 H        0.926     0.027     2.624     2.533
    68   1 H        0.926     0.030     2.589     2.516
    69   1 H        0.926     0.033     2.550     2.497
    70   1 H        0.926     0.028     2.617     2.530
    71   1 H        0.926     0.027     2.634     2.538
    72   1 H        0.926     0.027     2.623     2.532
    73   1 H        0.926     0.028     2.611     2.527
    74   1 H        0.926     0.027     2.632     2.537
    75   1 H        0.926     0.042     2.423     2.434
    76   1 H        0.926     0.037     2.494     2.470
    77   1 H        0.926     0.035     2.512     2.478
    78   1 H        0.926     0.036     2.499     2.472
    79   1 H        0.926     0.041     2.437     2.441
    80   1 H        0.926     0.046     2.371     2.408
    81   1 H        0.926     0.053     2.288     2.365

molecular dipole:
                 x           y           z       tot (Debye)
 q only:        0.297       0.096      -1.134
   full:        0.367       0.096      -1.156       3.093

 projected vibrational frequencies (cm⁻¹)
eigval :       -0.00    -0.00    -0.00    -0.00     0.00     0.00
eigval :        5.98     9.96    16.47    23.96    29.96    31.28
eigval :       36.23    40.92    46.75    57.93    62.05    64.42
eigval :       69.33    81.49    89.06   100.07   108.66   127.94
eigval :      132.84   135.98   153.35   158.62   162.71   188.69
eigval :      213.77   218.71   226.15   232.38   233.35   240.10
eigval :      255.67   261.89   269.82   293.30   313.53   321.68
eigval :      328.41   358.69   365.52   371.79   376.02   378.62
eigval :      381.36   388.09   392.73   415.10   418.59   421.69
eigval :      439.02   444.86   453.39   472.17   479.81   493.83
eigval :      501.49   520.11   523.80   535.95   554.18   556.64
eigval :      567.78   580.41   584.62   587.23   590.83   594.08
eigval :      602.16   608.29   612.61   620.92   628.79   635.16
eigval :      639.59   647.35   664.25   673.05   674.23   676.67
eigval :      684.03   688.14   698.69   701.06   708.20   722.71
eigval :      746.08   755.33   768.13   769.55   773.38   777.52
eigval :      780.76   819.29   819.86   834.17   843.07   865.81
eigval :      871.11   873.74   874.38   877.64   878.34   880.21
eigval :      882.82   895.64   900.55   904.74   905.97   910.02
eigval :      912.45   915.76   916.24   920.42   925.05   928.37
eigval :      928.70   931.59   932.02   933.11   933.26   934.24
eigval :      934.78   971.64   988.64   990.02  1007.72  1014.43
eigval :     1068.30  1072.39  1073.22  1076.32  1079.58  1083.14
eigval :     1086.35  1103.79  1111.19  1118.14  1121.03  1133.12
eigval :     1140.83  1147.18  1153.14  1173.27  1177.08  1178.57
eigval :     1181.05  1181.12  1181.41  1182.26  1185.44  1187.76
eigval :     1195.72  1199.10  1209.94  1227.10  1242.49  1245.23
eigval :     1252.44  1260.89  1265.81  1269.78  1274.78  1278.70
eigval :     1289.52  1310.12  1314.08  1318.01  1319.79  1323.47
eigval :     1329.10  1347.53  1361.29  1363.36  1364.43  1376.98
eigval :     1382.62  1393.29  1398.11  1406.53  1410.97  1430.68
eigval :     1431.47  1432.80  1433.66  1436.37  1465.66  1469.11
eigval :     1476.59  1479.43  1483.10  1484.64  1487.06  1496.87
eigval :     1509.70  1560.32  1569.29  1575.58  1581.40  1582.78
eigval :     1583.15  1589.10  1591.94  1594.57  1595.60  1595.97
eigval :     1598.56  1607.10  1610.22  2344.90  3075.40  3076.04
eigval :     3077.38  3078.67  3078.87  3081.25  3081.51  3081.57
eigval :     3083.87  3084.65  3087.42  3088.39  3089.72  3090.52
eigval :     3090.77  3090.84  3092.90  3093.83  3094.59  3095.64
eigval :     3097.94  3099.37  3100.73  3101.02  3101.16  3105.26
eigval :     3106.27  3106.78  3133.12

   temp. (K)  partition function   enthalpy   heat capacity  entropy
                                   cal/mol     cal/K/mol   cal/K/mol   J/K/mol
 298.15  VIB  0.120E+20            23767.533    148.951    148.982
         ROT  0.118E+09              888.752      2.981     39.912
         INT  0.141E+28            24656.285    151.932    188.895
         TR   0.165E+29             1481.254      4.968     45.339
         TOT                       26137.5394   156.9005   234.2339   980.0345

       T/K    H(0)-H(T)+PV         H(T)/Eh          T*S/Eh         G(T)/Eh
   ------------------------------------------------------------------------
    298.15    0.416528E-01    0.652416E+00    0.111292E+00    0.541124E+00
   ------------------------------------------------------------------------

         :::::::::::::::::::::::::::::::::::::::::::::::::::::
         ::                  THERMODYNAMIC                  ::
         :::::::::::::::::::::::::::::::::::::::::::::::::::::
         :: total free energy        -129.544517770538 Eh   ::
         ::.................................................::
         :: total energy             -130.085642077051 Eh   ::
         :: zero point energy           0.610763551660 Eh   ::
         :: G(RRHO) w/o ZPVE           -0.069639245147 Eh   ::
         :: G(RRHO) contrib.            0.541124306513 Eh   ::
         :::::::::::::::::::::::::::::::::::::::::::::::::::::

           -------------------------------------------------
          | TOTAL ENERGY             -130.085642077051 Eh   |
          | TOTAL ENTHALPY           -129.433225705084 Eh   |
          | TOTAL FREE ENERGY        -129.544517770538 Eh   |
          | GRADIENT NORM               0.000039923881 Eh/α |
          | HOMO-LUMO GAP               1.561108855500 eV   |
           -------------------------------------------------

 * finished run on 2025/09/08 at 11:50:11.660
