   * xtb version 6.7.1 (edcfbbe) compiled by 'albert@albert-system' on 2024-07-22

   ID    Z sym.   atoms
    1    7 N      1, 11, 19, 25, 43
    2    6 C      2-10, 12-18, 20-24, 26-42, 44-52
    3    1 H      53-81

          program call               : xtb data2507/gas/4PyCNICz/4PyCNICz_gas_S0_finalOpt.xtbopt.xyz --gfn 2 --spinpol --tblite --uhf 2 --ohess vtight --parallel 40 --molden --ceasefiles --namespace data2507/gas/4PyCNICz/4PyCNICz_gas_T1_preOpt
 * total energy  :  -130.0084076 Eh     change        0.4265473E-08 Eh
 * total energy  :  -130.0116951 Eh     change       -0.3287465E-02 Eh
 * total energy  :  -130.0140628 Eh     change       -0.2367707E-02 Eh
 * total energy  :  -130.0143076 Eh     change       -0.2448182E-03 Eh
 * total energy  :  -130.0144405 Eh     change       -0.1328771E-03 Eh
 * total energy  :  -130.0144590 Eh     change       -0.1846643E-04 Eh
 * total energy  :  -130.0144747 Eh     change       -0.1570277E-04 Eh
 * total energy  :  -130.0144928 Eh     change       -0.1807582E-04 Eh
 * total energy  :  -130.0144944 Eh     change       -0.1613979E-05 Eh
 * total energy  :  -130.0145068 Eh     change       -0.1239953E-04 Eh
 * total energy  :  -130.0147280 Eh     change       -0.8653664E-06 Eh
 * total energy  :  -130.0147289 Eh     change       -0.8381030E-06 Eh
 * total energy  :  -130.0147297 Eh     change       -0.7832931E-06 Eh
 * total energy  :  -130.0147304 Eh     change       -0.7896842E-06 Eh
 * total energy  :  -130.0147312 Eh     change       -0.7400707E-06 Eh
 * total energy  :  -130.0147320 Eh     change       -0.7773662E-06 Eh
 * total energy  :  -130.0147327 Eh     change       -0.7796241E-06 Eh
 * total energy  :  -130.0147335 Eh     change       -0.7730108E-06 Eh
 * total energy  :  -130.0147335 Eh     change       -0.6532701E-08 Eh
   *** GEOMETRY OPTIMIZATION CONVERGED AFTER 94 ITERATIONS ***

 final structure:
================
81
 xtb: 6.7.1 (edcfbbe)
N            1.46104170454015        2.94058810133337       -0.47247565556914
C            2.30594213401431        2.14950923049848       -0.44348387716380
C            3.31546152362864        1.20687400659150       -0.35942891241590
C            4.68776856418212        1.54758059026229       -0.35856045706567
C            5.13153109210343        2.91771931345597       -0.66442786557619
C            4.51100236193128        3.68281605258672       -1.64634014566914
C            4.95899950052005        4.96458514509732       -1.90857805752510
C            6.02368812709324        5.49220023519925       -1.19748097724732
C            6.65242089093972        4.72851380359309       -0.22740026736401
C            6.21405039375166        3.44543169448884        0.03624630102545
N            5.61625440147303        0.68320405441740       -0.06425714004016
C            5.32783869685735       -0.61118469715791        0.26071696397337
C            6.37890771046453       -1.52398104594532        0.58849152908548
C            6.09283156330495       -2.85878420705197        0.91080282346576
C            7.11064972566730       -3.73163751881669        1.22409332814391
C            8.43090153305984       -3.30047448236584        1.22483252207897
C            8.72510259819656       -1.98169939412566        0.90577773202456
C            7.71524156478111       -1.09948371690564        0.59051229441634
N            4.06042793938916       -0.98418192110070        0.23889254972552
C            3.06006915977243       -0.20525705909611       -0.07619457625932
C            1.73362479806032       -0.77714848282702       -0.11658706767249
C            1.43913116853081       -1.87720268958961        0.70476658566641
C            0.17941480055294       -2.42792935755341        0.72167180036336
C           -0.81951653107536       -1.90952460654227       -0.10283703524649
N           -2.10908499315118       -2.46355422540685       -0.09767000512206
C           -2.37424050397383       -3.78754484611030       -0.41182690993788
C           -1.49687046662229       -4.84418397210967       -0.59170791530533
C           -2.03277110692833       -6.07895289309070       -0.91570566347169
C           -3.40389238622860       -6.25751875121921       -1.07033505265461
C           -4.28008121877594       -5.19858602626515       -0.92177780472536
C           -3.76455519883141       -3.95213887632716       -0.59389034826861
C           -4.35614800974946       -2.65911866901419       -0.40076391776641
C           -5.66583471999097       -2.21359624521510       -0.54612753593283
C           -5.95278564964078       -0.87837318748339       -0.35885889222680
C           -4.92739070318648       -0.02362308674808        0.04773818861335
C           -3.58754098231437       -0.44075247906514        0.24289317867729
C           -2.86748943367785        0.71336075481943        0.71382887867655
C           -1.58959533424836        0.93656032566510        1.21896722045759
C           -1.23342134561317        2.21412310850432        1.60089408114974
C           -2.13842231820314        3.27164068451612        1.53102414992099
C           -3.43337770508411        3.06966202835873        1.10196374009486
C           -3.78954280125302        1.79032347089888        0.69438270819271
N           -5.02265375804793        1.32820022602226        0.29780289405390
C           -6.18478086519531        2.10662158171539        0.18233004720026
C           -7.34657638049300        1.73803085855963        0.85376486277072
C           -8.48724859045520        2.50966512588264        0.73017038320879
C           -8.47596107942947        3.65312868858181       -0.05139751856137
C           -7.31739435413334        4.02492046530604       -0.71338541140578
C           -6.17400244607014        3.25567885334325       -0.60277814135348
C           -3.29443279269361       -1.77336339045797       -0.06862518367513
C           -0.52308779678166       -0.85185296392144       -0.96298564511940
C            0.73093553156443       -0.28565490141995       -0.96273552898028
H            3.68987449183314        3.27450284924632       -2.21543300267156
H            4.47277952690754        5.55305458407824       -2.67218659717944
H            6.36585883774154        6.49599592852192       -1.40167614729558
H            7.48715259689244        5.13414212177880        0.32516341378794
H            6.69486024077398        2.84275372991994        0.79214222791744
H            5.06315463812419       -3.18401203971294        0.90243807044456
H            6.88187749820321       -4.75893105260534        1.46983385704816
H            9.22560574853324       -3.98904179348688        1.47072032072323
H            9.75249292087222       -1.64647566331165        0.90372450841862
H            7.93157688095566       -0.07248706437871        0.33618512067675
H            2.21342102717833       -2.26393046504952        1.34962653911451
H           -0.05214882746576       -3.24144089175786        1.39324612164648
H           -0.43036669522865       -4.71265226994956       -0.49440077920024
H           -1.37045007602134       -6.92025511743097       -1.05491530286484
H           -3.78452211096027       -7.23659064991712       -1.31985856166400
H           -5.34211689780609       -5.33376204246675       -1.05950729280876
H           -6.44266343537209       -2.90747506389554       -0.82660314398066
H           -6.94924982818309       -0.49800735540361       -0.51978303638631
H           -0.88780439358545        0.12940822364878        1.33749541880785
H           -0.23478064714068        2.39820284375389        1.96438426041368
H           -1.82589236320923        4.25757383190219        1.83858237462462
H           -4.15375006515065        3.87373328705011        1.09681553981110
H           -7.34338150580208        0.85883443414431        1.48070317353472
H           -9.38662132890783        2.22064113281169        1.25322653876096
H           -9.36788186935608        4.25405911720167       -0.14314313887397
H           -7.30540926890379        4.91462449461906       -1.32501477879132
H           -5.27305448879890        3.52972709213820       -1.13098574435648
H           -1.28966963365007       -0.47553963397623       -1.62333853583415
H            0.94266477525034        0.52799711760613       -1.63755391808699

 projected vibrational frequencies (cm⁻¹)
eigval :       -0.00    -0.00    -0.00     0.00     0.00     0.00
eigval :        7.07    10.22    15.16    25.68    32.84    35.75
eigval :       39.68    42.58    46.24    54.44    57.83    62.05
eigval :       70.68    83.77    92.97    96.51   112.18   124.40
eigval :      128.93   134.55   151.74   156.08   171.85   188.43
eigval :      212.01   220.54   224.60   228.80   234.39   241.41
eigval :      254.45   262.13   273.09   294.00   309.17   321.73
eigval :      325.58   355.85   371.00   371.58   377.27   379.72
eigval :      383.02   389.58   395.94   406.75   415.41   421.08
eigval :      426.42   438.77   451.77   464.58   471.39   475.36
eigval :      486.09   499.93   516.92   534.60   546.37   551.03
eigval :      553.86   566.45   577.59   580.39   585.40   587.04
eigval :      589.36   592.97   599.75   603.30   614.58   617.59
eigval :      624.14   641.87   646.64   651.15   669.36   670.23
eigval :      675.97   676.97   684.08   688.67   701.54   705.14
eigval :      709.09   749.48   752.80   759.51   767.95   770.68
eigval :      772.52   808.01   815.94   823.99   832.73   840.89
eigval :      854.20   861.06   869.62   870.59   871.61   878.49
eigval :      881.08   881.87   892.71   900.79   902.77   905.07
eigval :      907.85   910.68   913.73   917.92   921.27   921.33
eigval :      922.05   924.05   924.44   926.74   930.61   932.93
eigval :      933.52   963.07   979.51   986.73   994.22  1006.39
eigval :     1008.64  1040.70  1069.44  1072.41  1073.34  1079.06
eigval :     1082.68  1084.34  1096.14  1102.27  1114.13  1117.60
eigval :     1122.13  1134.39  1137.07  1148.37  1155.84  1169.05
eigval :     1174.87  1179.21  1179.60  1179.71  1179.90  1181.94
eigval :     1186.89  1194.79  1196.32  1207.55  1223.70  1234.51
eigval :     1252.66  1256.02  1262.85  1268.26  1272.20  1276.58
eigval :     1278.72  1284.26  1299.46  1304.16  1317.08  1321.58
eigval :     1322.00  1329.24  1333.79  1338.51  1347.36  1359.91
eigval :     1366.48  1380.76  1388.71  1392.43  1397.09  1410.88
eigval :     1416.68  1426.02  1428.07  1433.20  1434.77  1450.00
eigval :     1455.97  1463.53  1469.65  1472.04  1478.01  1478.60
eigval :     1488.29  1523.58  1548.42  1554.31  1559.80  1578.25
eigval :     1580.48  1580.73  1581.58  1583.40  1586.03  1588.56
eigval :     1592.05  1592.95  1596.99  2246.07  3069.22  3071.76
eigval :     3076.78  3080.70  3081.03  3082.78  3083.26  3083.67
eigval :     3084.26  3084.77  3086.54  3088.18  3090.29  3091.06
eigval :     3091.19  3091.81  3093.35  3095.04  3095.16  3095.26
eigval :     3096.32  3098.01  3099.80  3100.20  3101.16  3104.34
eigval :     3106.68  3111.06  3136.99

   temp. (K)  partition function   enthalpy   heat capacity  entropy
                                   cal/mol     cal/K/mol   cal/K/mol   J/K/mol
 298.15  VIB  0.974E+19            23991.161    150.925    149.948
         ROT  0.116E+09              888.752      2.981     39.883
         INT  0.113E+28            24879.914    153.906    189.831
         TR   0.165E+29             1481.254      4.968     45.339
         TOT                       26361.1674   158.8740   235.1706   983.9537

       T/K    H(0)-H(T)+PV         H(T)/Eh          T*S/Eh         G(T)/Eh
   ------------------------------------------------------------------------
    298.15    0.420092E-01    0.648491E+00    0.111737E+00    0.536754E+00
   ------------------------------------------------------------------------

         :::::::::::::::::::::::::::::::::::::::::::::::::::::
         ::                  THERMODYNAMIC                  ::
         :::::::::::::::::::::::::::::::::::::::::::::::::::::
         :: total free energy        -129.477979497607 Eh   ::
         ::.................................................::
         :: total energy             -130.014733525948 Eh   ::
         :: zero point energy           0.606481962334 Eh   ::
         :: G(RRHO) w/o ZPVE           -0.069727933994 Eh   ::
         :: G(RRHO) contrib.            0.536754028341 Eh   ::
         :::::::::::::::::::::::::::::::::::::::::::::::::::::

           -------------------------------------------------
          | TOTAL ENERGY             -130.014733525948 Eh   |
          | TOTAL ENTHALPY           -129.366242369300 Eh   |
          | TOTAL FREE ENERGY        -129.477979497607 Eh   |
          | GRADIENT NORM               0.000076783223 Eh/α |
           -------------------------------------------------

 * finished run on 2025/09/08 at 11:56:49.371
