   * xtb version 6.7.1 (edcfbbe) compiled by 'albert@albert-system' on 2024-07-22

   ID    Z sym.   atoms
    1    7 N      1, 11, 19, 25, 43
    2    6 C      2-10, 12-18, 20-24, 26-42, 44-52
    3    1 H      53-81

          program call               : xtb data2507/gas/4PyCNICz/4PyCNICz_gas_S0_crest.xyz --gfn 2 --ohess vtight --parallel 40 --molden --ceasefiles --namespace data2507/gas/4PyCNICz/4PyCNICz_gas_S0_finalOpt
          :  Hamiltonian                  GFN2-xTB          :
 * total energy  :  -130.0861947 Eh     change       -0.2040025E-08 Eh
 * total energy  :  -130.0861967 Eh     change       -0.1981839E-05 Eh
 * total energy  :  -130.0861999 Eh     change       -0.3164041E-05 Eh
 * total energy  :  -130.0862022 Eh     change       -0.2330739E-05 Eh
 * total energy  :  -130.0862037 Eh     change       -0.1475077E-05 Eh
 * total energy  :  -130.0862064 Eh     change       -0.2728786E-05 Eh
 * total energy  :  -130.0862116 Eh     change       -0.5197982E-05 Eh
 * total energy  :  -130.0862174 Eh     change       -0.5792630E-05 Eh
 * total energy  :  -130.0862215 Eh     change       -0.4054169E-05 Eh
 * total energy  :  -130.0862239 Eh     change       -0.2468744E-05 Eh
 * total energy  :  -130.0862593 Eh     change       -0.4667087E-06 Eh
 * total energy  :  -130.0862597 Eh     change       -0.3951577E-06 Eh
 * total energy  :  -130.0862601 Eh     change       -0.4179252E-06 Eh
 * total energy  :  -130.0862606 Eh     change       -0.4523361E-06 Eh
 * total energy  :  -130.0862609 Eh     change       -0.3254505E-06 Eh
 * total energy  :  -130.0862612 Eh     change       -0.2505045E-06 Eh
 * total energy  :  -130.0862614 Eh     change       -0.2374141E-06 Eh
 * total energy  :  -130.0862617 Eh     change       -0.3082773E-06 Eh
 * total energy  :  -130.0862617 Eh     change       -0.1665228E-08 Eh
   *** GEOMETRY OPTIMIZATION CONVERGED AFTER 44 ITERATIONS ***

 final structure:
================
81
 xtb: 6.7.1 (edcfbbe)
N            1.45928824713519        2.88163107199779       -0.19356361811936
C            2.30241183159926        2.10394574132633       -0.26147600224092
C            3.34108200348590        1.15667315875439       -0.26275536951290
C            4.69879647730340        1.53984714930306       -0.31061063293162
C            5.12698368434482        2.91855059046387       -0.56604867938981
C            4.43971857761979        3.74906922222483       -1.44748579299334
C            4.88265538072803        5.03968389595118       -1.66972941754878
C            6.00931895287772        5.51357663394360       -1.01837260668432
C            6.70578537184080        4.68690437861627       -0.15105053603341
C            6.27294369662624        3.39436371436556        0.06944820789143
N            5.66026665857178        0.65328430618667       -0.10730465233983
C            5.32574204054082       -0.61137249138102        0.12964795793892
C            6.40214238872025       -1.56189616011395        0.40134226536004
C            6.10847323475886       -2.90320126682326        0.64365277847205
C            7.12776163248513       -3.79806583751561        0.90363090500632
C            8.44491159989228       -3.36588047328131        0.92427364096984
C            8.74258006239304       -2.03372117814755        0.68160808835925
C            7.72860213360307       -1.13305804126320        0.42058903311601
N            4.07923058705817       -1.07259218210323        0.12240995999988
C            3.08693360361566       -0.22047694506431       -0.08119125134635
C            1.73514473188241       -0.78090674465110       -0.08439013717825
C            1.44534230985322       -1.84308599926697        0.77220113175773
C            0.18023184902380       -2.38851560934287        0.81133321839711
C           -0.81761411625810       -1.89142679152958       -0.02543385109526
N           -2.09896893800084       -2.44754796460691       -0.00819882963283
C           -2.35817284306939       -3.77945322131832       -0.29455816009854
C           -1.48130047561523       -4.84628559687813       -0.41317575338335
C           -2.00998105497825       -6.08439165974145       -0.72837518682488
C           -3.37567867237525       -6.25983170565733       -0.93473315574118
C           -4.24866534898047       -5.19375509074527       -0.84953908958470
C           -3.74016165427252       -3.94112062377388       -0.53218916690170
C           -4.33494730269916       -2.64207842143815       -0.39661911598804
C           -5.64333163823948       -2.20045028021893       -0.58901426423711
C           -5.93887206922871       -0.86662608066931       -0.42931892343004
C           -4.92930419782439       -0.00337528690364       -0.00316127299738
C           -3.59325036943746       -0.41611432866240        0.23011002096839
C           -2.88831373764675        0.74244289282849        0.71341898787048
C           -1.62485962916556        0.96947358023608        1.25305424392367
C           -1.28446388893420        2.24515885737677        1.65384694957354
C           -2.19031137232656        3.29769746490490        1.56107538690153
C           -3.47140280154946        3.09217530646408        1.09025837293671
C           -3.81141143940609        1.81507613524682        0.66887565606822
N           -5.03442161083096        1.34891303586829        0.23683727403270
C           -6.19728596994294        2.12265840823028        0.10577564155224
C           -7.37053050182722        1.74452270171354        0.75156384680210
C           -8.51160751788547        2.51317209867084        0.61483167191770
C           -8.49017128981857        3.66561031721145       -0.15306647130224
C           -7.32075561046581        4.04783615315215       -0.78916199274393
C           -6.17757315933113        3.28004635404692       -0.66680753515693
C           -3.29322002462508       -1.75183457272999       -0.05255951568017
C           -0.52175312605955       -0.85420776138456       -0.90957347802253
C            0.74022163760408       -0.30000171629797       -0.93384515716283
H            3.57329675673073        3.38261810429990       -1.97732701164695
H            4.34589955677741        5.67709507210516       -2.35627033262299
H            6.34790805481229        6.52438489217819       -1.19125252605279
H            7.58857546532906        5.05207952222173        0.35269882140677
H            6.80433023419232        2.73851170457537        0.74201186863159
H            5.07831296033606       -3.22241921455818        0.61951628582021
H            6.89843762711278       -4.83695463960764        1.09046931877253
H            9.24010813034537       -4.06803925247546        1.12802797363320
H            9.76970129030013       -1.69971713574519        0.69595321406955
H            7.94204409263088       -0.09380150937399        0.22525634771773
H            2.22344683562339       -2.21327044436496        1.42191611908487
H           -0.05251030169685       -3.18159184577826        1.50575264140923
H           -0.41795150146117       -4.72034504108798       -0.27735488597449
H           -1.34771968433902       -6.93262199624714       -0.81996676884874
H           -3.75121947508375       -7.24340742717460       -1.17525475740310
H           -5.30507982936011       -5.32560882578528       -1.02852675458150
H           -6.40956363414712       -2.90207854497428       -0.88000273996698
H           -6.93166552334674       -0.49126379237113       -0.62261057279223
H           -0.92318744531979        0.16397713753612        1.38902723760197
H           -0.29882900402027        2.42994549895435        2.05215339689002
H           -1.89328678097942        4.28372006885779        1.88465957370998
H           -4.19353404646418        3.89461104352742        1.06774456174545
H           -7.37651631051617        0.85785734954087        1.36784732893454
H           -9.41975058419822        2.21523874728031        1.11779759023026
H           -9.38227368513038        4.26508271307375       -0.25427874489801
H           -7.30026125473875        4.94493938417679       -1.39014501060290
H           -5.26786420376872        3.56376839210200       -1.17473077149840
H           -1.29115179939948       -0.48645773339894       -1.57075608265586
H            0.95814621839793        0.49098479656496       -1.63500324811650

          :  Hamiltonian                  GFN2-xTB          :
         :: gradient norm              0.000043114631 Eh/a0 ::
         :: HOMO-LUMO gap              1.526801771061 eV    ::
         :: SCC energy              -132.549209673970 Eh    ::
         :: -> dispersion             -0.119938715990 Eh    ::
         :: repulsion energy           2.462947969607 Eh    ::

    * Orbital Energies and Occupations

         #    Occupation            Energy/Eh            Energy/eV
      -------------------------------------------------------------
         1        2.0000           -0.6878709             -18.7179
       ...           ...                  ...                  ...
       109        2.0000           -0.4131373             -11.2420
       110        2.0000           -0.4121329             -11.2147
       111        2.0000           -0.4116581             -11.2018
       112        2.0000           -0.4084541             -11.1146
       113        2.0000           -0.4055643             -11.0360
       114        2.0000           -0.4051404             -11.0244
       115        2.0000           -0.4048062             -11.0153
       116        2.0000           -0.4000144             -10.8849
       117        2.0000           -0.3873247             -10.5396
       118        2.0000           -0.3791904             -10.3183
       119        2.0000           -0.3709132             -10.0931
       120        2.0000           -0.3571592              -9.7188
       121        2.0000           -0.3515053              -9.5649 (HOMO)
       122                         -0.2953964              -8.0381 (LUMO)
       123                         -0.2852121              -7.7610
       124                         -0.2491200              -6.7789
       125                         -0.2427965              -6.6068
       126                         -0.2369681              -6.4482
       127                         -0.2325659              -6.3284
       128                         -0.2314135              -6.2971
       129                         -0.2304929              -6.2720
       130                         -0.2300994              -6.2613
       131                         -0.2294055              -6.2424
       132                         -0.2183100              -5.9405
       ...                                ...                  ...
       237                          1.1677963              31.7774
      -------------------------------------------------------------
                  HL-Gap            0.0561089 Eh            1.5268 eV

     #   Z          covCN         q      C6AA      α(0)
     1   7 N        0.911    -0.249    26.475     7.442
     2   6 C        1.905     0.110    28.388     8.605
     3   6 C        2.963    -0.025    28.637     8.778
     4   6 C        2.969     0.119    25.385     8.264
     5   6 C        2.982     0.005    27.909     8.666
     6   6 C        2.922    -0.025    28.633     8.775
     7   6 C        2.919    -0.025    28.631     8.775
     8   6 C        2.920    -0.024    28.595     8.769
     9   6 C        2.918    -0.026    28.661     8.779
    10   6 C        2.926    -0.022    28.565     8.765
    11   7 N        1.850    -0.267    27.779     7.812
    12   6 C        2.941     0.187    24.015     8.037
    13   6 C        2.985     0.002    27.978     8.676
    14   6 C        2.924    -0.025    28.621     8.773
    15   6 C        2.918    -0.027    28.680     8.782
    16   6 C        2.920    -0.023    28.587     8.768
    17   6 C        2.918    -0.027    28.680     8.782
    18   6 C        2.924    -0.025    28.620     8.773
    19   7 N        1.850    -0.267    27.790     7.813
    20   6 C        2.970     0.119    25.385     8.264
    21   6 C        2.982     0.000    28.018     8.683
    22   6 C        2.925    -0.023    28.584     8.768
    23   6 C        2.920    -0.041    29.030     8.836
    24   6 C        2.915     0.074    26.344     8.417
    25   7 N        2.803    -0.043    22.068     6.977
    26   6 C        3.074     0.044    26.930     8.509
    27   6 C        2.910    -0.051    29.274     8.872
    28   6 C        2.924    -0.035    28.878     8.813
    29   6 C        2.920    -0.040    29.004     8.832
    30   6 C        2.913    -0.035    28.861     8.809
    31   6 C        3.067    -0.015    28.307     8.724
    32   6 C        3.068    -0.028    28.628     8.773
    33   6 C        2.916    -0.037    28.913     8.818
    34   6 C        2.912    -0.061    29.523     8.910
    35   6 C        3.077     0.044    26.941     8.510
    36   6 C        3.054    -0.038    28.878     8.813
    37   6 C        3.060    -0.017    28.382     8.736
    38   6 C        2.914    -0.036    28.904     8.816
    39   6 C        2.919    -0.035    28.872     8.811
    40   6 C        2.924    -0.030    28.744     8.792
    41   6 C        2.910    -0.051    29.270     8.871
    42   6 C        3.080     0.045    26.902     8.503
    43   7 N        2.803    -0.042    22.059     6.976
    44   6 C        2.914     0.066    26.531     8.446
    45   6 C        2.922    -0.042    29.034     8.836
    46   6 C        2.920    -0.028    28.703     8.786
    47   6 C        2.919    -0.033    28.823     8.804
    48   6 C        2.920    -0.028    28.698     8.785
    49   6 C        2.923    -0.041    29.028     8.835
    50   6 C        3.059     0.042    26.991     8.520
    51   6 C        2.921    -0.035    28.869     8.811
    52   6 C        2.921    -0.024    28.598     8.770
    53   1 H        0.926     0.038     2.480     2.463
    54   1 H        0.926     0.040     2.448     2.447
    55   1 H        0.926     0.038     2.471     2.458
    56   1 H        0.926     0.038     2.473     2.459
    57   1 H        0.926     0.049     2.329     2.386
    58   1 H        0.926     0.056     2.246     2.343
    59   1 H        0.926     0.037     2.484     2.464
    60   1 H        0.926     0.037     2.487     2.466
    61   1 H        0.926     0.037     2.485     2.465
    62   1 H        0.926     0.056     2.244     2.343
    63   1 H        0.926     0.053     2.283     2.363
    64   1 H        0.926     0.048     2.346     2.395
    65   1 H        0.926     0.027     2.633     2.538
    66   1 H        0.926     0.028     2.617     2.530
    67   1 H        0.926     0.027     2.629     2.535
    68   1 H        0.926     0.030     2.591     2.517
    69   1 H        0.926     0.032     2.559     2.501
    70   1 H        0.926     0.028     2.614     2.528
    71   1 H        0.926     0.022     2.708     2.573
    72   1 H        0.926     0.032     2.558     2.501
    73   1 H        0.926     0.033     2.549     2.497
    74   1 H        0.926     0.027     2.634     2.538
    75   1 H        0.926     0.041     2.434     2.439
    76   1 H        0.926     0.036     2.504     2.475
    77   1 H        0.926     0.035     2.519     2.482
    78   1 H        0.926     0.036     2.498     2.471
    79   1 H        0.926     0.042     2.421     2.433
    80   1 H        0.926     0.047     2.352     2.398
    81   1 H        0.926     0.041     2.431     2.438

molecular dipole:
                 x           y           z       tot (Debye)
 q only:        0.489       0.000       0.032
   full:        0.533       0.045      -0.077       1.375

 projected vibrational frequencies (cm⁻¹)
eigval :       -0.00    -0.00    -0.00     0.00     0.00     0.00
eigval :        8.45    10.72    15.92    28.07    30.43    35.68
eigval :       37.31    40.73    47.74    55.18    58.08    64.10
eigval :       72.20    86.17    89.21    97.23   112.70   125.96
eigval :      129.76   136.34   153.06   158.30   174.17   189.99
eigval :      210.49   221.75   224.78   228.82   232.63   243.97
eigval :      259.13   263.89   269.71   296.75   305.90   320.93
eigval :      333.42   362.48   365.52   371.71   377.60   380.82
eigval :      384.44   390.73   395.39   410.31   417.60   423.00
eigval :      433.37   445.62   455.25   471.61   480.46   494.28
eigval :      502.44   519.54   524.67   535.93   554.12   556.61
eigval :      568.05   581.16   584.59   587.43   590.51   595.90
eigval :      601.40   606.48   614.88   619.74   626.57   635.11
eigval :      639.23   648.35   664.56   670.95   676.49   677.00
eigval :      684.68   687.49   698.50   702.42   707.30   722.07
eigval :      745.80   755.84   768.13   769.57   773.38   773.81
eigval :      780.62   819.52   820.55   833.91   842.61   864.79
eigval :      870.65   874.15   874.66   877.69   878.29   880.44
eigval :      882.43   895.22   900.46   904.99   905.92   908.55
eigval :      912.24   915.73   916.42   920.23   922.37   928.47
eigval :      929.58   931.70   932.34   933.05   933.35   934.18
eigval :      934.50   971.64   988.43   990.17  1007.54  1014.09
eigval :     1068.08  1072.59  1074.56  1076.32  1079.81  1083.26
eigval :     1087.29  1104.23  1111.03  1117.90  1121.04  1133.67
eigval :     1140.63  1147.42  1153.91  1173.26  1176.92  1178.95
eigval :     1181.14  1181.16  1181.88  1182.63  1185.35  1188.02
eigval :     1196.30  1199.18  1210.24  1227.17  1242.01  1246.33
eigval :     1252.81  1261.49  1265.20  1269.67  1274.55  1278.94
eigval :     1288.87  1309.44  1313.08  1317.86  1320.30  1323.34
eigval :     1329.16  1347.23  1361.09  1363.01  1364.41  1377.10
eigval :     1382.52  1391.70  1396.58  1407.37  1412.61  1430.59
eigval :     1430.85  1432.58  1433.67  1436.20  1465.35  1469.42
eigval :     1476.56  1478.97  1482.83  1484.81  1487.60  1497.09
eigval :     1507.92  1557.68  1570.07  1576.24  1581.57  1582.65
eigval :     1583.30  1588.49  1590.59  1594.73  1595.76  1596.06
eigval :     1598.88  1607.24  1609.87  2343.55  3075.30  3076.02
eigval :     3078.43  3078.46  3080.26  3081.25  3081.42  3081.98
eigval :     3083.60  3088.78  3089.71  3090.10  3090.38  3090.71
eigval :     3090.88  3091.50  3092.61  3094.03  3096.00  3097.68
eigval :     3098.88  3100.04  3100.46  3101.56  3102.79  3104.31
eigval :     3106.41  3106.83  3127.36

   temp. (K)  partition function   enthalpy   heat capacity  entropy
                                   cal/mol     cal/K/mol   cal/K/mol   J/K/mol
 298.15  VIB  0.583E+19            23731.658    149.014    148.272
         ROT  0.116E+09              888.752      2.981     39.878
         INT  0.674E+27            24620.411    151.995    188.149
         TR   0.165E+29             1481.254      4.968     45.339
         TOT                       26101.6647   156.9634   233.4885   976.9159

       T/K    H(0)-H(T)+PV         H(T)/Eh          T*S/Eh         G(T)/Eh
   ------------------------------------------------------------------------
    298.15    0.415957E-01    0.652444E+00    0.110938E+00    0.541506E+00
   ------------------------------------------------------------------------

         :::::::::::::::::::::::::::::::::::::::::::::::::::::
         ::                  THERMODYNAMIC                  ::
         :::::::::::::::::::::::::::::::::::::::::::::::::::::
         :: total free energy        -129.544755564313 Eh   ::
         ::.................................................::
         :: total energy             -130.086261704362 Eh   ::
         :: zero point energy           0.610848408003 Eh   ::
         :: G(RRHO) w/o ZPVE           -0.069342267955 Eh   ::
         :: G(RRHO) contrib.            0.541506140048 Eh   ::
         :::::::::::::::::::::::::::::::::::::::::::::::::::::

           -------------------------------------------------
          | TOTAL ENERGY             -130.086261704362 Eh   |
          | TOTAL ENTHALPY           -129.433817646009 Eh   |
          | TOTAL FREE ENERGY        -129.544755564313 Eh   |
          | GRADIENT NORM               0.000043179321 Eh/α |
          | HOMO-LUMO GAP               1.526801059261 eV   |
           -------------------------------------------------

 * finished run on 2025/09/08 at 11:56:32.092
