   * xtb version 6.7.1 (edcfbbe) compiled by 'albert@albert-system' on 2024-07-22

   ID    Z sym.   atoms
    1    6 C      1-6, 8-15, 17-24, 26-28, 30-34, 36, 37, 39, 41-43
    2    8 O      7, 16
    3    7 N      25, 29, 38
    4    9 F      35, 40
    5    1 H      44-80

          program call               : xtb data2507/toluene/CBZ/CBZ.xyz --gfn 2 --gbsa toluene --ohess vtight --parallel 40 --molden --ceasefiles --namespace data2507/toluene/CBZ/CBZ_toluene_S0_preOpt
      * Solvation model:               GBSA
        Solvent                        toluene
        Solvent mass                       9.2140E+01 g/mol
          :  Hamiltonian                  GFN2-xTB          :
 * total energy  :  -122.3908055 Eh     change       -0.3670522E-08 Eh
 * total energy  :  -122.4004845 Eh     change       -0.9679017E-02 Eh
 * total energy  :  -122.4022801 Eh     change       -0.1795644E-02 Eh
 * total energy  :  -122.4026034 Eh     change       -0.3232321E-03 Eh
 * total energy  :  -122.4028797 Eh     change       -0.2763783E-03 Eh
 * total energy  :  -122.4030839 Eh     change       -0.2041669E-03 Eh
 * total energy  :  -122.4032222 Eh     change       -0.1382592E-03 Eh
 * total energy  :  -122.4033035 Eh     change       -0.8132942E-04 Eh
 * total energy  :  -122.4033766 Eh     change       -0.7309150E-04 Eh
 * total energy  :  -122.4034333 Eh     change       -0.5674702E-04 Eh
 * total energy  :  -122.4040448 Eh     change       -0.2555947E-06 Eh
 * total energy  :  -122.4040450 Eh     change       -0.1717871E-06 Eh
 * total energy  :  -122.4040451 Eh     change       -0.1608584E-06 Eh
 * total energy  :  -122.4040454 Eh     change       -0.2824849E-06 Eh
 * total energy  :  -122.4040457 Eh     change       -0.2894578E-06 Eh
 * total energy  :  -122.4040460 Eh     change       -0.2448915E-06 Eh
 * total energy  :  -122.4040462 Eh     change       -0.2399797E-06 Eh
 * total energy  :  -122.4040464 Eh     change       -0.2444414E-06 Eh
 * total energy  :  -122.4040464 Eh     change       -0.1928981E-08 Eh
   *** GEOMETRY OPTIMIZATION CONVERGED AFTER 94 ITERATIONS ***

 final structure:
================
80
 xtb: 6.7.1 (edcfbbe)
C           10.01502848781998        0.74606731968173        0.26520929879073
C            8.61240093956305        0.47216679381748        0.79689709034149
C            7.71452512138539        1.71153899512865        0.80291890385279
C            7.44050866388901        2.32701651970285       -0.57194190597339
C            6.75451862205332        1.40013373728595       -1.57799312591807
C            5.33782793059296        1.00668368442361       -1.16820756156945
O            4.54905491680721        2.18277930338291       -1.12559083682933
C            3.25812090684020        2.10438536562464       -0.70629283586972
C            2.57623539765483        3.33093916517501       -0.65157220701014
C            1.25764373448506        3.40030043055398       -0.26541957084360
C            0.60095701346106        2.22984732254114        0.09709042394214
C           -0.74060761644492        1.93192076421527        0.51639080388736
C           -1.86386594200499        2.70533062239765        0.76255268108294
C           -3.02648590118172        2.09901636545697        1.19955588748487
C           -3.07710583958977        0.71857049840994        1.41507510168353
O           -4.16132518548137        0.03292043407723        1.88252094145567
C           -5.38391561301558        0.70671663998979        2.12127180052440
C           -6.16831706245512        0.99067539352832        0.83813079941171
C           -7.48902399653529        1.69376623735356        1.14410531379560
C           -8.35129528552027        1.92367753039015       -0.09834258188275
C           -7.76520081047261        2.94858844061054       -1.06856195987236
C           -8.70935943175634        3.22186222213000       -2.23432060804295
C           -1.95504187995298       -0.07473385001761        1.17354562170969
C           -0.80450659304975        0.53371361545098        0.71092033653677
N            0.43859110277799       -0.01976116844402        0.43870368805554
C            0.77013876911207       -1.36634981138785        0.53970033108910
C            1.94161729468833       -1.77714882242484        1.17965597832602
C            2.21531779665006       -3.13220663329899        1.24450520697744
N            1.42636856601650       -4.06569337328580        0.74510855248001
C            0.30635278638629       -3.68301889797178        0.13907867281733
C           -0.54776059266653       -4.75495034602704       -0.41169292486373
C           -1.11262109944054       -4.64749446197348       -1.68184481827332
C           -1.89784417336435       -5.65530107142537       -2.21284661635468
C           -2.13051356794993       -6.79216864888510       -1.46474149780726
F           -2.88954560922991       -7.77664086568470       -1.97460324239117
C           -1.59616597667020       -6.94473167524323       -0.18196042613305
C           -1.85190457561095       -8.10629711264588        0.58327718461316
N           -2.06590973092687       -9.04921030083856        1.19794714067159
C           -0.80160987383164       -5.91016986121210        0.32206905428842
F           -0.31636948747847       -6.04268000015874        1.56352263506289
C           -0.06201107754321       -2.34869035560661        0.00284327038083
C            1.29800244122450        1.00525800002676        0.06858183178882
C            2.61775804982652        0.92296824014168       -0.35212922790592
H           10.47873215573931        1.56113608988617        0.81750173221264
H            9.98968285794290        1.01353771592142       -0.78797781122236
H           10.63837879841022       -0.13920863450303        0.37439349563973
H            8.14909809432500       -0.32191976382960        0.20827033233984
H            8.69119750704292        0.10820861663463        1.82500355276957
H            6.76631497718905        1.45453913835172        1.28066041064901
H            8.18613675418452        2.47838161026038        1.42326125386627
H            8.38159531157398        2.66791113561610       -1.00595971901777
H            6.80638997326202        3.20540877927731       -0.43310202268796
H            7.33602520297628        0.48907388684199       -1.71845629193774
H            6.69536979750977        1.91599841873582       -2.53863133462225
H            5.34329711490324        0.52046125284465       -0.18490314622653
H            4.92092561922615        0.30387724668274       -1.90388663113480
H            3.12111636170943        4.21743628590428       -0.93598919230254
H            0.74105689675721        4.34726155435258       -0.24722772105490
H           -1.83370617647394        3.77457660535267        0.61977039576860
H           -3.89086520600051        2.71459834706154        1.38733769241497
H           -5.21268683051282        1.63072014064902        2.68655288701157
H           -5.94916185435555        0.01827864609073        2.75679726320637
H           -6.36107112937761        0.04182158228099        0.33260162009179
H           -5.55881794594686        1.60378023001593        0.17332309349219
H           -7.28603211315596        2.65443469984797        1.62376016980557
H           -8.05242778707411        1.08370388043929        1.85450608132995
H           -8.49494159901517        0.97386351415090       -0.61866123111257
H           -9.33496010253649        2.27414678399195        0.22435018730772
H           -6.81359228988292        2.58611614091838       -1.46109838111809
H           -7.57297663788049        3.88182848914164       -0.53333530945834
H           -9.65901792940250        3.61295243988486       -1.87454467659244
H           -8.27474448953036        3.94975132695066       -2.91616480856363
H           -8.90544155122892        2.30637462142748       -2.78902409381438
H           -2.01855563421403       -1.13144125133664        1.37805950005035
H            2.60116714847984       -1.05740578811461        1.63638216963147
H            3.11045580124956       -3.49705772880779        1.73049099717015
H           -0.91677219759871       -3.76398576537373       -2.26837887436647
H           -2.32739388841122       -5.57310596874919       -3.19818889904603
H           -0.97336464269503       -2.07600977069964       -0.50370900450329
H            3.11692701377387       -0.02964189306614       -0.41690128946640

          :  Hamiltonian                  GFN2-xTB          :
         :: gradient norm              0.000055359186 Eh/a0 ::
         :: HOMO-LUMO gap              1.664893944445 eV    ::
         :: SCC energy              -124.245119017764 Eh    ::
         :: -> dispersion             -0.087089251587 Eh    ::
         :: -> Gsolv                  -0.053458087252 Eh    ::
         :: repulsion energy           1.841072573471 Eh    ::

    * Orbital Energies and Occupations

         #    Occupation            Energy/Eh            Energy/eV
      -------------------------------------------------------------
         1        2.0000           -0.8514312             -23.1686
       ...           ...                  ...                  ...
        99        2.0000           -0.4315894             -11.7441
       100        2.0000           -0.4264321             -11.6038
       101        2.0000           -0.4259453             -11.5906
       102        2.0000           -0.4248228             -11.5600
       103        2.0000           -0.4244084             -11.5487
       104        2.0000           -0.4214254             -11.4676
       105        2.0000           -0.4209995             -11.4560
       106        2.0000           -0.4195131             -11.4155
       107        2.0000           -0.4141717             -11.2702
       108        2.0000           -0.3978829             -10.8269
       109        2.0000           -0.3875827             -10.5467
       110        2.0000           -0.3755050             -10.2180
       111        2.0000           -0.3648274              -9.9275 (HOMO)
       112                         -0.3036436              -8.2626 (LUMO)
       113                         -0.2847937              -7.7496
       114                         -0.2642744              -7.1913
       115                         -0.2450711              -6.6687
       116                         -0.2433928              -6.6231
       117                         -0.2321267              -6.3165
       118                         -0.2302183              -6.2646
       119                         -0.2027147              -5.5161
       120                         -0.1955572              -5.3214
       121                         -0.1853585              -5.0439
       122                         -0.1323568              -3.6016
       ...                                ...                  ...
       209                          1.1497178              31.2854
      -------------------------------------------------------------
                  HL-Gap            0.0611837 Eh            1.6649 eV

     #   Z          covCN         q      C6AA      α(0)
     1   6 C        3.751    -0.103    22.522     6.768
     2   6 C        3.799    -0.053    21.530     6.607
     3   6 C        3.800    -0.057    21.607     6.618
     4   6 C        3.800    -0.058    21.626     6.621
     5   6 C        3.800    -0.063    21.706     6.633
     6   6 C        3.690     0.085    19.352     6.295
     7   8 O        1.706    -0.286    18.748     5.846
     8   6 C        2.865     0.140    24.954     8.188
     9   6 C        2.921    -0.064    29.599     8.922
    10   6 C        2.912    -0.034    28.847     8.807
    11   6 C        3.065    -0.024    28.541     8.760
    12   6 C        3.065    -0.023    28.518     8.757
    13   6 C        2.914    -0.036    28.897     8.815
    14   6 C        2.917    -0.075    29.865     8.962
    15   6 C        2.860     0.140    24.942     8.186
    16   8 O        1.705    -0.296    18.931     5.874
    17   6 C        3.688     0.077    19.472     6.316
    18   6 C        3.800    -0.067    21.777     6.644
    19   6 C        3.802    -0.061    21.663     6.626
    20   6 C        3.802    -0.060    21.646     6.624
    21   6 C        3.800    -0.054    21.543     6.608
    22   6 C        3.752    -0.103    22.526     6.768
    23   6 C        2.912    -0.079    29.976     8.978
    24   6 C        3.064     0.046    26.903     8.505
    25   7 N        2.801    -0.040    22.018     6.969
    26   6 C        2.918     0.085    26.112     8.380
    27   6 C        2.916    -0.055    29.374     8.888
    28   6 C        2.907     0.062    26.608     8.458
    29   7 N        1.842    -0.241    27.138     7.720
    30   6 C        2.966     0.102    25.731     8.320
    31   6 C        2.973    -0.005    28.147     8.703
    32   6 C        2.930    -0.022    28.551     8.763
    33   6 C        2.912    -0.046    29.151     8.854
    34   6 C        2.791     0.181    24.110     8.043
    35   9 F        0.787    -0.211    11.347     3.979
    36   6 C        2.966    -0.013    28.345     8.733
    37   6 C        1.907     0.139    27.726     8.504
    38   7 N        0.911    -0.232    26.071     7.385
    39   6 C        2.794     0.183    24.075     8.038
    40   9 F        0.787    -0.200    11.232     3.959
    41   6 C        2.921    -0.063    29.574     8.918
    42   6 C        3.068     0.045    26.916     8.507
    43   6 C        2.908    -0.091    30.275     9.022
    44   1 H        0.925     0.034     2.535     2.490
    45   1 H        0.925     0.037     2.490     2.467
    46   1 H        0.925     0.031     2.568     2.506
    47   1 H        0.924     0.030     2.582     2.513
    48   1 H        0.924     0.028     2.619     2.531
    49   1 H        0.924     0.027     2.636     2.539
    50   1 H        0.924     0.032     2.553     2.499
    51   1 H        0.924     0.041     2.440     2.443
    52   1 H        0.924     0.040     2.445     2.445
    53   1 H        0.925     0.049     2.333     2.388
    54   1 H        0.924     0.047     2.358     2.401
    55   1 H        0.924     0.034     2.534     2.489
    56   1 H        0.923     0.026     2.638     2.540
    57   1 H        0.926     0.045     2.378     2.411
    58   1 H        0.926     0.044     2.400     2.423
    59   1 H        0.926     0.042     2.418     2.432
    60   1 H        0.926     0.043     2.409     2.427
    61   1 H        0.924     0.033     2.543     2.494
    62   1 H        0.924     0.050     2.320     2.382
    63   1 H        0.924     0.043     2.410     2.427
    64   1 H        0.924     0.045     2.390     2.417
    65   1 H        0.924     0.034     2.530     2.487
    66   1 H        0.924     0.034     2.531     2.488
    67   1 H        0.924     0.034     2.528     2.486
    68   1 H        0.924     0.035     2.514     2.480
    69   1 H        0.924     0.031     2.571     2.508
    70   1 H        0.924     0.030     2.580     2.512
    71   1 H        0.925     0.033     2.537     2.491
    72   1 H        0.925     0.034     2.532     2.489
    73   1 H        0.925     0.034     2.535     2.490
    74   1 H        0.926     0.040     2.443     2.444
    75   1 H        0.926     0.056     2.252     2.347
    76   1 H        0.925     0.050     2.320     2.382
    77   1 H        0.926     0.091     1.868     2.137
    78   1 H        0.926     0.097     1.814     2.106
    79   1 H        0.926     0.060     2.200     2.320
    80   1 H        0.926     0.035     2.514     2.480

molecular dipole:
                 x           y           z       tot (Debye)
 q only:        0.332       2.613      -1.327
   full:        0.264       3.130      -1.447       8.791

 projected vibrational frequencies (cm⁻¹)
eigval :       -0.00    -0.00    -0.00    -0.00     0.00     0.00
eigval :        8.69    10.42    14.66    15.89    18.89    20.65
eigval :       28.39    33.31    37.27    43.62    49.77    60.42
eigval :       66.57    76.62    81.98    84.57    88.05    97.78
eigval :      108.31   122.56   125.00   141.88   148.02   163.22
eigval :      171.14   182.39   200.49   212.23   215.81   221.49
eigval :      225.43   237.57   241.53   257.39   264.52   269.75
eigval :      272.13   282.54   284.46   298.13   306.05   326.69
eigval :      337.29   360.23   370.54   384.75   394.00   399.02
eigval :      404.01   419.66   426.91   427.87   432.50   440.40
eigval :      441.47   449.79   486.19   502.62   517.88   525.65
eigval :      546.08   555.21   570.84   575.88   594.64   595.28
eigval :      603.38   608.84   625.92   642.53   665.01   667.27
eigval :      678.22   689.34   699.89   715.30   721.79   745.83
eigval :      752.77   767.87   770.89   788.82   794.71   804.66
eigval :      812.85   830.67   841.85   849.32   850.27   856.29
eigval :      861.92   867.26   888.53   890.09   895.34   896.82
eigval :      904.97   913.34   921.50   922.65   925.49   939.85
eigval :      965.57   970.78   989.69   998.42  1003.88  1010.73
eigval :     1012.63  1026.01  1031.96  1041.41  1048.37  1051.50
eigval :     1073.84  1083.38  1084.47  1100.58  1116.04  1117.25
eigval :     1125.67  1129.56  1135.43  1144.13  1146.24  1154.98
eigval :     1158.91  1163.32  1171.49  1178.75  1185.00  1191.47
eigval :     1194.54  1197.86  1200.10  1222.13  1232.44  1237.26
eigval :     1240.46  1241.34  1253.87  1260.22  1260.55  1271.20
eigval :     1273.75  1279.46  1286.83  1289.41  1291.34  1293.04
eigval :     1308.93  1310.35  1312.71  1328.97  1337.13  1343.10
eigval :     1346.70  1348.77  1357.69  1362.80  1364.15  1365.28
eigval :     1373.23  1373.96  1386.33  1413.16  1413.72  1417.43
eigval :     1419.55  1437.29  1456.58  1462.41  1462.59  1467.56
eigval :     1473.35  1476.13  1481.16  1484.18  1486.57  1490.56
eigval :     1491.92  1498.26  1498.80  1501.77  1501.83  1505.05
eigval :     1506.47  1511.19  1535.78  1552.05  1560.27  1565.21
eigval :     1573.09  1587.07  1602.37  1613.91  2372.74  2868.98
eigval :     2905.54  2908.30  2955.44  2956.14  2957.77  2958.30
eigval :     2958.53  2966.60  2973.67  2975.50  2977.73  2981.20
eigval :     2981.25  2982.01  2984.55  2986.27  2995.36  3001.82
eigval :     3003.40  3024.31  3025.27  3025.82  3028.92  3032.90
eigval :     3043.01  3062.62  3090.30  3092.64  3105.44  3105.95
eigval :     3107.74  3110.40  3111.35  3113.26  3114.00  3119.63

   temp. (K)  partition function   enthalpy   heat capacity  entropy
                                   cal/mol     cal/K/mol   cal/K/mol   J/K/mol
 298.15  VIB  0.128E+22            24272.272    140.455    156.191
         ROT  0.110E+09              888.752      2.981     39.782
         INT  0.141E+30            25161.025    143.436    195.974
         TR   0.136E+29             1481.254      4.968     44.946
         TOT                       26642.2786   148.4044   240.9197  1008.0082

       T/K    H(0)-H(T)+PV         H(T)/Eh          T*S/Eh         G(T)/Eh
   ------------------------------------------------------------------------
    298.15    0.424572E-01    0.684118E+00    0.114469E+00    0.569649E+00
   ------------------------------------------------------------------------

         :::::::::::::::::::::::::::::::::::::::::::::::::::::
         ::                  THERMODYNAMIC                  ::
         :::::::::::::::::::::::::::::::::::::::::::::::::::::
         :: total free energy        -121.834397608348 Eh   ::
         ::.................................................::
         :: total energy             -122.404046444188 Eh   ::
         :: zero point energy           0.641660400367 Eh   ::
         :: G(RRHO) w/o ZPVE           -0.072011564527 Eh   ::
         :: G(RRHO) contrib.            0.569648835840 Eh   ::
         :::::::::::::::::::::::::::::::::::::::::::::::::::::

           -------------------------------------------------
          | TOTAL ENERGY             -122.404046444188 Eh   |
          | TOTAL ENTHALPY           -121.719928870292 Eh   |
          | TOTAL FREE ENERGY        -121.834397608348 Eh   |
          | GRADIENT NORM               0.000055396228 Eh/α |
          | HOMO-LUMO GAP               1.664893640010 eV   |
           -------------------------------------------------

 * finished run on 2025/09/14 at 00:06:14.981
