   * xtb version 6.7.1 (edcfbbe) compiled by 'albert@albert-system' on 2024-07-22

   ID    Z sym.   atoms
    1    6 C      1-6, 8-15, 17-24, 26-28, 30-34, 36, 37, 39, 41-43
    2    8 O      7, 16
    3    7 N      25, 29, 38
    4    9 F      35, 40
    5    1 H      44-80

          program call               : xtb data2507/toluene/CBZ/CBZ_toluene_S0_crest.xyz --gfn 2 --gbsa toluene --ohess vtight --parallel 40 --molden --ceasefiles --namespace data2507/toluene/CBZ/CBZ_toluene_S0_finalOpt
      * Solvation model:               GBSA
        Solvent                        toluene
        Solvent mass                       9.2140E+01 g/mol
          :  Hamiltonian                  GFN2-xTB          :
 * total energy  :  -122.4075929 Eh     change       -0.3547783E-08 Eh
 * total energy  :  -122.4077547 Eh     change       -0.1618468E-03 Eh
 * total energy  :  -122.4078857 Eh     change       -0.1309460E-03 Eh
 * total energy  :  -122.4079567 Eh     change       -0.7105348E-04 Eh
 * total energy  :  -122.4080509 Eh     change       -0.9420392E-04 Eh
 * total energy  :  -122.4081736 Eh     change       -0.1226263E-03 Eh
 * total energy  :  -122.4082716 Eh     change       -0.9804582E-04 Eh
 * total energy  :  -122.4083410 Eh     change       -0.6939416E-04 Eh
 * total energy  :  -122.4084051 Eh     change       -0.6413073E-04 Eh
 * total energy  :  -122.4084340 Eh     change       -0.2883406E-04 Eh
 * total energy  :  -122.4089530 Eh     change       -0.5619035E-06 Eh
 * total energy  :  -122.4089536 Eh     change       -0.5782751E-06 Eh
 * total energy  :  -122.4089541 Eh     change       -0.5591125E-06 Eh
 * total energy  :  -122.4089545 Eh     change       -0.4084807E-06 Eh
 * total energy  :  -122.4089548 Eh     change       -0.2953358E-06 Eh
 * total energy  :  -122.4089551 Eh     change       -0.2769291E-06 Eh
 * total energy  :  -122.4089555 Eh     change       -0.3392782E-06 Eh
 * total energy  :  -122.4089557 Eh     change       -0.2465497E-06 Eh
 * total energy  :  -122.4089557 Eh     change       -0.4078505E-07 Eh
   *** GEOMETRY OPTIMIZATION CONVERGED AFTER 82 ITERATIONS ***

 final structure:
================
80
 xtb: 6.7.1 (edcfbbe)
C            0.76163336097694        4.05043827931428        0.80248476898331
C            1.95939083877939        3.37225923840093        1.45784617686056
C            3.27192525358658        3.72262190338013        0.75948354035547
C            4.47392369501441        3.09431829165882        1.46420725437972
C            5.79801197979584        3.33933227536817        0.73592076907332
C            6.02562872413987        2.45985101005574       -0.49903713137523
O            6.36412152004374        1.12605439888788       -0.15415813378594
C            5.42475771797927        0.14684382536110       -0.03024430877733
C            5.91541409713395       -1.05901496517687        0.49957998127827
C            5.09868937525666       -2.14981740514853        0.69103085076088
C            3.75874419162378       -2.05780922091523        0.33232865670514
C            2.63746345351630       -2.95250050855929        0.41176516225795
C            2.47685182193249       -4.26579015731147        0.83876249535727
C            1.23569661768730       -4.85142656520096        0.73814234589880
C            0.13890143026157       -4.16122663865699        0.19599279115758
O           -1.00982644165785       -4.89195159134477        0.11572564817074
C           -2.17273010818544       -4.32036422822289       -0.45646341523783
C           -2.92047798657556       -3.40254532252473        0.51392623770334
C           -4.20046376072197       -2.81919745246710       -0.08465130887850
C           -3.94872658063377       -1.87001697540899       -1.25702935556854
C           -5.20346531908595       -1.08604982863110       -1.63730234398931
C           -4.95069186084645       -0.14021060383366       -2.80610687342231
C            0.27791105250229       -2.84654229831779       -0.23034867253268
C            1.52407557582834       -2.25259001169661       -0.09555478755527
N            1.92184896731741       -0.98139814589885       -0.48202531138544
C            1.09993312624101        0.00039373317339       -1.02559862438079
C            1.46924878629198        0.69515698176137       -2.17613369302799
C            0.59458068131154        1.65560463743321       -2.65766681216789
N           -0.56099746515525        1.94174041716762       -2.09624699433786
C           -0.92947986286510        1.28847089159572       -0.98965013985108
C           -2.23731642668093        1.70752966716903       -0.44634273841090
C           -2.87906706365509        2.79636920198880       -1.05165582186673
C           -4.11143838538972        3.25722727152745       -0.63636361808663
C           -4.74520983235703        2.62379694370766        0.41497706909616
F           -5.94774205321961        3.05434289441799        0.82882435600664
C           -4.15538533583776        1.53493126510476        1.05924817568795
C           -4.80418339616242        0.87822593345732        2.13049914498455
N           -5.33538162008674        0.34197440378707        2.99245841796190
C           -2.90250344393735        1.09870780796917        0.61475594373471
F           -2.37677526755163        0.04553635366474        1.26753646622993
C           -0.11942329787463        0.31106993366922       -0.41950254553563
C            3.28006016187757       -0.85810021708221       -0.23168743413874
C            4.09087393383158        0.25306665074110       -0.40294443814203
H            0.87708632577163        5.13179692834144        0.82553068920045
H           -0.15604960670144        3.79313865766288        1.32723543841376
H            0.66154566465603        3.73885780167224       -0.23508599252389
H            2.01847514318217        3.67756522024828        2.50524123572420
H            1.81945649936257        2.28798465250763        1.44001890970845
H            3.22090671827456        3.38945042315885       -0.27930455832374
H            3.39403211128356        4.80832054227912        0.74551759944273
H            4.31536149333985        2.02040666542447        1.58409351397358
H            4.54687521258144        3.52246826808977        2.46690128465594
H            6.62489479118112        3.14860647597046        1.42345198701376
H            5.85260481696609        4.38394275261325        0.42352912728638
H            6.90553682546393        2.82840621051315       -1.03704728627067
H            5.17265601846575        2.49624620115318       -1.18061473820940
H            6.96024720221871       -1.09485082509981        0.76581337119530
H            5.49096230707743       -3.05879930878298        1.11983312403412
H            3.31301267227374       -4.81983701580815        1.23599040361694
H            1.07359051861126       -5.86891974982501        1.05759019559876
H           -2.80251844957986       -5.17902209651356       -0.70761827715532
H           -1.91695021689430       -3.79597415575821       -1.38351272517240
H           -2.26536862044579       -2.59002567294934        0.83296362273614
H           -3.17029186568315       -3.98417952626534        1.40402793450645
H           -4.72035555762513       -2.27174786112639        0.70554044011049
H           -4.85515147256796       -3.63080600698540       -0.40852720890040
H           -3.15671607721810       -1.16598410490667       -0.99009228737119
H           -3.60934966574864       -2.43385932264234       -2.12788318170651
H           -5.54787495569896       -0.51488050915064       -0.77094375740482
H           -5.99815919100634       -1.78709296641857       -1.90127984921329
H           -4.14776696082206        0.55540228847499       -2.56957145851043
H           -4.66662503176457       -0.70131004640749       -3.69377394763092
H           -5.84677527659682        0.43218395179688       -3.03428073226275
H           -0.54229315925829       -2.30023496643295       -0.66574747404332
H            2.39253747068755        0.47302147282418       -2.68596318958068
H            0.82800156661177        2.22193897424811       -3.55008947462592
H           -2.36837652958886        3.26940557702463       -1.87504300840531
H           -4.58872446819449        4.09557426546640       -1.11710666489729
H           -0.38177909936892       -0.19679031560317        0.49184385386296
H            3.67713376326157        1.16791826429996       -0.79203044238874

          :  Hamiltonian                  GFN2-xTB          :
         :: gradient norm              0.000175862637 Eh/a0 ::
         :: HOMO-LUMO gap              1.549365394018 eV    ::
         :: SCC energy              -124.249130266352 Eh    ::
         :: -> dispersion             -0.100326834082 Eh    ::
         :: -> Gsolv                  -0.045218082457 Eh    ::
         :: repulsion energy           1.840174522688 Eh    ::

    * Orbital Energies and Occupations

         #    Occupation            Energy/Eh            Energy/eV
      -------------------------------------------------------------
         1        2.0000           -0.8565613             -23.3082
       ...           ...                  ...                  ...
        99        2.0000           -0.4349001             -11.8342
       100        2.0000           -0.4322697             -11.7627
       101        2.0000           -0.4312908             -11.7360
       102        2.0000           -0.4294449             -11.6858
       103        2.0000           -0.4285524             -11.6615
       104        2.0000           -0.4261841             -11.5971
       105        2.0000           -0.4231599             -11.5148
       106        2.0000           -0.4227809             -11.5045
       107        2.0000           -0.4124343             -11.2229
       108        2.0000           -0.3956942             -10.7674
       109        2.0000           -0.3918909             -10.6639
       110        2.0000           -0.3741560             -10.1813
       111        2.0000           -0.3628729              -9.8743 (HOMO)
       112                         -0.3059349              -8.3249 (LUMO)
       113                         -0.2927341              -7.9657
       114                         -0.2659139              -7.2359
       115                         -0.2418563              -6.5812
       116                         -0.2392625              -6.5107
       117                         -0.2343861              -6.3780
       118                         -0.2288017              -6.2260
       119                         -0.2030621              -5.5256
       120                         -0.1918813              -5.2214
       121                         -0.1841908              -5.0121
       122                         -0.1350683              -3.6754
       ...                                ...                  ...
       209                          1.1477491              31.2318
      -------------------------------------------------------------
                  HL-Gap            0.0569381 Eh            1.5494 eV

     #   Z          covCN         q      C6AA      α(0)
     1   6 C        3.752    -0.101    22.490     6.763
     2   6 C        3.801    -0.051    21.490     6.600
     3   6 C        3.802    -0.057    21.605     6.618
     4   6 C        3.801    -0.057    21.595     6.616
     5   6 C        3.799    -0.068    21.808     6.649
     6   6 C        3.683     0.077    19.497     6.323
     7   8 O        1.705    -0.292    18.862     5.864
     8   6 C        2.857     0.142    24.894     8.178
     9   6 C        2.922    -0.065    29.627     8.926
    10   6 C        2.912    -0.034    28.852     8.808
    11   6 C        3.067    -0.025    28.557     8.763
    12   6 C        3.067    -0.025    28.549     8.761
    13   6 C        2.912    -0.034    28.855     8.808
    14   6 C        2.921    -0.064    29.604     8.923
    15   6 C        2.863     0.140    24.936     8.185
    16   8 O        1.705    -0.294    18.881     5.867
    17   6 C        3.689     0.078    19.468     6.315
    18   6 C        3.800    -0.066    21.759     6.641
    19   6 C        3.802    -0.061    21.666     6.627
    20   6 C        3.802    -0.056    21.586     6.615
    21   6 C        3.801    -0.052    21.517     6.604
    22   6 C        3.752    -0.105    22.559     6.773
    23   6 C        2.909    -0.089    30.226     9.015
    24   6 C        3.071     0.045    26.926     8.508
    25   7 N        2.803    -0.045    22.099     6.982
    26   6 C        2.919     0.085    26.114     8.380
    27   6 C        2.915    -0.054    29.343     8.883
    28   6 C        2.899     0.061    26.625     8.460
    29   7 N        1.847    -0.240    27.115     7.717
    30   6 C        2.954     0.099    25.803     8.332
    31   6 C        2.971    -0.006    28.159     8.704
    32   6 C        2.936    -0.019    28.478     8.752
    33   6 C        2.911    -0.044    29.090     8.844
    34   6 C        2.791     0.183    24.071     8.037
    35   9 F        0.787    -0.211    11.346     3.979
    36   6 C        2.967    -0.013    28.325     8.730
    37   6 C        1.908     0.139    27.725     8.504
    38   7 N        0.911    -0.236    26.167     7.398
    39   6 C        2.794     0.176    24.214     8.061
    40   9 F        0.787    -0.212    11.359     3.981
    41   6 C        2.918    -0.056    29.400     8.892
    42   6 C        3.071     0.045    26.922     8.508
    43   6 C        2.909    -0.088    30.217     9.014
    44   1 H        0.925     0.040     2.452     2.449
    45   1 H        0.925     0.028     2.616     2.529
    46   1 H        0.925     0.031     2.568     2.506
    47   1 H        0.924     0.031     2.570     2.507
    48   1 H        0.924     0.021     2.718     2.578
    49   1 H        0.924     0.026     2.650     2.546
    50   1 H        0.924     0.036     2.508     2.477
    51   1 H        0.924     0.033     2.547     2.496
    52   1 H        0.924     0.035     2.519     2.482
    53   1 H        0.924     0.048     2.345     2.395
    54   1 H        0.924     0.047     2.364     2.404
    55   1 H        0.924     0.050     2.319     2.381
    56   1 H        0.924     0.037     2.486     2.466
    57   1 H        0.926     0.044     2.397     2.421
    58   1 H        0.926     0.042     2.422     2.434
    59   1 H        0.926     0.043     2.407     2.426
    60   1 H        0.926     0.044     2.391     2.418
    61   1 H        0.924     0.052     2.291     2.367
    62   1 H        0.924     0.034     2.525     2.485
    63   1 H        0.924     0.042     2.422     2.434
    64   1 H        0.924     0.043     2.405     2.425
    65   1 H        0.924     0.036     2.501     2.473
    66   1 H        0.924     0.037     2.486     2.466
    67   1 H        0.924     0.022     2.703     2.571
    68   1 H        0.924     0.032     2.552     2.498
    69   1 H        0.924     0.019     2.752     2.594
    70   1 H        0.924     0.035     2.516     2.480
    71   1 H        0.925     0.031     2.575     2.509
    72   1 H        0.925     0.040     2.452     2.449
    73   1 H        0.925     0.038     2.470     2.458
    74   1 H        0.926     0.037     2.484     2.465
    75   1 H        0.926     0.054     2.266     2.354
    76   1 H        0.925     0.051     2.304     2.374
    77   1 H        0.926     0.110     1.699     2.038
    78   1 H        0.926     0.097     1.813     2.106
    79   1 H        0.926     0.062     2.180     2.309
    80   1 H        0.926     0.040     2.445     2.445

molecular dipole:
                 x           y           z       tot (Debye)
 q only:        0.832       1.758      -1.955
   full:        1.072       1.813      -2.211       7.761

 projected vibrational frequencies (cm⁻¹)
eigval :       -0.00    -0.00     0.00     0.00     0.00     0.00
eigval :       11.26    14.92    19.19    20.18    30.33    33.06
eigval :       41.25    44.69    51.35    51.92    59.70    65.85
eigval :       72.82    85.03    89.78    95.65    98.33   102.09
eigval :      118.00   120.25   132.49   140.98   156.64   165.41
eigval :      183.23   185.97   195.68   211.68   221.28   225.02
eigval :      225.74   229.43   238.68   247.32   256.48   266.08
eigval :      278.06   288.41   295.50   306.00   309.97   324.15
eigval :      333.16   380.64   386.71   391.30   395.83   399.09
eigval :      400.58   405.55   418.53   424.06   430.75   433.87
eigval :      437.65   444.51   452.47   498.34   499.09   536.33
eigval :      539.04   546.65   552.92   588.77   591.90   594.76
eigval :      596.97   608.70   615.91   644.10   659.76   664.37
eigval :      682.08   688.81   697.41   713.43   719.89   750.84
eigval :      756.90   764.94   769.76   792.66   803.83   806.04
eigval :      815.47   828.38   831.80   846.83   849.61   851.28
eigval :      856.82   861.27   884.79   892.05   904.39   910.42
eigval :      913.18   922.87   925.14   928.47   931.01   934.99
eigval :      953.81   969.75   977.77   981.36  1001.75  1009.77
eigval :     1011.01  1016.92  1030.00  1042.90  1054.24  1069.95
eigval :     1072.49  1102.92  1106.62  1109.50  1113.70  1117.42
eigval :     1121.78  1127.80  1131.01  1131.71  1137.05  1142.45
eigval :     1151.44  1158.07  1169.55  1171.79  1188.04  1192.57
eigval :     1200.02  1207.24  1221.22  1225.74  1228.92  1234.61
eigval :     1244.25  1252.83  1253.60  1265.62  1271.23  1272.74
eigval :     1279.76  1282.58  1283.80  1285.36  1286.25  1288.38
eigval :     1294.50  1302.92  1308.18  1323.64  1328.35  1346.33
eigval :     1347.72  1349.47  1354.23  1354.63  1357.28  1361.35
eigval :     1375.28  1375.89  1395.11  1406.39  1414.07  1414.49
eigval :     1423.42  1440.32  1451.68  1460.74  1463.34  1465.27
eigval :     1469.09  1473.78  1487.58  1491.03  1494.42  1495.15
eigval :     1497.94  1498.49  1501.06  1501.26  1502.62  1503.22
eigval :     1505.57  1505.95  1539.47  1550.46  1553.36  1562.53
eigval :     1577.45  1583.56  1602.13  1610.08  2373.09  2920.47
eigval :     2938.16  2951.70  2953.92  2956.15  2957.28  2960.48
eigval :     2960.97  2968.95  2969.10  2974.06  2975.62  2977.39
eigval :     2978.64  2980.36  2984.12  2987.85  2988.80  2990.61
eigval :     2999.33  3025.70  3026.26  3029.75  3031.68  3036.70
eigval :     3037.55  3057.49  3091.98  3093.35  3105.22  3106.20
eigval :     3110.34  3111.78  3115.89  3118.36  3124.57  3145.68

   temp. (K)  partition function   enthalpy   heat capacity  entropy
                                   cal/mol     cal/K/mol   cal/K/mol   J/K/mol
 298.15  VIB  0.270E+20            24070.262    142.198    153.114
         ROT  0.542E+08              888.752      2.981     38.369
         INT  0.146E+28            24959.014    145.179    191.484
         TR   0.136E+29             1481.254      4.968     44.946
         TOT                       26440.2680   150.1475   236.4297   989.2218

       T/K    H(0)-H(T)+PV         H(T)/Eh          T*S/Eh         G(T)/Eh
   ------------------------------------------------------------------------
    298.15    0.421352E-01    0.684358E+00    0.112335E+00    0.572022E+00
   ------------------------------------------------------------------------

         :::::::::::::::::::::::::::::::::::::::::::::::::::::
         ::                  THERMODYNAMIC                  ::
         :::::::::::::::::::::::::::::::::::::::::::::::::::::
         :: total free energy        -121.836933299201 Eh   ::
         ::.................................................::
         :: total energy             -122.408955744673 Eh   ::
         :: zero point energy           0.642222569732 Eh   ::
         :: G(RRHO) w/o ZPVE           -0.070200124260 Eh   ::
         :: G(RRHO) contrib.            0.572022445472 Eh   ::
         :::::::::::::::::::::::::::::::::::::::::::::::::::::

           -------------------------------------------------
          | TOTAL ENERGY             -122.408955744673 Eh   |
          | TOTAL ENTHALPY           -121.724597925805 Eh   |
          | TOTAL FREE ENERGY        -121.836933299201 Eh   |
          | GRADIENT NORM               0.000175654281 Eh/α |
          | HOMO-LUMO GAP               1.549363208417 eV   |
           -------------------------------------------------

 * finished run on 2025/09/14 at 00:34:19.616
