   * xtb version 6.7.1 (edcfbbe) compiled by 'albert@albert-system' on 2024-07-22

   ID    Z sym.   atoms
    1    6 C      1-6, 8-15, 17-24, 26-28, 30-34, 36, 37, 39, 41-43
    2    8 O      7, 16
    3    7 N      25, 29, 38
    4    9 F      35, 40
    5    1 H      44-80

          program call               : xtb data2507/toluene/CBZ/CBZ_toluene_T1_crest.xyz --gfn 2 --uhf 2 --gbsa toluene --ohess vtight --parallel 40 --molden --ceasefiles --namespace data2507/toluene/CBZ/CBZ_toluene_T1_finalOpt
      * Solvation model:               GBSA
        Solvent                        toluene
        Solvent mass                       9.2140E+01 g/mol
          :  Hamiltonian                  GFN2-xTB          :
 * total energy  :  -122.3220537 Eh     change       -0.8166268E-09 Eh
 * total energy  :  -122.3224272 Eh     change       -0.3735162E-03 Eh
 * total energy  :  -122.3227170 Eh     change       -0.2897570E-03 Eh
 * total energy  :  -122.3228618 Eh     change       -0.1447874E-03 Eh
 * total energy  :  -122.3230327 Eh     change       -0.1709793E-03 Eh
 * total energy  :  -122.3232221 Eh     change       -0.1893460E-03 Eh
 * total energy  :  -122.3233325 Eh     change       -0.1103790E-03 Eh
 * total energy  :  -122.3233993 Eh     change       -0.6680466E-04 Eh
 * total energy  :  -122.3234322 Eh     change       -0.3289512E-04 Eh
 * total energy  :  -122.3234523 Eh     change       -0.2017221E-04 Eh
 * total energy  :  -122.3235750 Eh     change       -0.5301606E-06 Eh
 * total energy  :  -122.3235755 Eh     change       -0.4793914E-06 Eh
 * total energy  :  -122.3235759 Eh     change       -0.3931741E-06 Eh
 * total energy  :  -122.3235761 Eh     change       -0.2944505E-06 Eh
 * total energy  :  -122.3235764 Eh     change       -0.3008946E-06 Eh
 * total energy  :  -122.3235767 Eh     change       -0.2840689E-06 Eh
 * total energy  :  -122.3235770 Eh     change       -0.2742169E-06 Eh
 * total energy  :  -122.3235773 Eh     change       -0.2564091E-06 Eh
 * total energy  :  -122.3235773 Eh     change       -0.6303736E-08 Eh
   *** GEOMETRY OPTIMIZATION CONVERGED AFTER 44 ITERATIONS ***

 final structure:
================
80
 xtb: 6.7.1 (edcfbbe)
C            0.81450618053854        4.11655526945181        0.76214585135473
C            1.99392176626211        3.42125086907671        1.43205156981420
C            3.31524511197993        3.73155181454582        0.73097814743865
C            4.50150603021917        3.07919249842830        1.44072746965664
C            5.83145537703037        3.28970021529049        0.71412217926179
C            6.02968360332092        2.39631910322588       -0.51650721632337
O            6.32089109739075        1.05782439235867       -0.14169933114568
C            5.38976887276860        0.10132588724532       -0.05477592728460
C            5.88051729616343       -1.13857217287506        0.43692176731019
C            5.06382358715118       -2.22241203297823        0.59960440334424
C            3.70925981138812       -2.10701022153629        0.25599734526689
C            2.59903786207873       -2.98159881542019        0.31414960123415
C            2.42359715766219       -4.30993684055524        0.72769077128069
C            1.18133831299677       -4.87199548066231        0.63233056569741
C            0.07444611695907       -4.14960380343007        0.11188230492557
O           -1.06620841384580       -4.85089619064842        0.05184539491092
C           -2.26268210421972       -4.25925289008634       -0.42897660479305
C           -2.93070262824495       -3.36790687396248        0.62209529469271
C           -4.26348791384783       -2.79238198532839        0.14523378017448
C           -4.12233827984213       -1.81184958841086       -1.01907444363560
C           -5.42379769593935       -1.05930004674477       -1.28899702127058
C           -5.28220829978100       -0.07999399473492       -2.44853547867767
C            0.22701758096240       -2.82622817698305       -0.30630862589047
C            1.47740994086653       -2.25131445922475       -0.18316730075569
N            1.88050752660690       -0.98213921810474       -0.52731534588586
C            1.05316317963343        0.02802427337627       -1.05226343551155
C            1.43740957996756        0.70842720032056       -2.23479143405349
C            0.56981513308788        1.68089863389919       -2.69169640702326
N           -0.55471144528935        1.98526203296840       -2.09911918552568
C           -0.97266420234085        1.34828241284295       -0.96646844327283
C           -2.22531070441215        1.76789092949425       -0.42942265476947
C           -2.92320665325075        2.84291127399396       -1.07588942205955
C           -4.14129099250346        3.29696949344040       -0.64253870048639
C           -4.74398312543986        2.70977545371324        0.45671898345526
F           -5.96174819315603        3.15010352589289        0.89249455625571
C           -4.11509938256322        1.64513555059131        1.14118582480302
C           -4.71781802946924        1.02707608613431        2.24689673063223
N           -5.21466573361964        0.51009327883375        3.14745957140207
C           -2.87840413861655        1.21425068021005        0.68044825898237
F           -2.31460427995664        0.18257834243050        1.37051624147345
C           -0.12769621366509        0.34929261920941       -0.42881470628046
C            3.22756888526350       -0.87048931843132       -0.26900795556332
C            4.04528873680209        0.23228129609857       -0.41399704664399
H            0.95344981930977        5.19567517495732        0.76441786553378
H           -0.11139346372517        3.89078800583515        1.28713748860135
H            0.70489644499343        3.78657936979046       -0.26867708198832
H            2.05536201952203        3.74107396823302        2.47504923047541
H            1.82350839993926        2.34144783216972        1.42873141491312
H            3.25041478708950        3.39411047139565       -0.30551470050246
H            3.46295342207815        4.81377899279655        0.70912853164336
H            4.31385070925292        2.01076440499063        1.57034489445001
H            4.58282252844653        3.51171051969219        2.44053533936797
H            6.65487619492637        3.08585146429035        1.40135428888664
H            5.90915769403658        4.32895024585452        0.39158863430876
H            6.92286789322459        2.72711392644066       -1.05537076768035
H            5.17506050332563        2.45085350275104       -1.19273645956096
H            6.92773183579943       -1.18349785587054        0.68944813642890
H            5.44809206288038       -3.15088273590592        0.99010069965527
H            3.25749770886048       -4.87363970971305        1.11379304677433
H            0.99972330599319       -5.88873010145771        0.94141771554277
H           -2.91319770570467       -5.10732754973885       -0.65822617543951
H           -2.06733736960251       -3.70425858306342       -1.35118687966814
H           -2.26372431141586       -2.54782683081168        0.89446363352716
H           -3.09721913998234       -3.96653209209952        1.52013732461402
H           -4.72037764521121       -2.26714999044757        0.98754693781237
H           -4.93519530665498       -3.60422515372283       -0.14100266211855
H           -3.33939734889056       -1.08526691730430       -0.78961634735141
H           -3.83093818754023       -2.34339253764554       -1.92712394524223
H           -5.71743475260271       -0.51426167984292       -0.38782012849360
H           -6.21728712051726       -1.77667652288767       -1.51097697907641
H           -4.49756294585088        0.64503049725784       -2.24015975866446
H           -5.03028684603384       -0.60749229782983       -3.36623357044640
H           -6.21255573474441        0.46104522076535       -2.60608707768914
H           -0.59282400680045       -2.25926852253747       -0.71452931886210
H            2.33939701189209        0.45740575966845       -2.76497494976689
H            0.79139670971022        2.24452903218448       -3.59004235005254
H           -2.44405400297993        3.28676578945333       -1.93222631657706
H           -4.64747174301316        4.10622023350160       -1.14530162731905
H           -0.38961467139004       -0.14425240876493        0.49105787169611
H            3.63420536328868        1.15914511195725       -0.77562790744339

          :  Hamiltonian                  GFN2-xTB          :
         :: gradient norm              0.000067588269 Eh/a0 ::
         :: HOMO-LUMO gap              0.340796278600 eV    ::
         :: SCC energy              -124.149677482927 Eh    ::
         :: -> dispersion             -0.099599812517 Eh    ::
         :: -> Gsolv                  -0.056128739752 Eh    ::
         :: repulsion energy           1.826100215777 Eh    ::

    * Orbital Energies and Occupations

         #    Occupation            Energy/Eh            Energy/eV
      -------------------------------------------------------------
         1        2.0000           -0.8291860             -22.5633
       ...           ...                  ...                  ...
       100        2.0000           -0.4321096             -11.7583
       101        2.0000           -0.4317766             -11.7492
       102        2.0000           -0.4310789             -11.7303
       103        2.0000           -0.4271362             -11.6230
       104        2.0000           -0.4255995             -11.5812
       105        2.0000           -0.4221268             -11.4867
       106        2.0000           -0.4134418             -11.2503
       107        2.0000           -0.4132605             -11.2454
       108        2.0000           -0.3904992             -10.6260
       109        1.9996           -0.3880075             -10.5582
       110        1.6734           -0.3813627             -10.3774
       111        1.3271           -0.3799902             -10.3401
       112        0.9986           -0.2790436              -7.5932 (HOMO)
       113        0.0013           -0.2665201              -7.2524 (LUMO)
       114        0.0001           -0.2643266              -7.1927
       115                         -0.2481894              -6.7536
       116                         -0.2476033              -6.7376
       117                         -0.2163547              -5.8873
       118                         -0.2077486              -5.6531
       119                         -0.2074649              -5.6454
       120                         -0.2045672              -5.5666
       121                         -0.1655735              -4.5055
       122                         -0.1222828              -3.3275
       123                         -0.1086596              -2.9568
       ...                                ...                  ...
       209                          1.1633131              31.6554
      -------------------------------------------------------------
                  HL-Gap            0.0125236 Eh            0.3408 eV

     #   Z          covCN         q      C6AA      α(0)
     1   6 C        3.752    -0.099    22.453     6.757
     2   6 C        3.801    -0.051    21.489     6.600
     3   6 C        3.802    -0.059    21.638     6.623
     4   6 C        3.801    -0.059    21.629     6.621
     5   6 C        3.799    -0.068    21.812     6.650
     6   6 C        3.684     0.067    19.646     6.346
     7   8 O        1.706    -0.230    17.817     5.699
     8   6 C        2.857     0.164    24.450     8.105
     9   6 C        2.918    -0.055    29.368     8.887
    10   6 C        2.907    -0.023    28.570     8.764
    11   6 C        3.066    -0.009    28.165     8.702
    12   6 C        3.067    -0.008    28.150     8.700
    13   6 C        2.907    -0.023    28.590     8.768
    14   6 C        2.918    -0.053    29.327     8.881
    15   6 C        2.863     0.162    24.497     8.113
    16   8 O        1.706    -0.235    17.901     5.712
    17   6 C        3.690     0.068    19.612     6.338
    18   6 C        3.800    -0.064    21.732     6.637
    19   6 C        3.802    -0.061    21.670     6.628
    20   6 C        3.802    -0.057    21.605     6.618
    21   6 C        3.801    -0.051    21.487     6.600
    22   6 C        3.752    -0.102    22.501     6.765
    23   6 C        2.905    -0.080    29.987     8.979
    24   6 C        3.083     0.057    26.633     8.460
    25   7 N        2.799    -0.026    21.739     6.925
    26   6 C        2.915     0.056    26.746     8.481
    27   6 C        2.912    -0.084    30.100     8.996
    28   6 C        2.874     0.060    26.662     8.465
    29   7 N        1.848    -0.218    26.600     7.644
    30   6 C        2.928     0.071    26.422     8.430
    31   6 C        2.966    -0.035    28.863     8.812
    32   6 C        2.931    -0.057    29.428     8.897
    33   6 C        2.905    -0.055    29.364     8.885
    34   6 C        2.788     0.129    25.166     8.217
    35   9 F        0.785    -0.269    11.968     4.086
    36   6 C        2.962    -0.034    28.833     8.808
    37   6 C        1.910     0.130    27.918     8.533
    38   7 N        0.911    -0.303    27.803     7.626
    39   6 C        2.792     0.155    24.624     8.129
    40   9 F        0.786    -0.249    11.755     4.050
    41   6 C        2.916    -0.058    29.441     8.898
    42   6 C        3.083     0.057    26.634     8.460
    43   6 C        2.905    -0.079    29.972     8.977
    44   1 H        0.925     0.036     2.505     2.475
    45   1 H        0.925     0.025     2.654     2.548
    46   1 H        0.925     0.032     2.553     2.499
    47   1 H        0.924     0.030     2.583     2.513
    48   1 H        0.924     0.024     2.680     2.560
    49   1 H        0.924     0.029     2.595     2.519
    50   1 H        0.924     0.037     2.491     2.468
    51   1 H        0.924     0.037     2.495     2.470
    52   1 H        0.924     0.041     2.437     2.441
    53   1 H        0.924     0.057     2.237     2.339
    54   1 H        0.924     0.057     2.238     2.340
    55   1 H        0.924     0.068     2.105     2.269
    56   1 H        0.924     0.053     2.278     2.360
    57   1 H        0.926     0.068     2.106     2.270
    58   1 H        0.926     0.066     2.126     2.280
    59   1 H        0.926     0.068     2.110     2.271
    60   1 H        0.926     0.068     2.105     2.269
    61   1 H        0.924     0.069     2.092     2.262
    62   1 H        0.924     0.051     2.308     2.376
    63   1 H        0.924     0.047     2.362     2.403
    64   1 H        0.924     0.050     2.320     2.382
    65   1 H        0.924     0.039     2.466     2.456
    66   1 H        0.924     0.041     2.440     2.443
    67   1 H        0.924     0.026     2.645     2.543
    68   1 H        0.924     0.034     2.524     2.484
    69   1 H        0.924     0.018     2.766     2.601
    70   1 H        0.924     0.033     2.538     2.492
    71   1 H        0.925     0.030     2.581     2.512
    72   1 H        0.925     0.039     2.461     2.453
    73   1 H        0.925     0.034     2.536     2.491
    74   1 H        0.926     0.057     2.230     2.335
    75   1 H        0.926     0.039     2.460     2.453
    76   1 H        0.925     0.045     2.388     2.416
    77   1 H        0.926     0.061     2.183     2.310
    78   1 H        0.926     0.053     2.280     2.361
    79   1 H        0.926     0.050     2.322     2.383
    80   1 H        0.926     0.064     2.153     2.295

molecular dipole:
                 x           y           z       tot (Debye)
 q only:        6.802      -2.128      -2.008
   full:        6.793      -1.857      -2.340      18.862

 projected vibrational frequencies (cm⁻¹)
eigval :       -0.00    -0.00    -0.00    -0.00     0.00     0.00
eigval :        9.23    13.39    18.84    23.62    28.12    30.91
eigval :       35.16    38.98    47.86    52.52    62.42    67.14
eigval :       68.88    76.26    81.94    89.80    94.61    98.05
eigval :      116.57   119.01   129.56   138.65   146.72   154.21
eigval :      182.67   183.88   191.78   207.21   215.27   216.21
eigval :      220.84   221.62   235.06   236.77   253.25   256.85
eigval :      274.55   283.33   289.55   298.34   305.41   306.75
eigval :      326.44   364.82   371.49   378.85   387.89   395.86
eigval :      397.30   399.64   406.13   418.54   421.20   425.93
eigval :      430.36   447.36   449.10   486.33   494.22   498.33
eigval :      506.68   516.84   547.35   558.07   587.15   590.72
eigval :      594.71   598.67   605.59   607.37   629.66   640.35
eigval :      647.68   668.76   672.07   702.94   708.58   727.58
eigval :      747.82   756.76   762.77   769.05   775.37   795.03
eigval :      804.64   812.76   818.20   825.19   828.31   835.76
eigval :      836.88   852.19   857.14   879.45   883.49   886.25
eigval :      905.86   907.30   911.58   917.73   929.29   930.50
eigval :      942.53   956.27   964.62   968.39   979.53   991.44
eigval :     1000.29  1008.29  1018.61  1028.91  1039.47  1068.09
eigval :     1068.90  1083.18  1097.39  1102.99  1105.56  1106.58
eigval :     1110.84  1120.14  1120.69  1127.91  1131.10  1136.24
eigval :     1146.51  1151.79  1157.28  1160.27  1163.31  1182.69
eigval :     1196.72  1197.09  1201.90  1207.17  1217.14  1220.90
eigval :     1225.72  1228.75  1237.88  1248.32  1257.64  1269.10
eigval :     1270.44  1277.43  1279.84  1281.18  1282.08  1284.17
eigval :     1288.40  1297.43  1305.38  1310.91  1327.25  1339.92
eigval :     1342.14  1343.79  1346.87  1347.92  1350.57  1362.92
eigval :     1366.35  1374.06  1375.14  1375.71  1388.35  1395.75
eigval :     1414.65  1418.41  1420.62  1430.83  1448.30  1454.76
eigval :     1458.24  1459.29  1462.18  1465.34  1483.00  1489.38
eigval :     1490.05  1492.01  1494.47  1495.66  1497.53  1498.65
eigval :     1498.88  1502.16  1504.07  1504.82  1506.84  1512.19
eigval :     1538.16  1549.37  1583.47  1583.87  2312.52  2941.36
eigval :     2953.02  2953.97  2955.03  2960.56  2963.64  2969.65
eigval :     2969.86  2973.42  2973.70  2974.94  2975.31  2978.87
eigval :     2980.53  2981.64  2982.80  2988.64  2993.00  2996.94
eigval :     2998.32  3025.53  3025.90  3027.56  3028.78  3034.55
eigval :     3034.75  3038.06  3099.94  3104.32  3105.98  3116.20
eigval :     3117.11  3118.36  3119.46  3119.69  3126.34  3134.77

   temp. (K)  partition function   enthalpy   heat capacity  entropy
                                   cal/mol     cal/K/mol   cal/K/mol   J/K/mol
 298.15  VIB  0.121E+21            24562.671    144.225    156.605
         ROT  0.546E+08              888.752      2.981     38.385
         INT  0.660E+28            25451.423    147.206    194.990
         TR   0.136E+29             1481.254      4.968     44.946
         TOT                       26932.6770   152.1741   239.9360  1003.8924

       T/K    H(0)-H(T)+PV         H(T)/Eh          T*S/Eh         G(T)/Eh
   ------------------------------------------------------------------------
    298.15    0.429200E-01    0.679978E+00    0.114001E+00    0.565976E+00
   ------------------------------------------------------------------------

         :::::::::::::::::::::::::::::::::::::::::::::::::::::
         ::                  THERMODYNAMIC                  ::
         :::::::::::::::::::::::::::::::::::::::::::::::::::::
         :: total free energy        -121.757600981321 Eh   ::
         ::.................................................::
         :: total energy             -122.323577265352 Eh   ::
         :: zero point energy           0.637057681618 Eh   ::
         :: G(RRHO) w/o ZPVE           -0.071081397587 Eh   ::
         :: G(RRHO) contrib.            0.565976284031 Eh   ::
         :::::::::::::::::::::::::::::::::::::::::::::::::::::

           -------------------------------------------------
          | TOTAL ENERGY             -122.323577265352 Eh   |
          | TOTAL ENTHALPY           -121.643599630947 Eh   |
          | TOTAL FREE ENERGY        -121.757600981321 Eh   |
          | GRADIENT NORM               0.000070418882 Eh/α |
          | HOMO-LUMO GAP               0.340783888658 eV   |
           -------------------------------------------------

 * finished run on 2025/09/14 at 01:08:19.749
