   * xtb version 6.7.1 (edcfbbe) compiled by 'albert@albert-system' on 2024-07-22

   ID    Z sym.   atoms
    1    6 C      1-6, 8-15, 17-24, 26-28, 30-34, 36, 37, 39, 41-43
    2    8 O      7, 16
    3    7 N      25, 29, 38
    4    9 F      35, 40
    5    1 H      44-80

          program call               : xtb data2507/toluene/CBZ/CBZ_toluene_S0_finalOpt.xtbopt.xyz --gfn 2 --uhf 2 --gbsa toluene --ohess vtight --parallel 40 --molden --ceasefiles --namespace data2507/toluene/CBZ/CBZ_toluene_T1_preOpt
      * Solvation model:               GBSA
        Solvent                        toluene
        Solvent mass                       9.2140E+01 g/mol
          :  Hamiltonian                  GFN2-xTB          :
 * total energy  :  -122.3158380 Eh     change       -0.1634156E-07 Eh
 * total energy  :  -122.3214014 Eh     change       -0.5563388E-02 Eh
 * total energy  :  -122.3232318 Eh     change       -0.1830341E-02 Eh
 * total energy  :  -122.3233851 Eh     change       -0.1533373E-03 Eh
 * total energy  :  -122.3234648 Eh     change       -0.7971307E-04 Eh
 * total energy  :  -122.3234818 Eh     change       -0.1703115E-04 Eh
 * total energy  :  -122.3234946 Eh     change       -0.1278819E-04 Eh
 * total energy  :  -122.3235090 Eh     change       -0.1433572E-04 Eh
 * total energy  :  -122.3235143 Eh     change       -0.5316657E-05 Eh
 * total energy  :  -122.3235300 Eh     change       -0.1576644E-04 Eh
 * total energy  :  -122.3235655 Eh     change       -0.5111635E-06 Eh
 * total energy  :  -122.3235660 Eh     change       -0.4796490E-06 Eh
 * total energy  :  -122.3235664 Eh     change       -0.3471371E-06 Eh
 * total energy  :  -122.3235667 Eh     change       -0.3039016E-06 Eh
 * total energy  :  -122.3235670 Eh     change       -0.2832923E-06 Eh
 * total energy  :  -122.3235672 Eh     change       -0.2944322E-06 Eh
 * total energy  :  -122.3235675 Eh     change       -0.2949670E-06 Eh
 * total energy  :  -122.3235677 Eh     change       -0.2011822E-06 Eh
 * total energy  :  -122.3235678 Eh     change       -0.9972102E-07 Eh
   *** GEOMETRY OPTIMIZATION CONVERGED AFTER 41 ITERATIONS ***

 final structure:
================
80
 xtb: 6.7.1 (edcfbbe)
C            0.76620984870569        4.12578566140277        0.72950078542788
C            1.94358807567430        3.45511477333317        1.42749410286341
C            3.26965608543763        3.75688044081852        0.73161143859476
C            4.45273692571006        3.12879442178430        1.46797003425832
C            5.79064879699743        3.34242145348025        0.75705360702230
C            6.01674146891929        2.43076245515835       -0.45513480255399
O            6.31814686928163        1.10260088008532       -0.05257666579239
C            5.39841485185105        0.13507593619729        0.03228629236285
C            5.89634277977396       -1.09042678997491        0.55210257807014
C            5.09200832417424       -2.18361697290786        0.71381165657688
C            3.74324644559257       -2.09294740096529        0.34102845415576
C            2.64545475838050       -2.98393255296117        0.38500512007683
C            2.48035722632107       -4.31013029394312        0.80976634237604
C            1.25035688228444       -4.89360477427469        0.68791595696681
C            0.14642232043382       -4.19579565764006        0.12895080588966
O           -0.97938935781229       -4.91792539028143        0.04146926217719
C           -2.16288614632115       -4.35770756036488       -0.50431108566196
C           -2.89918321907815       -3.46195367487675        0.49632070402604
C           -4.18553903552270       -2.87306976405985       -0.08168916447515
C           -3.94190586644615       -1.86813919904273       -1.20780669408151
C           -5.21585068374791       -1.11489314826108       -1.58540872908467
C           -4.97382449798296       -0.12826573635616       -2.72193300985513
C            0.28752066403526       -2.87354125342065       -0.29675332880601
C            1.52461644113068       -2.27694911532966       -0.14654627895507
N            1.91541631325892       -1.00550577279858       -0.49535410637730
C            1.08222411529771       -0.01073395462345       -1.04081355622387
C            1.47288540397567        0.66346518116278       -2.22469949917004
C            0.60070561394399        1.62322212799968       -2.69956583441604
N           -0.53209993387286        1.92289864559948       -2.12059288565224
C           -0.95499100733801        1.29341461366652       -0.98550535040147
C           -2.21076426322535        1.71581531355868       -0.45793924591160
C           -2.90278734692910        2.79021723121260       -1.11184025074558
C           -4.11900924542186        3.25303016389552       -0.68262901136111
C           -4.72571691780767        2.67533963241373        0.41940961767001
F           -5.94071249101935        3.12594646465128        0.85262542809325
C           -4.10429773386485        1.60972640120128        1.10925314611126
C           -4.71063040923109        1.00347538114653        2.21958956627893
N           -5.20929354357579        0.49741238383301        3.12532261708129
C           -2.87008332137713        1.16869692183049        0.65150224253181
F           -2.31543741108858        0.13334223585718        1.34347926103948
C           -0.10851385901485        0.30375998526260       -0.43290369832398
C            3.25466290303241       -0.87031315647637       -0.20966620850738
C            4.05934045920900        0.24202232868304       -0.35404280863460
H            0.89986532254738        5.20524739967392        0.70318466102175
H           -0.16276649122410        3.90982223728370        1.25318012680743
H            0.66641777292525        3.76706952234937       -0.29264738170645
H            1.99305535090927        3.80100486698222        2.46281722206205
H            1.78005599287617        2.37448916169230        1.44941703327947
H            3.21678359221948        3.39470147047388       -0.29716097774609
H            3.41108651081557        4.83920813251444        0.68594433730889
H            4.27451775039246        2.06060387989269        1.61203962794655
H            4.51517728077866        3.57821840032066        2.46166547787951
H            6.60637695990249        3.15974975982710        1.45927207387314
H            5.86130205876718        4.37695159689891        0.41814687942367
H            6.91350575546058        2.76293182201054       -0.98718461140936
H            5.17113296619824        2.46364035528927       -1.14390439507927
H            6.93880356034702       -1.11685713728594        0.82601325031961
H            5.48173346731059       -3.10100871523707        1.12455988348512
H            3.31275346889639       -4.85600853258573        1.22366388226503
H            1.07728310184870       -5.91000283522973        1.00297195616703
H           -2.78563504968344       -5.22164549203228       -0.75094743674924
H           -1.93321419745811       -3.81379097394831       -1.42516397741257
H           -2.24669383104056       -2.64873682156539        0.81998579645341
H           -3.13883033185349       -4.05952211759276        1.37823168809211
H           -4.71455656318672       -2.36540326333137        0.72830427645014
H           -4.82968768063692       -3.67733179121265       -0.44294088246529
H           -3.18814558326956       -1.14347771876112       -0.89121420109520
H           -3.56366079225822       -2.37949533681667       -2.09523826281850
H           -5.58775369196242       -0.57560340940787       -0.71017764856501
H           -5.98566474864071       -1.83146128302314       -1.88125547822709
H           -4.21114206388841        0.59553459876125       -2.44095726904711
H           -4.64181358609917       -0.65000086768203       -3.61722148771918
H           -5.88715933262318        0.41338666267479       -2.95732990372355
H           -0.53053524051255       -2.32286102515113       -0.73008278714255
H            2.38327014970706        0.41709556197516       -2.74258272858713
H            0.82564379894202        2.18018297117686       -3.60121564874656
H           -2.42011251768075        3.22724774724424       -1.96973749501846
H           -4.62032312538302        4.06211405642220       -1.19046161849007
H           -0.37596956510198       -0.18583996633395        0.48761033286528
H            3.64231506682570        1.15762569072017       -0.73701373755196

          :  Hamiltonian                  GFN2-xTB          :
         :: gradient norm              0.000052602050 Eh/a0 ::
         :: HOMO-LUMO gap              0.341681719421 eV    ::
         :: SCC energy              -124.149664045201 Eh    ::
         :: -> dispersion             -0.099324791370 Eh    ::
         :: -> Gsolv                  -0.056436120793 Eh    ::
         :: repulsion energy           1.826096202098 Eh    ::

    * Orbital Energies and Occupations

         #    Occupation            Energy/Eh            Energy/eV
      -------------------------------------------------------------
         1        2.0000           -0.8291226             -22.5616
       ...           ...                  ...                  ...
       100        2.0000           -0.4321106             -11.7583
       101        2.0000           -0.4318761             -11.7519
       102        2.0000           -0.4311726             -11.7328
       103        2.0000           -0.4270923             -11.6218
       104        2.0000           -0.4254916             -11.5782
       105        2.0000           -0.4220580             -11.4848
       106        2.0000           -0.4135005             -11.2519
       107        2.0000           -0.4132564             -11.2453
       108        2.0000           -0.3905024             -10.6261
       109        1.9995           -0.3880165             -10.5585
       110        1.6747           -0.3813902             -10.3782
       111        1.3258           -0.3800062             -10.3405
       112        0.9986           -0.2790576              -7.5935 (HOMO)
       113        0.0013           -0.2665006              -7.2519 (LUMO)
       114        0.0001           -0.2643096              -7.1922
       115                         -0.2481821              -6.7534
       116                         -0.2475864              -6.7372
       117                         -0.2164105              -5.8888
       118                         -0.2077468              -5.6531
       119                         -0.2073806              -5.6431
       120                         -0.2046109              -5.5677
       121                         -0.1655762              -4.5056
       122                         -0.1222249              -3.3259
       123                         -0.1087891              -2.9603
       ...                                ...                  ...
       209                          1.1633648              31.6568
      -------------------------------------------------------------
                  HL-Gap            0.0125569 Eh            0.3417 eV

     #   Z          covCN         q      C6AA      α(0)
     1   6 C        3.752    -0.099    22.454     6.758
     2   6 C        3.801    -0.051    21.489     6.600
     3   6 C        3.802    -0.059    21.638     6.623
     4   6 C        3.801    -0.059    21.628     6.621
     5   6 C        3.799    -0.068    21.812     6.650
     6   6 C        3.684     0.067    19.646     6.346
     7   8 O        1.706    -0.230    17.815     5.699
     8   6 C        2.857     0.165    24.449     8.105
     9   6 C        2.918    -0.055    29.369     8.887
    10   6 C        2.907    -0.023    28.570     8.764
    11   6 C        3.066    -0.009    28.166     8.702
    12   6 C        3.066    -0.008    28.150     8.700
    13   6 C        2.907    -0.023    28.591     8.768
    14   6 C        2.918    -0.053    29.328     8.881
    15   6 C        2.863     0.162    24.497     8.113
    16   8 O        1.706    -0.235    17.903     5.713
    17   6 C        3.690     0.068    19.613     6.338
    18   6 C        3.800    -0.064    21.734     6.638
    19   6 C        3.802    -0.061    21.672     6.628
    20   6 C        3.802    -0.057    21.603     6.617
    21   6 C        3.801    -0.051    21.493     6.601
    22   6 C        3.752    -0.102    22.511     6.766
    23   6 C        2.905    -0.080    29.993     8.980
    24   6 C        3.083     0.057    26.630     8.460
    25   7 N        2.799    -0.026    21.743     6.925
    26   6 C        2.915     0.056    26.746     8.481
    27   6 C        2.912    -0.084    30.100     8.996
    28   6 C        2.874     0.060    26.661     8.464
    29   7 N        1.848    -0.218    26.601     7.644
    30   6 C        2.928     0.071    26.421     8.430
    31   6 C        2.966    -0.034    28.855     8.811
    32   6 C        2.931    -0.057    29.421     8.895
    33   6 C        2.905    -0.055    29.361     8.885
    34   6 C        2.788     0.129    25.170     8.218
    35   9 F        0.785    -0.269    11.969     4.087
    36   6 C        2.962    -0.034    28.842     8.809
    37   6 C        1.910     0.130    27.927     8.535
    38   7 N        0.911    -0.303    27.791     7.624
    39   6 C        2.792     0.155    24.623     8.129
    40   9 F        0.786    -0.249    11.756     4.050
    41   6 C        2.916    -0.058    29.435     8.897
    42   6 C        3.083     0.057    26.632     8.460
    43   6 C        2.905    -0.079    29.972     8.977
    44   1 H        0.925     0.036     2.504     2.474
    45   1 H        0.925     0.025     2.654     2.548
    46   1 H        0.925     0.032     2.552     2.498
    47   1 H        0.924     0.030     2.584     2.514
    48   1 H        0.924     0.024     2.681     2.560
    49   1 H        0.924     0.029     2.596     2.520
    50   1 H        0.924     0.037     2.491     2.468
    51   1 H        0.924     0.036     2.497     2.471
    52   1 H        0.924     0.041     2.436     2.441
    53   1 H        0.924     0.057     2.236     2.339
    54   1 H        0.924     0.057     2.238     2.339
    55   1 H        0.924     0.068     2.105     2.269
    56   1 H        0.924     0.053     2.277     2.360
    57   1 H        0.926     0.068     2.106     2.269
    58   1 H        0.926     0.066     2.127     2.280
    59   1 H        0.926     0.068     2.111     2.272
    60   1 H        0.926     0.068     2.106     2.270
    61   1 H        0.924     0.069     2.095     2.264
    62   1 H        0.924     0.051     2.303     2.373
    63   1 H        0.924     0.047     2.361     2.403
    64   1 H        0.924     0.050     2.324     2.384
    65   1 H        0.924     0.038     2.470     2.458
    66   1 H        0.924     0.041     2.439     2.442
    67   1 H        0.924     0.026     2.640     2.541
    68   1 H        0.924     0.034     2.529     2.487
    69   1 H        0.924     0.018     2.761     2.599
    70   1 H        0.924     0.033     2.538     2.492
    71   1 H        0.925     0.031     2.566     2.505
    72   1 H        0.925     0.039     2.465     2.455
    73   1 H        0.925     0.034     2.534     2.489
    74   1 H        0.926     0.058     2.224     2.332
    75   1 H        0.926     0.039     2.460     2.452
    76   1 H        0.925     0.045     2.387     2.416
    77   1 H        0.926     0.061     2.182     2.310
    78   1 H        0.926     0.053     2.278     2.360
    79   1 H        0.926     0.050     2.326     2.385
    80   1 H        0.926     0.064     2.156     2.296

molecular dipole:
                 x           y           z       tot (Debye)
 q only:        6.831      -2.103      -1.982
   full:        6.823      -1.845      -2.317      18.906

 projected vibrational frequencies (cm⁻¹)
eigval :       -0.00    -0.00    -0.00     0.00     0.00     0.00
eigval :       -7.22     1.05     9.27    16.17    24.38    27.18
eigval :       32.76    38.59    46.49    54.16    60.71    64.68
eigval :       68.61    72.54    82.34    88.61    94.38    98.22
eigval :      115.51   118.39   128.25   138.73   146.94   154.38
eigval :      181.67   183.21   191.09   207.12   214.23   215.44
eigval :      221.26   221.44   232.35   242.73   255.58   256.93
eigval :      274.42   283.01   289.64   298.35   304.96   306.91
eigval :      326.23   363.26   370.92   378.56   387.89   395.32
eigval :      397.54   398.88   405.48   418.09   421.07   425.97
eigval :      430.84   446.92   449.39   486.63   494.17   497.87
eigval :      506.48   516.79   547.03   557.94   587.56   590.77
eigval :      594.23   598.47   605.28   607.39   629.67   640.03
eigval :      647.85   668.78   671.84   702.72   708.55   727.83
eigval :      747.63   756.77   763.19   767.64   775.26   793.69
eigval :      803.76   813.32   819.29   824.42   827.44   836.34
eigval :      837.72   851.57   856.89   879.61   883.70   886.06
eigval :      906.20   907.16   909.24   917.76   928.29   931.20
eigval :      941.78   956.06   964.50   968.24   980.99   991.66
eigval :      999.87  1007.92  1018.59  1028.95  1040.17  1068.05
eigval :     1069.33  1083.49  1097.00  1102.94  1105.39  1107.09
eigval :     1110.89  1119.49  1119.64  1127.51  1131.14  1136.06
eigval :     1145.86  1151.55  1156.93  1160.01  1163.08  1183.08
eigval :     1196.74  1197.08  1202.03  1207.43  1217.14  1220.67
eigval :     1225.74  1228.95  1237.91  1248.43  1257.88  1269.43
eigval :     1270.52  1277.23  1280.23  1281.38  1281.92  1283.80
eigval :     1288.14  1299.76  1305.46  1311.65  1327.43  1340.06
eigval :     1341.76  1344.01  1346.65  1347.49  1350.13  1362.66
eigval :     1366.51  1374.11  1375.06  1375.92  1388.50  1395.12
eigval :     1414.83  1417.30  1420.66  1430.85  1448.20  1454.44
eigval :     1458.31  1458.58  1461.62  1465.31  1483.06  1489.77
eigval :     1490.43  1491.66  1493.91  1495.62  1497.22  1497.45
eigval :     1499.07  1501.41  1503.80  1505.08  1505.81  1512.36
eigval :     1537.95  1549.31  1583.57  1584.32  2312.63  2942.14
eigval :     2953.00  2953.97  2955.34  2961.04  2964.40  2969.45
eigval :     2970.06  2972.92  2974.03  2975.15  2975.49  2979.25
eigval :     2980.54  2981.49  2983.00  2989.40  2992.95  2996.79
eigval :     2997.05  3026.01  3026.16  3028.46  3029.06  3034.62
eigval :     3035.44  3038.39  3100.11  3104.35  3106.15  3116.46
eigval :     3117.05  3117.95  3119.05  3119.56  3125.92  3134.01

   temp. (K)  partition function   enthalpy   heat capacity  entropy
                                   cal/mol     cal/K/mol   cal/K/mol   J/K/mol
 298.15  VIB  0.858E+22            24638.613    143.976    160.686
         ROT  0.546E+08              888.752      2.981     38.385
         INT  0.469E+30            25527.365    146.956    199.071
         TR   0.136E+29             1481.254      4.968     44.946
         TOT                       27008.6194   151.9246   244.0171  1020.9676

       T/K    H(0)-H(T)+PV         H(T)/Eh          T*S/Eh         G(T)/Eh
   ------------------------------------------------------------------------
    298.15    0.430410E-01    0.679951E+00    0.115940E+00    0.564011E+00
   ------------------------------------------------------------------------

         :::::::::::::::::::::::::::::::::::::::::::::::::::::
         ::                  THERMODYNAMIC                  ::
         :::::::::::::::::::::::::::::::::::::::::::::::::::::
         :: total free energy        -121.759557116800 Eh   ::
         ::.................................................::
         :: total energy             -122.323567840658 Eh   ::
         :: zero point energy           0.636910158407 Eh   ::
         :: G(RRHO) w/o ZPVE           -0.072899434549 Eh   ::
         :: G(RRHO) contrib.            0.564010723858 Eh   ::
         :::::::::::::::::::::::::::::::::::::::::::::::::::::

           -------------------------------------------------
          | TOTAL ENERGY             -122.323567840658 Eh   |
          | TOTAL ENTHALPY           -121.643616707527 Eh   |
          | TOTAL FREE ENERGY        -121.759557116800 Eh   |
          | GRADIENT NORM               0.000055942334 Eh/α |
          | HOMO-LUMO GAP               0.341691409298 eV   |
           -------------------------------------------------

 * finished run on 2025/09/14 at 00:34:26.964
