   * xtb version 6.7.1 (edcfbbe) compiled by 'albert@albert-system' on 2024-07-22

   ID    Z sym.   atoms
    1    7 N      1, 7, 15, 23, 27, 34, 41
    2    6 C      2-6, 8-14, 16-22, 24-26, 28-33, 35-40, 42
    3    1 H      43-63

          program call               : xtb data2507/toluene/BzITz/BzITz.xyz --gfn 2 --gbsa toluene --ohess vtight --parallel 40 --molden --ceasefiles --namespace data2507/toluene/BzITz/BzITz_toluene_S0_preOpt
      * Solvation model:               GBSA
        Solvent                        toluene
        Solvent mass                       9.2140E+01 g/mol
          :  Hamiltonian                  GFN2-xTB          :
 * total energy  :  -106.1895736 Eh     change       -0.1507672E-08 Eh
 * total energy  :  -106.1994653 Eh     change       -0.9891757E-02 Eh
 * total energy  :  -106.2027574 Eh     change       -0.3292084E-02 Eh
 * total energy  :  -106.2040456 Eh     change       -0.1288206E-02 Eh
 * total energy  :  -106.2050355 Eh     change       -0.9898459E-03 Eh
 * total energy  :  -106.2054329 Eh     change       -0.3974811E-03 Eh
 * total energy  :  -106.2056721 Eh     change       -0.2391230E-03 Eh
 * total energy  :  -106.2057563 Eh     change       -0.8419356E-04 Eh
 * total energy  :  -106.2058125 Eh     change       -0.5628631E-04 Eh
 * total energy  :  -106.2058492 Eh     change       -0.3661468E-04 Eh
 * total energy  :  -106.2060401 Eh     change       -0.1795751E-05 Eh
 * total energy  :  -106.2060412 Eh     change       -0.1038250E-05 Eh
 * total energy  :  -106.2060417 Eh     change       -0.4779638E-06 Eh
 * total energy  :  -106.2060419 Eh     change       -0.2670923E-06 Eh
 * total energy  :  -106.2060421 Eh     change       -0.2138836E-06 Eh
 * total energy  :  -106.2060423 Eh     change       -0.2102152E-06 Eh
 * total energy  :  -106.2060425 Eh     change       -0.1892342E-06 Eh
 * total energy  :  -106.2060427 Eh     change       -0.1677168E-06 Eh
 * total energy  :  -106.2060427 Eh     change       -0.1245567E-08 Eh
   *** GEOMETRY OPTIMIZATION CONVERGED AFTER 44 ITERATIONS ***

 final structure:
================
63
 xtb: 6.7.1 (edcfbbe)
N            2.62928508697003        2.84829006352692        1.33509762650440
C            2.07239621810448        1.93644356248524        0.91722832937250
C            1.32184834639085        0.80445700269278        0.52542943903352
C           -0.06167806759317        0.91273203511140        0.43024197530956
C           -0.83597373774111       -0.20946942479900        0.16161011542901
C           -2.29363649205564       -0.08880866800817        0.05668852823568
N           -2.83287857895870        1.10587867694080        0.27001979462298
C           -4.16151200882542        1.16912356898500        0.17301807148979
C           -4.80836773058927        2.45621480274608        0.41757063019060
C           -6.19446810871077        2.57572081763454        0.31368410002582
C           -6.80468821325476        3.79190185028001        0.55197751025602
C           -6.04116981909429        4.89802010416810        0.89423806156092
C           -4.66264242267902        4.78630072297798        0.99761656119260
C           -4.04597685377642        3.57286114157620        0.76115738002280
N           -4.93039500678756        0.12671687766324       -0.12995551372142
C           -4.30542836740639       -1.02930499808615       -0.33447892640792
C           -5.11161220426983       -2.19886820862281       -0.67716895431339
C           -6.50186951909849       -2.10000784705653       -0.73538078377874
C           -7.26177444628589       -3.20634313472875       -1.06265450655512
C           -6.64480452440340       -4.41799586513546       -1.33603450250549
C           -5.26309075589728       -4.52294312576680       -1.27953124529164
C           -4.49722204307364       -3.42074814597930       -0.95218113867315
N           -2.98351013385216       -1.18321887217363       -0.24396865868457
C           -0.21551790215038       -1.44934418747587       -0.00239217330152
C            1.15643325014162       -1.56496980181588        0.08020887777143
C            1.94251871175180       -0.44351174754306        0.33389015413018
N            3.33130528703646       -0.53609935144308        0.37506786790300
C            4.12189116661889       -1.48508643299106        1.02823608811230
C            3.77131063361203       -2.54410022261547        1.84497158078577
C            4.79683286608701       -3.30595283058339        2.38497464588381
C            6.13058985526474       -3.01675482711478        2.12757395689743
C            6.49446242796571       -1.94223017220022        1.33070342814626
C            5.47952553465019       -1.17743655925304        0.78746420664376
N            5.48583839771820       -0.05302098392510       -0.01119035140662
C            6.27402841211492        0.82164691138323       -0.72802467402579
C            7.63947482553854        0.96004105421234       -0.89039143509294
C            8.07594649680808        1.98285840331668       -1.71303440549166
C            7.17810178231775        2.83772879693531       -2.34996345631325
C            5.81166773999595        2.70564209441104       -2.19400321587791
C            5.34733639488388        1.68615616141565       -1.37503235806993
N            4.04479395895460        1.33850221001390       -1.06416763782124
C            4.18185731064427        0.33022402648722       -0.25688590537733
H           -0.54215232964946        1.86778978451195        0.57422729672391
H           -6.77219081641428        1.70521316276292        0.04546804739319
H           -7.87782247789856        3.87967131266268        0.47081409437564
H           -6.52022740836663        5.84775765621102        1.08023097610214
H           -4.06801063387904        5.64744172306533        1.26376029799967
H           -2.97487845162522        3.46944426320125        0.83891013800863
H           -6.96433627098873       -1.14971030672342       -0.51948934137196
H           -8.33764431933515       -3.12554762809153       -1.10618340123974
H           -7.24103009155942       -5.28095781610652       -1.59272483366868
H           -4.78348882672399       -5.46666521495300       -1.49281551250521
H           -3.42143855945429       -3.48390084874445       -0.90589824882819
H           -0.82878059367320       -2.31179783474047       -0.20853491577454
H            1.63315771857755       -2.52003217355894       -0.07718573607422
H            2.73925208798098       -2.76512498416256        2.06499621932914
H            4.54854037938150       -4.13984387856708        3.02259908706382
H            6.90097281780848       -3.63346581071808        2.56310630609932
H            7.52931266196118       -1.70643436565789        1.14388048478699
H            8.33640734870096        0.30057038867208       -0.39695097000517
H            9.13567814298347        2.12271579067475       -1.86382695572079
H            7.56341307844985        3.62425492218091       -2.98168648123970
H            5.11603677665515        3.36738038044090       -2.68492663826428

          :  Hamiltonian                  GFN2-xTB          :
         :: gradient norm              0.000115079074 Eh/a0 ::
         :: HOMO-LUMO gap              1.931150304398 eV    ::
         :: SCC energy              -108.120728272868 Eh    ::
         :: -> dispersion             -0.085388945926 Eh    ::
         :: -> Gsolv                  -0.055113899557 Eh    ::
         :: repulsion energy           1.914685566566 Eh    ::

    * Orbital Energies and Occupations

         #    Occupation            Energy/Eh            Energy/eV
      -------------------------------------------------------------
         1        2.0000           -0.7235178             -19.6879
       ...           ...                  ...                  ...
        86        2.0000           -0.4361139             -11.8673
        87        2.0000           -0.4337137             -11.8020
        88        2.0000           -0.4271764             -11.6241
        89        2.0000           -0.4198224             -11.4240
        90        2.0000           -0.4194028             -11.4125
        91        2.0000           -0.4173415             -11.3564
        92        2.0000           -0.4169338             -11.3453
        93        2.0000           -0.4148858             -11.2896
        94        2.0000           -0.3975898             -10.8190
        95        2.0000           -0.3920983             -10.6695
        96        2.0000           -0.3899993             -10.6124
        97        2.0000           -0.3883272             -10.5669
        98        2.0000           -0.3799386             -10.3387 (HOMO)
        99                         -0.3089701              -8.4075 (LUMO)
       100                         -0.3003940              -8.1741
       101                         -0.2905325              -7.9058
       102                         -0.2641178              -7.1870
       103                         -0.2551078              -6.9418
       104                         -0.2439399              -6.6379
       105                         -0.2369303              -6.4472
       106                         -0.2365177              -6.4360
       107                         -0.2348792              -6.3914
       108                         -0.2262690              -6.1571
       109                         -0.2213310              -6.0227
       ...                                ...                  ...
       189                          1.1442001              31.1353
      -------------------------------------------------------------
                  HL-Gap            0.0709685 Eh            1.9312 eV

     #   Z          covCN         q      C6AA      α(0)
     1   7 N        0.911    -0.256    26.658     7.467
     2   6 C        1.912     0.132    27.880     8.527
     3   6 C        2.973     0.009    27.822     8.652
     4   6 C        2.933    -0.016    28.406     8.741
     5   6 C        2.981    -0.005    28.148     8.703
     6   6 C        2.983     0.213    23.509     7.953
     7   7 N        1.844    -0.320    29.134     7.999
     8   6 C        2.978     0.214    23.480     7.948
     9   6 C        2.983    -0.010    28.250     8.719
    10   6 C        2.923    -0.025    28.623     8.774
    11   6 C        2.918    -0.026    28.654     8.778
    12   6 C        2.920    -0.020    28.513     8.756
    13   6 C        2.918    -0.026    28.658     8.779
    14   6 C        2.923    -0.025    28.623     8.774
    15   7 N        1.844    -0.311    28.921     7.970
    16   6 C        2.978     0.213    23.502     7.952
    17   6 C        2.983    -0.009    28.241     8.717
    18   6 C        2.923    -0.025    28.618     8.773
    19   6 C        2.918    -0.026    28.653     8.778
    20   6 C        2.920    -0.020    28.519     8.757
    21   6 C        2.918    -0.026    28.662     8.779
    22   6 C        2.923    -0.025    28.638     8.776
    23   7 N        1.844    -0.316    29.041     7.987
    24   6 C        2.922    -0.019    28.479     8.751
    25   6 C        2.918    -0.042    29.034     8.836
    26   6 C        2.918     0.080    26.213     8.396
    27   7 N        2.795    -0.072    22.641     7.067
    28   6 C        3.075     0.037    27.082     8.532
    29   6 C        2.911    -0.048    29.203     8.861
    30   6 C        2.924    -0.034    28.839     8.807
    31   6 C        2.924    -0.034    28.843     8.807
    32   6 C        2.910    -0.044    29.103     8.846
    33   6 C        3.032     0.043    27.008     8.524
    34   7 N        2.893    -0.066    22.508     7.046
    35   6 C        3.071     0.030    27.256     8.560
    36   6 C        2.907    -0.051    29.272     8.872
    37   6 C        2.926    -0.040    29.005     8.832
    38   6 C        2.922    -0.039    28.978     8.828
    39   6 C        2.910    -0.048    29.181     8.858
    40   6 C        3.244     0.072    25.469     8.178
    41   7 N        1.861    -0.355    30.094     8.131
    42   6 C        3.365     0.222    20.755     7.140
    43   1 H        0.926     0.069     2.097     2.265
    44   1 H        0.926     0.054     2.271     2.357
    45   1 H        0.926     0.051     2.306     2.375
    46   1 H        0.926     0.053     2.283     2.363
    47   1 H        0.926     0.049     2.328     2.386
    48   1 H        0.926     0.048     2.339     2.392
    49   1 H        0.926     0.053     2.283     2.363
    50   1 H        0.926     0.050     2.318     2.381
    51   1 H        0.926     0.052     2.290     2.366
    52   1 H        0.926     0.050     2.319     2.381
    53   1 H        0.926     0.052     2.299     2.371
    54   1 H        0.926     0.079     1.993     2.207
    55   1 H        0.926     0.071     2.078     2.254
    56   1 H        0.926     0.051     2.306     2.375
    57   1 H        0.926     0.058     2.224     2.332
    58   1 H        0.926     0.057     2.228     2.334
    59   1 H        0.926     0.052     2.289     2.366
    60   1 H        0.926     0.038     2.475     2.460
    61   1 H        0.926     0.043     2.404     2.425
    62   1 H        0.926     0.042     2.422     2.434
    63   1 H        0.926     0.042     2.422     2.434

molecular dipole:
                 x           y           z       tot (Debye)
 q only:       -0.993      -2.192       0.344
   full:       -0.890      -2.583       0.307       6.988

 projected vibrational frequencies (cm⁻¹)
eigval :       -0.00    -0.00    -0.00     0.00     0.00     0.00
eigval :       -1.92    13.68    20.05    26.66    36.58    41.32
eigval :       44.10    49.75    56.76    75.31    83.07    89.97
eigval :      105.59   114.35   120.02   136.74   147.81   160.70
eigval :      174.24   181.04   189.98   208.25   224.04   260.01
eigval :      261.75   303.07   307.14   312.92   322.37   357.81
eigval :      362.81   364.17   367.72   389.33   402.14   404.44
eigval :      407.24   414.01   424.82   431.58   441.97   470.75
eigval :      500.82   527.11   534.03   544.18   544.44   556.77
eigval :      581.90   586.23   587.38   596.82   602.55   612.05
eigval :      628.69   633.20   643.58   652.17   656.84   670.77
eigval :      672.51   674.70   676.29   696.83   698.04   727.16
eigval :      749.73   767.09   767.69   769.09   773.80   795.32
eigval :      804.21   841.87   846.54   860.91   865.46   871.69
eigval :      874.24   874.54   886.99   891.92   895.84   902.11
eigval :      908.29   910.39   913.84   916.05   924.84   927.75
eigval :      929.05   929.75   930.75   931.13   957.42   983.00
eigval :      988.62  1047.96  1055.04  1066.10  1072.95  1073.47
eigval :     1082.91  1085.38  1092.57  1105.85  1110.50  1124.72
eigval :     1134.24  1151.65  1163.33  1164.71  1171.30  1174.66
eigval :     1175.16  1181.41  1184.44  1197.76  1200.30  1208.55
eigval :     1218.14  1228.18  1245.66  1254.90  1265.64  1266.60
eigval :     1268.13  1285.56  1321.86  1326.42  1328.26  1333.55
eigval :     1348.62  1355.28  1367.59  1370.37  1383.52  1388.63
eigval :     1407.90  1417.76  1426.99  1429.12  1450.01  1461.31
eigval :     1470.84  1471.76  1476.06  1493.73  1500.02  1514.18
eigval :     1549.60  1573.08  1577.37  1579.74  1581.72  1590.60
eigval :     1591.06  1592.24  1601.10  1605.67  1652.78  2364.14
eigval :     3079.31  3079.59  3080.79  3084.38  3084.80  3086.34
eigval :     3093.18  3093.79  3095.04  3096.71  3100.89  3101.96
eigval :     3103.91  3104.85  3105.75  3106.46  3107.47  3108.90
eigval :     3110.81  3114.88  3116.95

   temp. (K)  partition function   enthalpy   heat capacity  entropy
                                   cal/mol     cal/K/mol   cal/K/mol   J/K/mol
 298.15  VIB  0.520E+16            18846.636    117.123    119.671
         ROT  0.706E+08              888.752      2.981     38.895
         INT  0.367E+24            19735.388    120.104    158.566
         TR   0.121E+29             1481.254      4.968     44.722
         TOT                       21216.6421   125.0723   203.2884   850.5587

       T/K    H(0)-H(T)+PV         H(T)/Eh          T*S/Eh         G(T)/Eh
   ------------------------------------------------------------------------
    298.15    0.338109E-01    0.497009E+00    0.965889E-01    0.400420E+00
   ------------------------------------------------------------------------

         :::::::::::::::::::::::::::::::::::::::::::::::::::::
         ::                  THERMODYNAMIC                  ::
         :::::::::::::::::::::::::::::::::::::::::::::::::::::
         :: total free energy        -105.805622760628 Eh   ::
         ::.................................................::
         :: total energy             -106.206042710492 Eh   ::
         :: zero point energy           0.463197955805 Eh   ::
         :: G(RRHO) w/o ZPVE           -0.062778005941 Eh   ::
         :: G(RRHO) contrib.            0.400419949864 Eh   ::
         :::::::::::::::::::::::::::::::::::::::::::::::::::::

           -------------------------------------------------
          | TOTAL ENERGY             -106.206042710492 Eh   |
          | TOTAL ENTHALPY           -105.709033883325 Eh   |
          | TOTAL FREE ENERGY        -105.805622760628 Eh   |
          | GRADIENT NORM               0.000114963607 Eh/α |
          | HOMO-LUMO GAP               1.931150237942 eV   |
           -------------------------------------------------

 * finished run on 2025/09/04 at 17:50:35.558
