   * xtb version 6.7.1 (edcfbbe) compiled by 'albert@albert-system' on 2024-07-22

   ID    Z sym.   atoms
    1    7 N      1, 7, 15, 23, 27, 34, 41
    2    6 C      2-6, 8-14, 16-22, 24-26, 28-33, 35-40, 42
    3    1 H      43-63

          program call               : xtb data2507/toluene/BzITz/BzITz_toluene_S0_crest.xyz --gfn 2 --gbsa toluene --ohess vtight --parallel 40 --molden --ceasefiles --namespace data2507/toluene/BzITz/BzITz_toluene_S0_finalOpt
      * Solvation model:               GBSA
        Solvent                        toluene
        Solvent mass                       9.2140E+01 g/mol
          :  Hamiltonian                  GFN2-xTB          :
 * total energy  :  -106.2055896 Eh     change       -0.7970158E-09 Eh
 * total energy  :  -106.2056408 Eh     change       -0.5120549E-04 Eh
 * total energy  :  -106.2056555 Eh     change       -0.1470577E-04 Eh
 * total energy  :  -106.2056649 Eh     change       -0.9471021E-05 Eh
 * total energy  :  -106.2056743 Eh     change       -0.9390093E-05 Eh
 * total energy  :  -106.2056826 Eh     change       -0.8297665E-05 Eh
 * total energy  :  -106.2056904 Eh     change       -0.7797252E-05 Eh
 * total energy  :  -106.2056964 Eh     change       -0.5955357E-05 Eh
 * total energy  :  -106.2057000 Eh     change       -0.3600805E-05 Eh
 * total energy  :  -106.2057022 Eh     change       -0.2203508E-05 Eh
 * total energy  :  -106.2057053 Eh     change       -0.1331125E-05 Eh
 * total energy  :  -106.2057063 Eh     change       -0.1022119E-05 Eh
 * total energy  :  -106.2057071 Eh     change       -0.7954178E-06 Eh
 * total energy  :  -106.2057078 Eh     change       -0.7312444E-06 Eh
 * total energy  :  -106.2057086 Eh     change       -0.7667764E-06 Eh
 * total energy  :  -106.2057093 Eh     change       -0.6942354E-06 Eh
 * total energy  :  -106.2057097 Eh     change       -0.4502862E-06 Eh
 * total energy  :  -106.2057100 Eh     change       -0.2772401E-06 Eh
 * total energy  :  -106.2057100 Eh     change       -0.3040211E-07 Eh
   *** GEOMETRY OPTIMIZATION CONVERGED AFTER 20 ITERATIONS ***

 final structure:
================
63
 xtb: 6.7.1 (edcfbbe)
N            2.03086852805795        3.61952754417642       -0.76549572594588
C            1.59591957411345        2.61853884170107       -0.41065752626019
C            1.01638062778166        1.38111238546246       -0.05108157423584
C           -0.36962502307146        1.25958646718360       -0.11553621635378
C           -0.97881926834578        0.03111399363801        0.10198184415289
C           -2.43912727404491       -0.08488440210276        0.04257012077648
N           -3.13625307107460        1.01091483047322       -0.23684709273687
C           -4.46074033322512        0.86099511406280       -0.28066364218480
C           -5.27535167532183        2.03392603400804       -0.59053778483886
C           -4.66793290303357        3.25279542146049       -0.89289349097887
C           -5.44228583200740        4.35857348639884       -1.18667572697781
C           -6.82563609252119        4.26034886539221       -1.18105694027338
C           -7.43567430138807        3.05159825027841       -0.88058988365663
C           -6.66729532495289        1.94174519792707       -0.58699334514980
N           -5.08150934851347       -0.29389812137369       -0.05655504720853
C           -4.30527860677392       -1.33803958571957        0.22038462430439
C           -4.94586468557093       -2.62449544747007        0.48449872212570
C           -6.33273618762657       -2.74885817128615        0.39997399714318
C           -6.93584607490362       -3.96505244854876        0.65614062498579
C           -6.16442212494379       -5.06599521384100        0.99731426431611
C           -4.78508227333473       -4.94919649264401        1.08187995178508
C           -4.17547542451532       -3.73601400309785        0.82683432507882
N           -2.97406667228341       -1.27766904809814        0.27604817148040
C           -0.18667754871710       -1.09147892270164        0.35525458359656
C            1.18459996187560       -0.97958237088219        0.43177225498124
C            1.80453844637426        0.25712282579627        0.26100481783601
N            3.18896154481813        0.35078791349922        0.36613442233959
C            3.95223723885032        1.35211603120772        0.97641811045194
C            3.57357894254596        2.41822306004891        1.77097360977198
C            4.57616879018511        3.22777844264170        2.28263662199744
C            5.91731254531386        2.97472872022342        2.02664390111260
C            6.31190604434332        1.88177427791435        1.27128582977814
C            5.31852794167158        1.06946641345351        0.75886672139685
N            5.35969231328211       -0.10366294818858        0.03442342341512
C            6.18134345431752       -1.03598199048822       -0.56105388830342
C            7.55235439364577       -1.15329003585920       -0.69211111858484
C            8.02760471578369       -2.26041376401625       -1.37137216538692
C            7.16254224269075       -3.21651516262177       -1.90124890471997
C            5.79109764144510       -3.10608831364911       -1.77641212154563
C            5.28814032266422       -2.00347227147682       -1.09966179961145
N            3.97265664427476       -1.66377433462617       -0.83599233543169
C            4.06959788406531       -0.54815315592936       -0.17503237017451
H           -0.97749233417899        2.11976642764554       -0.34936390454818
H           -3.59073449776277        3.31215789331153       -0.89437461033045
H           -4.96735310354521        5.29956055259840       -1.42138761485825
H           -7.42828166230104        5.12626294718529       -1.41144208123137
H           -8.51279961375797        2.97606690172420       -0.87604704925245
H           -7.12417782789475        0.99378498395983       -0.34992021014378
H           -6.91662080089210       -1.88235850351063        0.13202986689713
H           -8.00968582468765       -4.05679435465898        0.58984401837262
H           -6.63835525682079       -6.01542372295689        1.19765300669181
H           -4.18493506659657       -5.80667744012127        1.34747664269665
H           -3.10408601851426       -3.62737764883331        0.88905966723597
H           -0.66953222707509       -2.04465743372032        0.49768300497324
H            1.80081801474762       -1.84453513113277        0.61917433825959
H            2.53777143887993        2.61513379903031        1.99652188465758
H            4.30234734235349        4.07039520797095        2.89765158643005
H            6.66876218864658        3.63035619166419        2.43751099330511
H            7.35306070788155        1.66511867871153        1.09691410972302
H            8.22331124072964       -0.41403227584734       -0.28346723426372
H            9.09266740070022       -2.38664187353511       -1.49409605018203
H            7.57826592398264       -4.06516106993822       -2.42387632936244
H            5.12151870607365       -3.84436082307308       -2.18800961093678

          :  Hamiltonian                  GFN2-xTB          :
         :: gradient norm              0.000170023671 Eh/a0 ::
         :: HOMO-LUMO gap              1.976669227892 eV    ::
         :: SCC energy              -108.119762499298 Eh    ::
         :: -> dispersion             -0.085434998494 Eh    ::
         :: -> Gsolv                  -0.052437997992 Eh    ::
         :: repulsion energy           1.914052475089 Eh    ::

    * Orbital Energies and Occupations

         #    Occupation            Energy/Eh            Energy/eV
      -------------------------------------------------------------
         1        2.0000           -0.7244663             -19.7137
       ...           ...                  ...                  ...
        86        2.0000           -0.4358370             -11.8597
        87        2.0000           -0.4334899             -11.7959
        88        2.0000           -0.4269092             -11.6168
        89        2.0000           -0.4194485             -11.4138
        90        2.0000           -0.4192452             -11.4082
        91        2.0000           -0.4170205             -11.3477
        92        2.0000           -0.4166583             -11.3378
        93        2.0000           -0.4151239             -11.2961
        94        2.0000           -0.4000529             -10.8860
        95        2.0000           -0.3928945             -10.6912
        96        2.0000           -0.3894419             -10.5973
        97        2.0000           -0.3878925             -10.5551
        98        2.0000           -0.3811046             -10.3704 (HOMO)
        99                         -0.3084633              -8.3937 (LUMO)
       100                         -0.2999564              -8.1622
       101                         -0.2915366              -7.9331
       102                         -0.2636280              -7.1737
       103                         -0.2545809              -6.9275
       104                         -0.2445278              -6.6539
       105                         -0.2366011              -6.4382
       106                         -0.2363469              -6.4313
       107                         -0.2349765              -6.3940
       108                         -0.2301912              -6.2638
       109                         -0.2201160              -5.9897
       ...                                ...                  ...
       189                          1.1410681              31.0500
      -------------------------------------------------------------
                  HL-Gap            0.0726413 Eh            1.9767 eV

     #   Z          covCN         q      C6AA      α(0)
     1   7 N        0.911    -0.252    26.553     7.453
     2   6 C        1.912     0.121    28.118     8.564
     3   6 C        2.971     0.003    27.960     8.673
     4   6 C        2.935    -0.017    28.433     8.745
     5   6 C        2.981    -0.006    28.156     8.704
     6   6 C        2.983     0.212    23.514     7.954
     7   7 N        1.844    -0.319    29.127     7.998
     8   6 C        2.978     0.214    23.485     7.949
     9   6 C        2.983    -0.009    28.244     8.718
    10   6 C        2.923    -0.025    28.626     8.774
    11   6 C        2.918    -0.026    28.659     8.779
    12   6 C        2.920    -0.020    28.516     8.757
    13   6 C        2.918    -0.026    28.654     8.778
    14   6 C        2.923    -0.025    28.622     8.773
    15   7 N        1.844    -0.312    28.930     7.971
    16   6 C        2.979     0.214    23.494     7.951
    17   6 C        2.983    -0.009    28.241     8.717
    18   6 C        2.923    -0.025    28.620     8.773
    19   6 C        2.918    -0.026    28.656     8.778
    20   6 C        2.920    -0.020    28.518     8.757
    21   6 C        2.918    -0.026    28.660     8.779
    22   6 C        2.923    -0.025    28.634     8.775
    23   7 N        1.844    -0.316    29.040     7.986
    24   6 C        2.922    -0.016    28.408     8.741
    25   6 C        2.920    -0.037    28.928     8.820
    26   6 C        2.916     0.081    26.201     8.394
    27   7 N        2.794    -0.067    22.540     7.051
    28   6 C        3.075     0.040    27.023     8.523
    29   6 C        2.911    -0.044    29.086     8.844
    30   6 C        2.924    -0.032    28.797     8.800
    31   6 C        2.924    -0.033    28.811     8.802
    32   6 C        2.910    -0.044    29.100     8.846
    33   6 C        3.032     0.043    27.015     8.525
    34   7 N        2.894    -0.061    22.411     7.031
    35   6 C        3.070     0.029    27.278     8.564
    36   6 C        2.907    -0.050    29.248     8.868
    37   6 C        2.926    -0.040    28.984     8.829
    38   6 C        2.922    -0.039    28.973     8.827
    39   6 C        2.910    -0.048    29.184     8.858
    40   6 C        3.240     0.069    25.590     8.202
    41   7 N        1.862    -0.349    29.939     8.110
    42   6 C        3.358     0.210    21.085     7.213
    43   1 H        0.926     0.070     2.082     2.257
    44   1 H        0.926     0.049     2.334     2.389
    45   1 H        0.926     0.049     2.329     2.386
    46   1 H        0.926     0.053     2.288     2.366
    47   1 H        0.926     0.051     2.313     2.378
    48   1 H        0.926     0.053     2.277     2.359
    49   1 H        0.926     0.053     2.284     2.363
    50   1 H        0.926     0.050     2.319     2.382
    51   1 H        0.926     0.052     2.292     2.367
    52   1 H        0.926     0.050     2.322     2.383
    53   1 H        0.926     0.052     2.300     2.371
    54   1 H        0.926     0.077     2.006     2.215
    55   1 H        0.926     0.071     2.074     2.252
    56   1 H        0.926     0.041     2.440     2.442
    57   1 H        0.926     0.058     2.226     2.333
    58   1 H        0.926     0.059     2.205     2.322
    59   1 H        0.926     0.055     2.257     2.349
    60   1 H        0.926     0.038     2.471     2.458
    61   1 H        0.926     0.043     2.409     2.427
    62   1 H        0.926     0.042     2.422     2.434
    63   1 H        0.926     0.044     2.394     2.420

molecular dipole:
                 x           y           z       tot (Debye)
 q only:       -0.728      -0.234       1.036
   full:       -0.616      -0.381       1.212       3.589

 projected vibrational frequencies (cm⁻¹)
eigval :       -0.00    -0.00    -0.00    -0.00     0.00     0.00
eigval :       10.84    16.25    21.86    30.87    38.94    41.97
eigval :       47.62    53.24    57.49    80.22    88.55    91.79
eigval :       97.86   110.61   125.25   134.43   157.51   160.11
eigval :      173.13   181.83   192.16   209.12   225.81   257.63
eigval :      261.33   302.80   306.98   315.74   325.38   356.47
eigval :      364.58   365.40   369.93   384.71   401.37   405.38
eigval :      408.84   417.78   427.47   431.02   442.96   469.66
eigval :      496.64   531.67   535.34   545.08   546.19   557.20
eigval :      584.15   586.57   588.18   597.67   603.94   612.22
eigval :      628.59   634.67   643.69   651.60   657.16   662.86
eigval :      673.54   675.39   677.47   698.20   699.84   727.76
eigval :      751.07   765.95   768.97   772.33   775.46   795.22
eigval :      802.33   837.35   846.59   863.03   867.68   872.56
eigval :      873.56   875.66   885.62   895.76   898.13   906.03
eigval :      910.43   913.09   916.41   919.21   920.72   928.26
eigval :      928.38   931.37   932.09   934.27   958.35   983.18
eigval :      988.76  1048.02  1055.27  1067.12  1073.14  1073.55
eigval :     1077.13  1086.65  1093.11  1106.48  1110.55  1129.13
eigval :     1135.94  1153.91  1164.30  1165.05  1173.25  1175.10
eigval :     1176.53  1181.20  1185.09  1197.99  1205.03  1208.74
eigval :     1219.52  1228.19  1243.98  1251.79  1265.99  1266.23
eigval :     1267.83  1286.26  1324.35  1326.62  1328.38  1334.67
eigval :     1347.36  1355.43  1367.35  1370.21  1384.29  1388.83
eigval :     1408.62  1414.92  1427.34  1429.55  1450.44  1461.52
eigval :     1470.34  1472.14  1476.57  1493.73  1499.66  1513.34
eigval :     1547.18  1571.50  1577.33  1579.97  1581.94  1590.93
eigval :     1591.31  1592.40  1600.88  1606.69  1648.59  2360.16
eigval :     3079.29  3079.70  3081.32  3084.49  3084.68  3088.19
eigval :     3093.38  3093.79  3096.20  3098.19  3101.08  3104.04
eigval :     3105.38  3105.88  3106.03  3107.55  3108.56  3109.10
eigval :     3109.83  3115.41  3119.82

   temp. (K)  partition function   enthalpy   heat capacity  entropy
                                   cal/mol     cal/K/mol   cal/K/mol   J/K/mol
 298.15  VIB  0.461E+15            18774.909    117.338    117.332
         ROT  0.716E+08              888.752      2.981     38.923
         INT  0.330E+23            19663.662    120.318    156.255
         TR   0.121E+29             1481.254      4.968     44.722
         TOT                       21144.9155   125.2866   200.9777   840.8906

       T/K    H(0)-H(T)+PV         H(T)/Eh          T*S/Eh         G(T)/Eh
   ------------------------------------------------------------------------
    298.15    0.336966E-01    0.497155E+00    0.954910E-01    0.401664E+00
   ------------------------------------------------------------------------

         :::::::::::::::::::::::::::::::::::::::::::::::::::::
         ::                  THERMODYNAMIC                  ::
         :::::::::::::::::::::::::::::::::::::::::::::::::::::
         :: total free energy        -105.804045746414 Eh   ::
         ::.................................................::
         :: total energy             -106.205710022959 Eh   ::
         :: zero point energy           0.463458690676 Eh   ::
         :: G(RRHO) w/o ZPVE           -0.061794414131 Eh   ::
         :: G(RRHO) contrib.            0.401664276545 Eh   ::
         :::::::::::::::::::::::::::::::::::::::::::::::::::::

           -------------------------------------------------
          | TOTAL ENERGY             -106.205710022959 Eh   |
          | TOTAL ENTHALPY           -105.708554764523 Eh   |
          | TOTAL FREE ENERGY        -105.804045746414 Eh   |
          | GRADIENT NORM               0.000170016221 Eh/α |
          | HOMO-LUMO GAP               1.976669829005 eV   |
           -------------------------------------------------

 * finished run on 2025/09/04 at 17:53:24.226
