   * xtb version 6.7.1 (edcfbbe) compiled by 'albert@albert-system' on 2024-07-22

   ID    Z sym.   atoms
    1    7 N      1, 7, 15, 23, 27, 34, 41
    2    6 C      2-6, 8-14, 16-22, 24-26, 28-33, 35-40, 42
    3    1 H      43-63

          program call               : xtb data2507/toluene/BzITz/BzITz_toluene_T1_crest.xyz --gfn 2 --uhf 2 --gbsa toluene --ohess vtight --parallel 40 --molden --ceasefiles --namespace data2507/toluene/BzITz/BzITz_toluene_T1_finalOpt
      * Solvation model:               GBSA
        Solvent                        toluene
        Solvent mass                       9.2140E+01 g/mol
          :  Hamiltonian                  GFN2-xTB          :
 * total energy  :  -106.1268898 Eh     change       -0.6193190E-08 Eh
 * total energy  :  -106.1269550 Eh     change       -0.6518901E-04 Eh
 * total energy  :  -106.1269766 Eh     change       -0.2160217E-04 Eh
 * total energy  :  -106.1269810 Eh     change       -0.4417822E-05 Eh
 * total energy  :  -106.1269899 Eh     change       -0.8850337E-05 Eh
 * total energy  :  -106.1269982 Eh     change       -0.8323409E-05 Eh
 * total energy  :  -106.1270038 Eh     change       -0.5660430E-05 Eh
 * total energy  :  -106.1270103 Eh     change       -0.6423344E-05 Eh
 * total energy  :  -106.1270142 Eh     change       -0.3944569E-05 Eh
 * total energy  :  -106.1270169 Eh     change       -0.2735244E-05 Eh
 * total energy  :  -106.1270420 Eh     change       -0.4160228E-06 Eh
 * total energy  :  -106.1270423 Eh     change       -0.3104868E-06 Eh
 * total energy  :  -106.1270425 Eh     change       -0.2055538E-06 Eh
 * total energy  :  -106.1270427 Eh     change       -0.2050927E-06 Eh
 * total energy  :  -106.1270430 Eh     change       -0.2218331E-06 Eh
 * total energy  :  -106.1270432 Eh     change       -0.1992514E-06 Eh
 * total energy  :  -106.1270433 Eh     change       -0.1707382E-06 Eh
 * total energy  :  -106.1270435 Eh     change       -0.1313153E-06 Eh
 * total energy  :  -106.1270436 Eh     change       -0.8836754E-07 Eh
   *** GEOMETRY OPTIMIZATION CONVERGED AFTER 43 ITERATIONS ***

 final structure:
================
63
 xtb: 6.7.1 (edcfbbe)
N            2.11661259669642        3.52574894033744       -0.85955031861545
C            1.63242363701731        2.54517266141084       -0.50598262846954
C            1.02391708586494        1.33459436176333       -0.11873571141596
C           -0.35197082589794        1.22491050755483       -0.18494869812941
C           -0.99440592299298        0.00382928533438        0.08884559050644
C           -2.40640112523577       -0.09472056444056        0.03450922622555
N           -3.15258986228352        0.99433573431139       -0.27817080481296
C           -4.45504948392798        0.87897259078830       -0.30569644590648
C           -5.26459419622932        2.05132750432109       -0.62243950816964
C           -4.65515213236790        3.26996986285262       -0.92584085619508
C           -5.42671446466523        4.37591721248334       -1.22213939535839
C           -6.81094351961004        4.28173683509419       -1.21951281464757
C           -7.42274574996550        3.07423303706487       -0.91852277090819
C           -6.65727334445348        1.96347141128479       -0.62181544087001
N           -5.09270794186815       -0.28063731974385       -0.05566215020149
C           -4.32051963096266       -1.34200059447343        0.24320715380853
C           -4.98054782730922       -2.61388785030861        0.52043688820519
C           -4.22929464357001       -3.73667903537212        0.87171946567658
C           -4.85890731802556       -4.93666311572905        1.13583982643438
C           -6.24050648482161       -5.03276304978153        1.05234907349190
C           -6.99256839980943       -3.92142496486779        0.70263016209751
C           -6.36951707671314       -2.71755261985854        0.43712146426479
N           -3.01557251792680       -1.27651922377836        0.30233788167059
C           -0.18688350281369       -1.12352958188344        0.39815921470633
C            1.17541281511815       -1.01472269428985        0.47237817221138
C            1.80881056855824        0.21232965548016        0.24765027114351
N            3.20317068203581        0.31634999368020        0.34825780425693
C            3.93298409474065        1.28459215934162        1.02623877237045
C            3.51590626052114        2.32389571412548        1.84404908519194
C            4.49195353257898        3.12534069587894        2.40787939735680
C            5.84670216782394        2.89770509031391        2.17836418182897
C            6.28012819749859        1.84240315542996        1.39227381602071
C            5.31278915598426        1.03421219091551        0.82583469116228
N            5.38030340693388       -0.09759769186172        0.04398348235978
C            6.22431309444140       -0.99503928283936       -0.57939417229295
C            7.59434123552661       -1.10540791268331       -0.67759761919662
C            8.09073597767663       -2.17844923945242       -1.40593560998547
C            7.24408262359639       -3.10442121102430       -2.01340406963189
C            5.86982933970860       -3.00166235030524       -1.92193988567891
C            5.34397697134017       -1.93450366953911       -1.19763648806647
N            4.03126351071479       -1.61465369111592       -0.95865790430810
C            4.09769284964739       -0.52790135626848       -0.22749839169920
H           -0.95024895068868        2.07779224997982       -0.46726694784939
H           -3.57735660365411        3.32835779458186       -0.92467186120392
H           -4.94890330212962        5.31572947248928       -1.45648924852174
H           -7.41116129337467        5.14877133268651       -1.45162847738747
H           -8.50012489741601        2.99991787159748       -0.91581030920044
H           -7.11747678317416        1.01666868006827       -0.38456795597456
H           -3.15564256758263       -3.64584267578426        0.93308979313848
H           -4.27244858047367       -5.80178055119297        1.40779267783430
H           -6.72972540384335       -5.97280413651812        1.25976484317510
H           -8.06798683575492       -3.99493911375141        0.63656969337349
H           -6.93997796355332       -1.84368599391302        0.16250998422203
H           -0.67715751667577       -2.06610438650340        0.57903152282246
H            1.78639931934921       -1.87197226947967        0.71015525159024
H            2.46984243836649        2.49741634540004        2.03861359303888
H            4.19400680046123        3.94359533680989        3.04405404875950
H            6.57583174228075        3.54953020531689        2.63301703814727
H            7.32902943848790        1.65394722580162        1.23294154279669
H            8.25535568674072       -0.39231966692364       -0.21135836594768
H            9.15894150485048       -2.29654264646673       -1.50335473132508
H            7.67670450943916       -3.92202840919903       -2.56961764137529
H            5.21097806756984       -3.71436172584513       -2.39084963504368

          :  Hamiltonian                  GFN2-xTB          :
         :: gradient norm              0.000044152925 Eh/a0 ::
         :: HOMO-LUMO gap              0.307573837813 eV    ::
         :: SCC energy              -108.033302119064 Eh    ::
         :: -> dispersion             -0.085216406026 Eh    ::
         :: -> Gsolv                  -0.053930417282 Eh    ::
         :: repulsion energy           1.906258558935 Eh    ::

    * Orbital Energies and Occupations

         #    Occupation            Energy/Eh            Energy/eV
      -------------------------------------------------------------
         1        2.0000           -0.7328690             -19.9424
       ...           ...                  ...                  ...
        87        2.0000           -0.4288768             -11.6703
        88        2.0000           -0.4266955             -11.6110
        89        2.0000           -0.4171807             -11.3521
        90        2.0000           -0.4168311             -11.3426
        91        2.0000           -0.4165776             -11.3357
        92        2.0000           -0.4137897             -11.2598
        93        2.0000           -0.4125500             -11.2261
        94        2.0000           -0.4092749             -11.1369
        95        2.0000           -0.4025034             -10.9527
        96        1.8271           -0.3881447             -10.5620
        97        1.7154           -0.3875334             -10.5453
        98        1.4576           -0.3864963             -10.5171
        99        0.9974           -0.3034085              -8.2562 (HOMO)
       100        0.0026           -0.2921056              -7.9486 (LUMO)
       101                         -0.2776514              -7.5553
       102                         -0.2628661              -7.1529
       103                         -0.2555665              -6.9543
       104                         -0.2526524              -6.8750
       105                         -0.2382850              -6.4841
       106                         -0.2338284              -6.3628
       107                         -0.2337351              -6.3603
       108                         -0.2215564              -6.0289
       109                         -0.2195659              -5.9747
       110                         -0.2133078              -5.8044
       ...                                ...                  ...
       189                          1.1478215              31.2338
      -------------------------------------------------------------
                  HL-Gap            0.0113029 Eh            0.3076 eV

     #   Z          covCN         q      C6AA      α(0)
     1   7 N        0.911    -0.278    27.168     7.538
     2   6 C        1.914     0.118    28.201     8.576
     3   6 C        2.967    -0.001    28.044     8.686
     4   6 C        2.933    -0.027    28.666     8.781
     5   6 C        2.975    -0.014    28.353     8.734
     6   6 C        2.931     0.164    24.465     8.112
     7   7 N        1.846    -0.275    27.989     7.841
     8   6 C        2.929     0.205    23.666     7.978
     9   6 C        2.983    -0.006    28.170     8.706
    10   6 C        2.923    -0.027    28.677     8.782
    11   6 C        2.918    -0.027    28.677     8.782
    12   6 C        2.920    -0.024    28.603     8.770
    13   6 C        2.918    -0.027    28.675     8.781
    14   6 C        2.923    -0.027    28.665     8.780
    15   7 N        1.845    -0.308    28.832     7.958
    16   6 C        2.928     0.205    23.667     7.978
    17   6 C        2.983    -0.006    28.166     8.706
    18   6 C        2.923    -0.027    28.681     8.783
    19   6 C        2.918    -0.027    28.677     8.781
    20   6 C        2.920    -0.024    28.602     8.770
    21   6 C        2.918    -0.027    28.675     8.781
    22   6 C        2.923    -0.026    28.660     8.779
    23   7 N        1.846    -0.270    27.865     7.823
    24   6 C        2.919    -0.037    28.931     8.820
    25   6 C        2.913    -0.037    28.923     8.819
    26   6 C        2.916     0.041    27.072     8.532
    27   7 N        2.795    -0.042    22.052     6.974
    28   6 C        3.094     0.043    26.931     8.505
    29   6 C        2.910    -0.038    28.951     8.823
    30   6 C        2.923    -0.029    28.724     8.789
    31   6 C        2.925    -0.027    28.682     8.783
    32   6 C        2.909    -0.042    29.048     8.838
    33   6 C        3.037     0.043    26.991     8.521
    34   7 N        2.895    -0.056    22.315     7.016
    35   6 C        3.064     0.034    27.180     8.549
    36   6 C        2.906    -0.044    29.102     8.846
    37   6 C        2.926    -0.029    28.728     8.790
    38   6 C        2.920    -0.035    28.863     8.810
    39   6 C        2.909    -0.039    28.963     8.825
    40   6 C        3.230     0.074    25.581     8.213
    41   7 N        1.862    -0.322    29.209     8.011
    42   6 C        3.367     0.208    20.949     7.167
    43   1 H        0.926     0.051     2.309     2.376
    44   1 H        0.926     0.044     2.399     2.422
    45   1 H        0.926     0.047     2.358     2.401
    46   1 H        0.926     0.049     2.326     2.385
    47   1 H        0.926     0.048     2.343     2.394
    48   1 H        0.926     0.050     2.323     2.383
    49   1 H        0.926     0.047     2.360     2.402
    50   1 H        0.926     0.048     2.348     2.396
    51   1 H        0.926     0.049     2.327     2.386
    52   1 H        0.926     0.048     2.348     2.396
    53   1 H        0.926     0.049     2.329     2.387
    54   1 H        0.926     0.054     2.270     2.356
    55   1 H        0.926     0.051     2.310     2.377
    56   1 H        0.926     0.047     2.353     2.399
    57   1 H        0.926     0.063     2.162     2.300
    58   1 H        0.926     0.066     2.124     2.279
    59   1 H        0.926     0.062     2.176     2.307
    60   1 H        0.926     0.051     2.312     2.378
    61   1 H        0.926     0.057     2.238     2.339
    62   1 H        0.926     0.054     2.271     2.357
    63   1 H        0.926     0.056     2.247     2.344

molecular dipole:
                 x           y           z       tot (Debye)
 q only:        1.371      -0.571       1.022
   full:        1.410      -0.714       1.200       5.045

 projected vibrational frequencies (cm⁻¹)
eigval :       -0.00    -0.00    -0.00    -0.00     0.00     0.00
eigval :        9.36    16.44    21.90    32.79    40.33    42.45
eigval :       47.78    50.75    54.92    76.40    82.72    93.96
eigval :       98.13   114.36   122.44   130.18   150.61   156.34
eigval :      171.47   188.27   196.11   216.62   218.80   248.93
eigval :      252.41   294.57   297.20   313.25   318.44   361.99
eigval :      366.60   367.19   369.19   375.82   382.24   393.81
eigval :      405.69   407.10   408.80   417.77   431.72   446.90
eigval :      488.17   524.99   530.65   532.67   534.33   540.79
eigval :      555.18   563.51   582.84   587.32   587.93   594.39
eigval :      601.11   605.27   616.39   631.95   649.40   652.58
eigval :      655.77   664.10   669.18   678.10   685.90   697.03
eigval :      727.55   730.63   764.60   765.07   765.82   770.71
eigval :      791.39   801.66   805.16   852.92   855.09   864.52
eigval :      870.31   871.08   872.09   891.53   892.79   894.07
eigval :      898.30   902.37   904.25   905.67   909.67   918.40
eigval :      921.86   927.18   928.43   929.71   930.26   948.89
eigval :      960.27   983.50   991.03  1049.84  1056.76  1062.73
eigval :     1072.61  1073.26  1076.21  1089.74  1106.63  1108.08
eigval :     1122.49  1126.90  1145.71  1157.35  1158.99  1168.93
eigval :     1174.13  1175.84  1179.05  1180.12  1184.13  1191.03
eigval :     1208.81  1215.07  1238.48  1244.10  1257.65  1263.93
eigval :     1264.80  1270.12  1282.35  1291.62  1321.72  1327.91
eigval :     1328.55  1338.13  1346.21  1354.87  1372.97  1378.06
eigval :     1384.03  1399.59  1407.24  1419.47  1425.77  1433.71
eigval :     1436.50  1453.19  1460.76  1468.44  1476.89  1479.47
eigval :     1488.71  1518.64  1545.09  1572.50  1573.04  1573.66
eigval :     1584.27  1585.12  1589.92  1596.54  1623.27  2341.51
eigval :     3077.55  3077.89  3081.28  3081.54  3089.58  3090.37
eigval :     3091.13  3094.92  3095.48  3096.16  3097.82  3098.26
eigval :     3099.56  3099.64  3100.91  3104.14  3104.85  3112.38
eigval :     3112.44  3112.64  3117.40

   temp. (K)  partition function   enthalpy   heat capacity  entropy
                                   cal/mol     cal/K/mol   cal/K/mol   J/K/mol
 298.15  VIB  0.780E+15            19127.356    119.674    119.428
         ROT  0.719E+08              888.752      2.981     38.932
         INT  0.560E+23            20016.108    122.655    158.360
         TR   0.121E+29             1481.254      4.968     44.722
         TOT                       21497.3622   127.6232   203.0819   849.6949

       T/K    H(0)-H(T)+PV         H(T)/Eh          T*S/Eh         G(T)/Eh
   ------------------------------------------------------------------------
    298.15    0.342582E-01    0.492644E+00    0.964908E-01    0.396154E+00
   ------------------------------------------------------------------------

         :::::::::::::::::::::::::::::::::::::::::::::::::::::
         ::                  THERMODYNAMIC                  ::
         :::::::::::::::::::::::::::::::::::::::::::::::::::::
         :: total free energy        -105.730889980218 Eh   ::
         ::.................................................::
         :: total energy             -106.127043558820 Eh   ::
         :: zero point energy           0.458386137172 Eh   ::
         :: G(RRHO) w/o ZPVE           -0.062232558570 Eh   ::
         :: G(RRHO) contrib.            0.396153578602 Eh   ::
         :::::::::::::::::::::::::::::::::::::::::::::::::::::

           -------------------------------------------------
          | TOTAL ENERGY             -106.127043558820 Eh   |
          | TOTAL ENTHALPY           -105.634399194422 Eh   |
          | TOTAL FREE ENERGY        -105.730889980218 Eh   |
          | GRADIENT NORM               0.000044391593 Eh/α |
          | HOMO-LUMO GAP               0.307567914233 eV   |
           -------------------------------------------------

 * finished run on 2025/09/04 at 17:57:58.712
