   * xtb version 6.7.1 (edcfbbe) compiled by 'albert@albert-system' on 2024-07-22

   ID    Z sym.   atoms
    1    7 N      1, 7, 15, 23, 27, 34, 41
    2    6 C      2-6, 8-14, 16-22, 24-26, 28-33, 35-40, 42
    3    1 H      43-63

          program call               : xtb data2507/toluene/BzITz/BzITz_toluene_S0_finalOpt.xtbopt.xyz --gfn 2 --uhf 2 --gbsa toluene --ohess vtight --parallel 40 --molden --ceasefiles --namespace data2507/toluene/BzITz/BzITz_toluene_T1_preOpt
      * Solvation model:               GBSA
        Solvent                        toluene
        Solvent mass                       9.2140E+01 g/mol
          :  Hamiltonian                  GFN2-xTB          :
 * total energy  :  -106.1217619 Eh     change       -0.5215240E-07 Eh
 * total energy  :  -106.1248823 Eh     change       -0.3120392E-02 Eh
 * total energy  :  -106.1266013 Eh     change       -0.1719012E-02 Eh
 * total energy  :  -106.1267552 Eh     change       -0.1539549E-03 Eh
 * total energy  :  -106.1268760 Eh     change       -0.1207619E-03 Eh
 * total energy  :  -106.1269186 Eh     change       -0.4262934E-04 Eh
 * total energy  :  -106.1269392 Eh     change       -0.2053182E-04 Eh
 * total energy  :  -106.1269608 Eh     change       -0.2160717E-04 Eh
 * total energy  :  -106.1269778 Eh     change       -0.1699451E-04 Eh
 * total energy  :  -106.1269926 Eh     change       -0.1487944E-04 Eh
 * total energy  :  -106.1270447 Eh     change       -0.9770198E-06 Eh
 * total energy  :  -106.1270453 Eh     change       -0.5425221E-06 Eh
 * total energy  :  -106.1270455 Eh     change       -0.2788945E-06 Eh
 * total energy  :  -106.1270457 Eh     change       -0.1674751E-06 Eh
 * total energy  :  -106.1270459 Eh     change       -0.1657778E-06 Eh
 * total energy  :  -106.1270460 Eh     change       -0.1402035E-06 Eh
 * total energy  :  -106.1270461 Eh     change       -0.1306127E-06 Eh
 * total energy  :  -106.1270463 Eh     change       -0.1134447E-06 Eh
 * total energy  :  -106.1270463 Eh     change       -0.3802541E-09 Eh
   *** GEOMETRY OPTIMIZATION CONVERGED AFTER 44 ITERATIONS ***

 final structure:
================
63
 xtb: 6.7.1 (edcfbbe)
N            2.11298218134676        3.51599900682706       -0.88876964087545
C            1.63139855156326        2.53714923045725       -0.52703869468867
C            1.02536873191731        1.32857633895616       -0.12965580367323
C           -0.35050431814675        1.21705633085136       -0.19195841393644
C           -0.99117590723392       -0.00283097914323        0.09115724185297
C           -2.40322454527300       -0.10225159192506        0.03967199391338
N           -3.14966453098356        0.98547915949066       -0.27700116613602
C           -4.45214919586646        0.87028855443266       -0.30274368608053
C           -5.26159392992360        2.04214903931238       -0.62155083871457
C           -4.65185430344326        3.26061357012931       -0.92511910477956
C           -5.42309188765838        4.36658842342976       -1.22209673612563
C           -6.80733208458656        4.27256827681228       -1.22014445766290
C           -7.41942827115650        3.06517483130145       -0.91930902436595
C           -6.65426941532283        1.95439825341873       -0.62180534746061
N           -5.08959543303271       -0.28847823236724       -0.04846369333608
C           -4.31721548567787       -1.34842124471843        0.25502508284216
C           -4.97740444203205       -2.61908896875903        0.53747130382212
C           -6.36610799030016       -2.72371930886854        0.45072236725923
C           -6.98954796524063       -3.92633257496853        0.72093447565789
C           -6.23814648941054       -5.03544766430235        1.07903518451282
C           -4.85682444697750       -4.93839520167104        1.16596191215493
C           -4.22680110782448       -3.73969114994630        0.89699442924467
N           -3.01224046553589       -1.28262889235232        0.31398486829078
C           -0.18190311487017       -1.12730260833784        0.40632543591276
C            1.18047416811668       -1.01657179045009        0.47701560106391
C            1.81218176447294        0.20951168597547        0.24247540602853
N            3.20662758960153        0.31609605838876        0.33870220151804
C            3.93627885180935        1.29186116360851        1.00600792749632
C            3.51933434102052        2.33558724841098        1.81824217700938
C            4.49519918091152        3.14395250835712        2.37240277123275
C            5.84967782864102        2.91906174469911        2.13861523111120
C            6.28313919873277        1.85969364082598        1.35803664827641
C            5.31598846141755        1.04435834269106        0.80159331814204
N            5.38372165784261       -0.09324251163017        0.02825165425820
C            6.22803908179787       -0.99356809348695       -0.59045940461745
C            7.59800511842491       -1.10000601757410       -0.69376850527585
C            8.09499421258158       -2.17874801902652       -1.41322137102493
C            7.24892827091627       -3.11389839952249       -2.00732659403413
C            5.87470713916634       -3.01463341832361       -1.91140447774017
C            5.34825769841198       -1.94186931596228       -1.19584524179060
N            4.03549306400161       -1.62395988895136       -0.95445402990060
C            4.10138022502007       -0.53016060508957       -0.23382840040804
H           -0.95028659909578        2.06739768762802       -0.47868680163705
H           -3.57405664664397        3.31891479614733       -0.92323982773863
H           -4.94501513150116        5.30628030044602       -1.45639552849167
H           -7.40731570180476        5.13966286120266       -1.45263257888402
H           -8.49681814445163        2.99100469884824       -0.91717343505691
H           -7.11473069973952        1.00773658457121       -0.38448692516512
H           -6.93604882508560       -1.85158689235784        0.16959187109294
H           -8.06473185700797       -4.00060109970336        0.65193503887756
H           -6.72766536911610       -5.97450067695321        1.29019827151011
H           -4.27087915328988       -5.80175936172191        1.44450842453050
H           -3.15335801079413       -3.64819734718037        0.96101927565288
H           -0.67081943294481       -2.06910603256202        0.59474003393919
H            1.79290046013486       -1.87150732686382        0.71935418079820
H            2.47355764242671        2.50701440905482        2.01620998054276
H            4.19733213519861        3.96544738746627        3.00441139840545
H            6.57863857050800        3.57637292867677        2.58556981244377
H            7.33195520762287        1.67347186550722        1.19556474528879
H            8.25848456003592       -0.37984858111833       -0.23775340134633
H            9.16317965374811       -2.29404823094332       -1.51423406188057
H            7.68198812482079       -3.93584663480163       -2.55676676486364
H            5.21637057768011       -3.73432564806551       -2.37025032957545

          :  Hamiltonian                  GFN2-xTB          :
         :: gradient norm              0.000131573091 Eh/a0 ::
         :: HOMO-LUMO gap              0.307478725913 eV    ::
         :: SCC energy              -108.033305643916 Eh    ::
         :: -> dispersion             -0.085222520021 Eh    ::
         :: -> Gsolv                  -0.053932778840 Eh    ::
         :: repulsion energy           1.906259431664 Eh    ::

    * Orbital Energies and Occupations

         #    Occupation            Energy/Eh            Energy/eV
      -------------------------------------------------------------
         1        2.0000           -0.7328685             -19.9424
       ...           ...                  ...                  ...
        87        2.0000           -0.4288744             -11.6703
        88        2.0000           -0.4267004             -11.6111
        89        2.0000           -0.4171776             -11.3520
        90        2.0000           -0.4168300             -11.3425
        91        2.0000           -0.4165738             -11.3356
        92        2.0000           -0.4137885             -11.2598
        93        2.0000           -0.4125491             -11.2260
        94        2.0000           -0.4092767             -11.1370
        95        2.0000           -0.4024968             -10.9525
        96        1.8274           -0.3881465             -10.5620
        97        1.7153           -0.3875329             -10.5453
        98        1.4574           -0.3864954             -10.5171
        99        0.9974           -0.3034058              -8.2561 (HOMO)
       100        0.0026           -0.2921056              -7.9486 (LUMO)
       101                         -0.2776445              -7.5551
       102                         -0.2628689              -7.1530
       103                         -0.2555675              -6.9543
       104                         -0.2526494              -6.8749
       105                         -0.2382942              -6.4843
       106                         -0.2338327              -6.3629
       107                         -0.2337288              -6.3601
       108                         -0.2215574              -6.0289
       109                         -0.2195604              -5.9745
       110                         -0.2132930              -5.8040
       ...                                ...                  ...
       189                          1.1478987              31.2359
      -------------------------------------------------------------
                  HL-Gap            0.0113002 Eh            0.3075 eV

     #   Z          covCN         q      C6AA      α(0)
     1   7 N        0.911    -0.278    27.168     7.539
     2   6 C        1.914     0.118    28.201     8.576
     3   6 C        2.967    -0.001    28.044     8.686
     4   6 C        2.934    -0.027    28.666     8.781
     5   6 C        2.975    -0.014    28.353     8.734
     6   6 C        2.931     0.164    24.465     8.112
     7   7 N        1.846    -0.275    27.988     7.841
     8   6 C        2.929     0.205    23.666     7.978
     9   6 C        2.983    -0.006    28.170     8.706
    10   6 C        2.923    -0.027    28.677     8.782
    11   6 C        2.918    -0.027    28.677     8.782
    12   6 C        2.920    -0.024    28.603     8.770
    13   6 C        2.918    -0.027    28.675     8.781
    14   6 C        2.923    -0.027    28.665     8.780
    15   7 N        1.845    -0.308    28.833     7.958
    16   6 C        2.929     0.205    23.667     7.978
    17   6 C        2.983    -0.006    28.166     8.706
    18   6 C        2.923    -0.026    28.660     8.779
    19   6 C        2.918    -0.027    28.675     8.781
    20   6 C        2.920    -0.024    28.602     8.770
    21   6 C        2.918    -0.027    28.677     8.781
    22   6 C        2.923    -0.027    28.681     8.783
    23   7 N        1.846    -0.270    27.866     7.823
    24   6 C        2.919    -0.037    28.931     8.820
    25   6 C        2.913    -0.037    28.923     8.819
    26   6 C        2.916     0.041    27.073     8.532
    27   7 N        2.795    -0.042    22.052     6.974
    28   6 C        3.094     0.043    26.931     8.505
    29   6 C        2.910    -0.038    28.951     8.823
    30   6 C        2.923    -0.029    28.724     8.789
    31   6 C        2.925    -0.027    28.682     8.783
    32   6 C        2.909    -0.042    29.048     8.838
    33   6 C        3.037     0.043    26.991     8.521
    34   7 N        2.895    -0.056    22.315     7.016
    35   6 C        3.064     0.034    27.180     8.549
    36   6 C        2.906    -0.044    29.102     8.846
    37   6 C        2.926    -0.029    28.728     8.790
    38   6 C        2.920    -0.035    28.863     8.810
    39   6 C        2.909    -0.039    28.963     8.825
    40   6 C        3.230     0.074    25.582     8.213
    41   7 N        1.862    -0.322    29.209     8.011
    42   6 C        3.367     0.208    20.954     7.168
    43   1 H        0.926     0.051     2.309     2.376
    44   1 H        0.926     0.044     2.399     2.422
    45   1 H        0.926     0.047     2.358     2.401
    46   1 H        0.926     0.049     2.326     2.385
    47   1 H        0.926     0.048     2.343     2.393
    48   1 H        0.926     0.050     2.323     2.383
    49   1 H        0.926     0.049     2.329     2.387
    50   1 H        0.926     0.048     2.348     2.396
    51   1 H        0.926     0.049     2.327     2.386
    52   1 H        0.926     0.048     2.348     2.396
    53   1 H        0.926     0.047     2.360     2.402
    54   1 H        0.926     0.054     2.270     2.356
    55   1 H        0.926     0.051     2.309     2.376
    56   1 H        0.926     0.047     2.353     2.399
    57   1 H        0.926     0.063     2.162     2.300
    58   1 H        0.926     0.066     2.124     2.279
    59   1 H        0.926     0.062     2.176     2.307
    60   1 H        0.926     0.051     2.312     2.378
    61   1 H        0.926     0.057     2.238     2.339
    62   1 H        0.926     0.054     2.271     2.357
    63   1 H        0.926     0.056     2.247     2.344

molecular dipole:
                 x           y           z       tot (Debye)
 q only:        1.374      -0.557       1.020
   full:        1.414      -0.699       1.197       5.034

 projected vibrational frequencies (cm⁻¹)
eigval :       -0.00    -0.00    -0.00    -0.00     0.00     0.00
eigval :       11.19    16.59    21.64    32.74    40.52    42.97
eigval :       47.53    50.89    55.09    77.55    82.91    94.07
eigval :       97.69   114.51   122.28   130.51   150.86   155.28
eigval :      171.20   188.49   196.13   216.75   218.99   249.08
eigval :      252.35   294.14   297.65   313.06   318.61   362.34
eigval :      366.52   367.80   369.35   376.16   382.52   394.11
eigval :      406.41   407.41   408.98   417.98   431.65   446.85
eigval :      488.25   525.15   530.39   532.29   534.41   540.73
eigval :      554.40   563.47   582.92   587.26   587.87   594.34
eigval :      601.04   605.05   616.57   631.76   649.28   652.66
eigval :      655.84   664.13   669.04   678.04   685.31   699.30
eigval :      727.36   730.60   764.45   764.79   765.79   770.31
eigval :      791.32   800.95   805.48   852.85   853.39   863.91
eigval :      870.21   871.07   872.06   890.57   891.66   894.02
eigval :      897.78   903.44   904.26   905.58   908.98   918.52
eigval :      921.75   927.23   928.41   929.62   930.28   948.89
eigval :      960.20   982.41   991.09  1049.65  1056.83  1062.49
eigval :     1072.21  1073.13  1076.19  1089.75  1106.82  1108.15
eigval :     1122.06  1126.94  1146.52  1157.31  1158.79  1168.79
eigval :     1173.90  1175.69  1178.93  1180.05  1185.62  1190.78
eigval :     1208.72  1215.41  1238.38  1244.40  1257.87  1263.93
eigval :     1264.61  1270.03  1282.09  1291.42  1321.73  1327.89
eigval :     1328.55  1338.12  1346.06  1354.91  1373.04  1377.75
eigval :     1384.16  1399.65  1407.02  1419.22  1425.57  1433.33
eigval :     1435.94  1453.13  1461.18  1468.42  1476.86  1479.49
eigval :     1488.92  1518.38  1545.00  1572.39  1572.98  1573.68
eigval :     1584.22  1585.08  1589.91  1596.59  1623.24  2341.62
eigval :     3077.47  3077.83  3081.22  3081.44  3089.38  3090.37
eigval :     3091.09  3095.02  3095.39  3096.16  3097.82  3098.33
eigval :     3099.54  3099.68  3100.93  3103.90  3104.65  3111.71
eigval :     3112.26  3112.69  3117.42

   temp. (K)  partition function   enthalpy   heat capacity  entropy
                                   cal/mol     cal/K/mol   cal/K/mol   J/K/mol
 298.15  VIB  0.639E+15            19122.171    119.702    119.231
         ROT  0.719E+08              888.752      2.981     38.932
         INT  0.459E+23            20010.923    122.683    158.162
         TR   0.121E+29             1481.254      4.968     44.722
         TOT                       21492.1770   127.6507   202.8845   848.8686

       T/K    H(0)-H(T)+PV         H(T)/Eh          T*S/Eh         G(T)/Eh
   ------------------------------------------------------------------------
    298.15    0.342500E-01    0.492626E+00    0.963970E-01    0.396229E+00
   ------------------------------------------------------------------------

         :::::::::::::::::::::::::::::::::::::::::::::::::::::
         ::                  THERMODYNAMIC                  ::
         :::::::::::::::::::::::::::::::::::::::::::::::::::::
         :: total free energy        -105.730817213075 Eh   ::
         ::.................................................::
         :: total energy             -106.127046250423 Eh   ::
         :: zero point energy           0.458376033631 Eh   ::
         :: G(RRHO) w/o ZPVE           -0.062146996283 Eh   ::
         :: G(RRHO) contrib.            0.396229037348 Eh   ::
         :::::::::::::::::::::::::::::::::::::::::::::::::::::

           -------------------------------------------------
          | TOTAL ENERGY             -106.127046250423 Eh   |
          | TOTAL ENTHALPY           -105.634420252565 Eh   |
          | TOTAL FREE ENERGY        -105.730817213075 Eh   |
          | GRADIENT NORM               0.000124318022 Eh/α |
          | HOMO-LUMO GAP               0.307494662935 eV   |
           -------------------------------------------------

 * finished run on 2025/09/04 at 17:53:30.396
