   * xtb version 6.7.1 (edcfbbe) compiled by 'albert@albert-system' on 2024-07-22

   ID    Z sym.   atoms
    1    6 C      1-27, 29-39, 41, 45, 47
    2    7 N      28, 40, 42, 44, 46
    3    8 O      43
    4    1 H      48-72

          program call               : xtb data2507/gas/ANOP-MeFAC/ANOP-MeFAC_gas_S0_crest.xyz --gfn 2 --ohess vtight --parallel 40 --molden --ceasefiles --namespace data2507/gas/ANOP-MeFAC/ANOP-MeFAC_gas_S0_finalOpt
          :  Hamiltonian                  GFN2-xTB          :
 * total energy  :  -119.2245434 Eh     change       -0.7942063E-08 Eh
 * total energy  :  -119.2245443 Eh     change       -0.8852381E-06 Eh
 * total energy  :  -119.2245454 Eh     change       -0.1132506E-05 Eh
 * total energy  :  -119.2245470 Eh     change       -0.1588710E-05 Eh
 * total energy  :  -119.2245477 Eh     change       -0.7402969E-06 Eh
 * total energy  :  -119.2245479 Eh     change       -0.2088790E-06 Eh
 * total energy  :  -119.2245481 Eh     change       -0.1488693E-06 Eh
 * total energy  :  -119.2245483 Eh     change       -0.1928767E-06 Eh
 * total energy  :  -119.2245484 Eh     change       -0.1372542E-06 Eh
 * total energy  :  -119.2245485 Eh     change       -0.1035713E-06 Eh
 * total energy  :  -119.2245486 Eh     change       -0.1102151E-06 Eh
 * total energy  :  -119.2245488 Eh     change       -0.1496388E-06 Eh
 * total energy  :  -119.2245490 Eh     change       -0.1751941E-06 Eh
 * total energy  :  -119.2245492 Eh     change       -0.2035577E-06 Eh
 * total energy  :  -119.2245494 Eh     change       -0.2518959E-06 Eh
 * total energy  :  -119.2245497 Eh     change       -0.2699504E-06 Eh
 * total energy  :  -119.2245499 Eh     change       -0.1785459E-06 Eh
 * total energy  :  -119.2245499 Eh     change       -0.4796109E-07 Eh
   *** GEOMETRY OPTIMIZATION CONVERGED AFTER 18 ITERATIONS ***

 final structure:
================
72
 xtb: 6.7.1 (edcfbbe)
C           -3.55239452721589        4.97959839888391       -0.75773822138072
C           -2.72364352914928        3.77289938117878       -0.44342235297173
C           -1.34216505307097        3.85716227210923       -0.33132304988464
C           -0.58544737277426        2.75064990537404       -0.00645246656709
C           -1.18545062996223        1.51282815330730        0.23207120401586
C           -2.56852886865943        1.40557449900542        0.06432467234648
C           -3.31067414427185        2.53113590558226       -0.25974303165239
C           -3.27445876502910        0.07367668038218        0.12019968576210
C           -4.60802140970763        0.16623640275924        0.83082492301614
C           -4.85126804652897        0.51042847187478        2.14205995293983
C           -6.16559164053601        0.52591214648539        2.58996296506322
C           -7.20976537483207        0.20009977974384        1.73771975393094
C           -6.96932574610984       -0.14818699469179        0.41793067069456
C           -5.66056785804254       -0.16393026676684       -0.03486439842364
C           -5.10253616214799       -0.47498814928292       -1.34236132087570
C           -5.71194094960041       -0.84915468578019       -2.52828566294641
C           -4.91675088690270       -1.07428523340339       -3.64074115459933
C           -3.54022302884910       -0.92383098869634       -3.57393894196529
C           -2.92398623406625       -0.54914056170145       -2.38740532801898
C           -3.70983138312667       -0.33232020747981       -1.27783659570478
C           -2.41149795609704       -1.00410775297749        0.72598518871835
C           -2.98817463394548       -2.21394967660297        1.07755227554924
C           -2.25006032907526       -3.24470542676644        1.64092516038444
C           -2.91071907595147       -4.53869341975703        2.00404080484947
C           -0.89979728438292       -3.02459952977423        1.87543225672120
C           -0.30680678288894       -1.82674644975969        1.53372868820443
C           -1.04381106876853       -0.81004135137786        0.92332547059524
N           -0.42742744185866        0.39157873643111        0.57407913336990
C            0.97515917848690        0.45194103228774        0.60617917819416
C            1.63151231168781        1.29725413090552        1.48823664449305
C            3.02561429145060        1.40304062006175        1.55703973125827
C            3.78187544443760        0.63215245349114        0.70406401934451
C            3.11931817626369       -0.23662556902502       -0.19617268615220
C            4.02278655896011       -0.95913401471350       -1.00974721447854
C            3.52909132180581       -1.83694048635008       -1.94363221891250
C            2.13451846712069       -1.97359267004965       -2.04936567558561
C            1.25481763859101       -1.27538104541854       -1.25478281145974
C            1.73187990943982       -0.36918873503679       -0.28206956311014
C            5.35260592673419       -0.53919944038618       -0.60668019633946
N            6.49511011295550       -0.93981095576470       -1.07742101884525
C            7.54048135016999       -0.33647986307641       -0.46840113278764
N            8.82881783513523       -0.49108317631883       -0.67814105866851
O            9.43775925309083        0.33089138725849        0.17800125023799
N            8.59768399405726        1.02503183665895        0.94884587876201
C            7.38921472615370        0.64961980098583        0.59034716075579
N            6.19149823593109        1.05377895735485        1.06492843313213
C            5.19804757504314        0.46031228799203        0.46798328203299
H           -3.83182482634302        5.49067691505090        0.16441683107623
H           -4.46587930634497        4.69727186859344       -1.27567035272581
H           -2.99650386571845        5.68134712456860       -1.37534923689676
H           -0.84566738950271        4.80043888106692       -0.50592523774334
H            0.48721077898605        2.85113024564858        0.04383686326071
H           -4.37908590939717        2.42596485826932       -0.38377071205963
H           -4.03729387412297        0.76309123940722        2.80595564690671
H           -6.37722449839354        0.79464970838290        3.61438109382464
H           -8.22434511987821        0.21842347732390        2.10824004652743
H           -7.78588800997735       -0.40111775577394       -0.24197627695936
H           -6.78431422175935       -0.96205280379442       -2.58699463673284
H           -5.37499091136230       -1.36717394658059       -4.57409926014715
H           -2.94042749589681       -1.09804015497634       -4.45515187411613
H           -1.85171418829975       -0.42174317791160       -2.34169223970573
H           -4.04554560406172       -2.35479408830550        0.90450485979862
H           -3.47778621272701       -4.92764336736096        1.15990154351170
H           -3.60619151019382       -4.38815649264751        2.82961181037656
H           -2.17480245594693       -5.28017747457055        2.30417909710766
H           -0.30070683201263       -3.79481318354853        2.33857209442888
H            0.74027717764781       -1.67664604294854        1.74876973817693
H            1.03249903546563        1.88711812643405        2.16727665870661
H            3.48888731759187        2.06518119073871        2.27117056254233
H            4.18881132666970       -2.40467736054913       -2.58046592817364
H            1.74049994240221       -2.65767194280592       -2.78648620964026
H            0.19182179461256       -1.42531926096675       -1.37178931918750

          :  Hamiltonian                  GFN2-xTB          :
         :: gradient norm              0.000092747107 Eh/a0 ::
         :: HOMO-LUMO gap              0.723866614706 eV    ::
         :: SCC energy              -121.282424914968 Eh    ::
         :: -> dispersion             -0.111663604728 Eh    ::
         :: repulsion energy           2.057875009973 Eh    ::

    * Orbital Energies and Occupations

         #    Occupation            Energy/Eh            Energy/eV
      -------------------------------------------------------------
         1        2.0000           -0.7874422             -21.4274
       ...           ...                  ...                  ...
        98        2.0000           -0.4278097             -11.6413
        99        2.0000           -0.4268185             -11.6143
       100        2.0000           -0.4267031             -11.6112
       101        2.0000           -0.4190768             -11.4037
       102        2.0000           -0.4166527             -11.3377
       103        2.0000           -0.4100687             -11.1585
       104        2.0000           -0.4057390             -11.0407
       105        2.0000           -0.4049584             -11.0195
       106        2.0000           -0.4025510             -10.9540
       107        2.0000           -0.4001144             -10.8877
       108        2.0000           -0.3860083             -10.5038
       109        2.0000           -0.3702847             -10.0760
       110        2.0000           -0.3579556              -9.7405 (HOMO)
       111        0.0000           -0.3313544              -9.0166 (LUMO)
       112                         -0.3144884              -8.5577
       113                         -0.2586626              -7.0386
       114                         -0.2582466              -7.0272
       115                         -0.2526543              -6.8751
       116                         -0.2381642              -6.4808
       117                         -0.2322675              -6.3203
       118                         -0.2313421              -6.2951
       119                         -0.2296273              -6.2485
       120                         -0.2272749              -6.1845
       121                         -0.2220335              -6.0418
       ...                                ...                  ...
       213                          0.7232561              19.6808
      -------------------------------------------------------------
                  HL-Gap            0.0266012 Eh            0.7239 eV

     #   Z          covCN         q      C6AA      α(0)
     1   6 C        3.758    -0.109    22.630     6.782
     2   6 C        2.964     0.009    27.804     8.649
     3   6 C        2.926    -0.042    29.034     8.836
     4   6 C        2.922    -0.059    29.462     8.901
     5   6 C        2.922     0.052    26.826     8.494
     6   6 C        2.983    -0.006    28.173     8.707
     7   6 C        2.932    -0.045    29.116     8.849
     8   6 C        3.951     0.013    20.294     6.401
     9   6 C        3.057     0.003    27.906     8.663
    10   6 C        2.914    -0.032    28.786     8.798
    11   6 C        2.923    -0.031    28.780     8.798
    12   6 C        2.921    -0.032    28.800     8.801
    13   6 C        2.914    -0.034    28.851     8.808
    14   6 C        3.035     0.001    27.964     8.674
    15   6 C        3.034     0.002    27.951     8.672
    16   6 C        2.915    -0.033    28.833     8.805
    17   6 C        2.921    -0.032    28.798     8.800
    18   6 C        2.923    -0.032    28.793     8.800
    19   6 C        2.914    -0.033    28.817     8.803
    20   6 C        3.060     0.003    27.909     8.663
    21   6 C        2.983    -0.006    28.161     8.705
    22   6 C        2.932    -0.046    29.132     8.852
    23   6 C        2.964     0.010    27.799     8.648
    24   6 C        3.758    -0.109    22.635     6.783
    25   6 C        2.925    -0.042    29.033     8.836
    26   6 C        2.922    -0.056    29.392     8.891
    27   6 C        2.929     0.053    26.809     8.491
    28   7 N        2.751    -0.060    22.397     7.029
    29   6 C        2.924     0.070    26.429     8.431
    30   6 C        2.921    -0.042    29.032     8.836
    31   6 C        2.911    -0.017    28.426     8.743
    32   6 C        3.026    -0.009    28.213     8.713
    33   6 C        3.132    -0.002    27.851     8.639
    34   6 C        3.026    -0.002    28.054     8.688
    35   6 C        2.912    -0.014    28.359     8.732
    36   6 C        2.920    -0.025    28.638     8.776
    37   6 C        2.918    -0.021    28.531     8.759
    38   6 C        2.977     0.007    27.864     8.659
    39   6 C        3.100     0.096    25.750     8.316
    40   7 N        1.828    -0.228    26.826     7.675
    41   6 C        3.046     0.141    24.898     8.184
    42   7 N        1.913    -0.117    24.312     7.311
    43   8 O        1.938    -0.004    14.507     5.144
    44   7 N        1.914    -0.119    24.353     7.317
    45   6 C        3.043     0.141    24.886     8.182
    46   7 N        1.829    -0.232    26.921     7.689
    47   6 C        3.097     0.094    25.794     8.323
    48   1 H        0.924     0.048     2.342     2.393
    49   1 H        0.925     0.043     2.405     2.425
    50   1 H        0.925     0.044     2.394     2.420
    51   1 H        0.926     0.034     2.533     2.489
    52   1 H        0.926     0.031     2.578     2.511
    53   1 H        0.926     0.033     2.545     2.494
    54   1 H        0.926     0.027     2.632     2.537
    55   1 H        0.926     0.031     2.568     2.506
    56   1 H        0.926     0.031     2.570     2.507
    57   1 H        0.926     0.031     2.567     2.506
    58   1 H        0.926     0.032     2.551     2.498
    59   1 H        0.926     0.032     2.561     2.503
    60   1 H        0.926     0.031     2.576     2.510
    61   1 H        0.926     0.022     2.708     2.573
    62   1 H        0.926     0.034     2.529     2.487
    63   1 H        0.925     0.046     2.370     2.408
    64   1 H        0.925     0.048     2.347     2.396
    65   1 H        0.925     0.043     2.413     2.429
    66   1 H        0.926     0.033     2.542     2.493
    67   1 H        0.926     0.026     2.647     2.544
    68   1 H        0.926     0.054     2.273     2.358
    69   1 H        0.926     0.062     2.171     2.304
    70   1 H        0.926     0.061     2.183     2.310
    71   1 H        0.926     0.048     2.340     2.392
    72   1 H        0.926     0.047     2.360     2.402

molecular dipole:
                 x           y           z       tot (Debye)
 q only:       -3.260      -0.237      -0.113
   full:       -3.629      -0.267      -0.135       9.254

 projected vibrational frequencies (cm⁻¹)
eigval :       -0.00    -0.00     0.00     0.00     0.00     0.00
eigval :      -14.18     7.37    11.96    17.58    26.47    27.23
eigval :       39.46    45.94    58.52    69.95    82.56    84.19
eigval :       95.19   107.01   118.52   132.33   135.58   151.28
eigval :      172.34   180.00   185.04   189.51   208.27   219.90
eigval :      227.40   262.50   274.21   279.19   286.27   296.22
eigval :      326.18   334.61   337.22   355.95   368.57   381.63
eigval :      388.49   393.07   412.78   419.30   423.83   428.80
eigval :      433.67   440.77   446.53   452.95   465.28   484.42
eigval :      497.95   503.99   511.04   527.90   533.81   546.50
eigval :      549.10   560.49   570.85   586.71   589.53   601.63
eigval :      609.44   612.20   631.63   633.05   652.04   656.44
eigval :      669.34   679.50   680.40   685.43   687.73   716.25
eigval :      730.69   733.68   753.68   757.48   759.75   771.02
eigval :      785.23   785.91   797.52   803.70   806.24   813.46
eigval :      816.19   850.26   870.25   878.21   880.00   880.83
eigval :      885.03   897.44   899.20   899.96   909.21   910.51
eigval :      912.25   914.63   926.01   926.18   927.00   927.66
eigval :      928.97   934.36   949.95   969.00   973.96   998.92
eigval :     1006.09  1018.15  1031.23  1032.63  1034.74  1043.38
eigval :     1058.63  1073.50  1074.81  1079.32  1093.72  1105.71
eigval :     1134.62  1141.88  1144.99  1149.71  1176.50  1178.42
eigval :     1184.83  1187.68  1195.64  1202.43  1209.29  1211.97
eigval :     1221.61  1234.63  1239.04  1239.77  1258.83  1260.31
eigval :     1268.28  1276.83  1282.01  1284.93  1306.35  1308.86
eigval :     1324.09  1326.73  1334.34  1336.66  1338.95  1347.40
eigval :     1358.71  1367.17  1392.56  1404.86  1404.93  1420.92
eigval :     1422.43  1427.47  1429.37  1430.32  1432.70  1436.75
eigval :     1461.58  1472.06  1475.35  1480.15  1481.00  1482.78
eigval :     1483.99  1488.62  1501.43  1553.04  1564.37  1569.58
eigval :     1576.63  1582.41  1586.40  1586.52  1595.76  1596.98
eigval :     1602.47  1602.64  1605.37  1609.98  1612.94  2994.28
eigval :     3002.97  3022.67  3036.59  3039.51  3045.93  3069.62
eigval :     3074.09  3075.97  3077.90  3079.68  3080.66  3082.20
eigval :     3083.30  3083.82  3084.01  3086.05  3086.29  3092.18
eigval :     3093.55  3094.32  3095.49  3103.91  3108.63  3109.02

   temp. (K)  partition function   enthalpy   heat capacity  entropy
                                   cal/mol     cal/K/mol   cal/K/mol   J/K/mol
 298.15  VIB  0.674E+17            20884.198    131.653    130.200
         ROT  0.639E+08              888.752      2.981     38.697
         INT  0.431E+25            21772.950    134.633    168.897
         TR   0.144E+29             1481.254      4.968     45.057
         TOT                       23254.2044   139.6016   213.9533   895.1805

       T/K    H(0)-H(T)+PV         H(T)/Eh          T*S/Eh         G(T)/Eh
   ------------------------------------------------------------------------
    298.15    0.370579E-01    0.575206E+00    0.101656E+00    0.473550E+00
   ------------------------------------------------------------------------

         :::::::::::::::::::::::::::::::::::::::::::::::::::::
         ::                  THERMODYNAMIC                  ::
         :::::::::::::::::::::::::::::::::::::::::::::::::::::
         :: total free energy        -118.750999561223 Eh   ::
         ::.................................................::
         :: total energy             -119.224549904995 Eh   ::
         :: zero point energy           0.538148509554 Eh   ::
         :: G(RRHO) w/o ZPVE           -0.064598165781 Eh   ::
         :: G(RRHO) contrib.            0.473550343773 Eh   ::
         :::::::::::::::::::::::::::::::::::::::::::::::::::::

           -------------------------------------------------
          | TOTAL ENERGY             -119.224549904995 Eh   |
          | TOTAL ENTHALPY           -118.649343461916 Eh   |
          | TOTAL FREE ENERGY        -118.750999561223 Eh   |
          | GRADIENT NORM               0.000092792221 Eh/α |
          | HOMO-LUMO GAP               0.723855256345 eV   |
           -------------------------------------------------

 * finished run on 2025/09/08 at 11:22:16.460
