   * xtb version 6.7.1 (edcfbbe) compiled by 'albert@albert-system' on 2024-07-22

   ID    Z sym.   atoms
    1    6 C      1-27, 29-39, 41, 45, 47
    2    7 N      28, 40, 42, 44, 46
    3    8 O      43
    4    1 H      48-72

          program call               : xtb data2507/gas/ANOP-MeFAC/ANOP-MeFAC.xyz --gfn 2 --ohess vtight --parallel 40 --molden --ceasefiles --namespace data2507/gas/ANOP-MeFAC/ANOP-MeFAC_gas_S0_preOpt
          :  Hamiltonian                  GFN2-xTB          :
 * total energy  :  -119.1900607 Eh     change       -0.1879044E-08 Eh
 * total energy  :  -119.2136882 Eh     change       -0.2362749E-01 Eh
 * total energy  :  -119.2212411 Eh     change       -0.7552880E-02 Eh
 * total energy  :  -119.2222881 Eh     change       -0.1046947E-02 Eh
 * total energy  :  -119.2227042 Eh     change       -0.4161751E-03 Eh
 * total energy  :  -119.2228133 Eh     change       -0.1090412E-03 Eh
 * total energy  :  -119.2228647 Eh     change       -0.5146179E-04 Eh
 * total energy  :  -119.2228830 Eh     change       -0.1826606E-04 Eh
 * total energy  :  -119.2228893 Eh     change       -0.6302493E-05 Eh
 * total energy  :  -119.2228942 Eh     change       -0.4933408E-05 Eh
 * total energy  :  -119.2243363 Eh     change       -0.1122172E-05 Eh
 * total energy  :  -119.2243375 Eh     change       -0.1204627E-05 Eh
 * total energy  :  -119.2243388 Eh     change       -0.1319446E-05 Eh
 * total energy  :  -119.2243402 Eh     change       -0.1402848E-05 Eh
 * total energy  :  -119.2243417 Eh     change       -0.1419311E-05 Eh
 * total energy  :  -119.2243430 Eh     change       -0.1364132E-05 Eh
 * total energy  :  -119.2243443 Eh     change       -0.1324138E-05 Eh
 * total energy  :  -119.2243456 Eh     change       -0.1268217E-05 Eh
 * total energy  :  -119.2243456 Eh     change       -0.5977370E-08 Eh
   *** GEOMETRY OPTIMIZATION CONVERGED AFTER 94 ITERATIONS ***

 final structure:
================
72
 xtb: 6.7.1 (edcfbbe)
C           -2.46797770439829        5.04815033436057        0.41743241147840
C           -1.68178300531083        3.77365124244686        0.42236138638217
C           -0.29615780727772        3.77662593083407        0.50813501169907
C            0.41884105909581        2.59692553257855        0.50570554731462
C           -0.22912578840014        1.36220763603365        0.43100070681099
C           -1.61881821925832        1.35127998978921        0.29570568025531
C           -2.31827550790005        2.54822373499886        0.30105167663131
C           -2.39577877570611        0.07389553475311        0.10053981247444
C           -3.51001966501355       -0.04259561376256        1.12276095551793
C           -3.40159663487387       -0.12628477039531        2.49286157990207
C           -4.56501765551579       -0.22772363803749        3.24403007522241
C           -5.80747288167767       -0.24521016130927        2.62876616610132
C           -5.92054799200271       -0.16202158666285        1.24998793333969
C           -4.76354711905452       -0.06018519640462        0.49564227559566
C           -4.56191553642732        0.04283149921064       -0.94207809167941
C           -5.46669469433424        0.06802429649266       -1.99022138701444
C           -4.98041090675540        0.17730712960159       -3.28337221196240
C           -3.61816230835722        0.26154730392167       -3.52710761679096
C           -2.70642555603093        0.23665175255778       -2.48002569553518
C           -3.18531155655782        0.12599092677646       -1.19382925710396
C           -1.51825975586821       -1.15128318231282        0.14202468308257
C           -2.11769194086867       -2.39592651357032        0.02329736249241
C           -1.39089000702728       -3.57368315344994        0.09913464673085
C           -2.06969489777461       -4.90276910514351       -0.02465047720930
C           -0.02582919525676       -3.47820250756814        0.33623540835949
C            0.58974482881087       -2.25018039558359        0.45783568410861
C           -0.13797923667972       -1.06479828230562        0.32751405395506
N            0.49755489726097        0.17184392685363        0.43298085639264
C            1.89732175449464        0.20672813337827        0.56202469294416
C            2.47932348366530        0.67904245724114        1.72820962283113
C            3.86374484857918        0.73525597235702        1.92724038260155
C            4.68637274037385        0.30617944159712        0.91081760707694
C            4.09922227838699       -0.16639408667714       -0.28726491105577
C            5.06555198066459       -0.55604245517431       -1.24372018367565
C            4.64754827062123       -1.02062568884408       -2.46669338657198
C            3.26513898183960       -1.08169206682946       -2.71401403498888
C            2.32394536474213       -0.71002793662153       -1.78220910452577
C            2.72277181694113       -0.23770515838953       -0.51199640280951
C            6.35897167584019       -0.33546194754647       -0.62225045050316
N            7.53631260446657       -0.55870390528861       -1.12369690111465
C            8.52909984070711       -0.23839973980666       -0.26374335306256
N            9.83063856530598       -0.33140276791664       -0.42234829676890
O           10.36805407145497        0.11062411743575        0.71563965790461
N            9.46802458703321        0.49358533225575        1.62375711845570
C            8.29234946372139        0.29813874842074        1.06751367016811
N            7.05959898391423        0.52474734138721        1.56967760696788
C            6.11782102904485        0.20725857347548        0.72869015141374
H           -2.72201278544353        5.32772335731100       -0.60560046629554
H           -1.89443902314675        5.85963707524756        0.85858980941347
H           -3.39686582699913        4.92883576470356        0.97104589370800
H            0.23676806134572        4.71391468834503        0.57361427732990
H            1.49596092396566        2.63876078286675        0.55277471163730
H           -3.39418871145274        2.51732491835282        0.20271025816295
H           -2.43325694022199       -0.11374741192092        2.97197654731681
H           -4.50155543102440       -0.29385675992378        4.32017519394912
H           -6.69920000405514       -0.32492240196593        3.23332039540300
H           -6.89064194599154       -0.17638889504830        0.77563516937013
H           -6.52878069166621        0.00426429404651       -1.80536470095783
H           -5.67154607818146        0.19825827952756       -4.11337441324611
H           -3.26227904116614        0.34791668974740       -4.54322000868098
H           -1.64503170551776        0.30599639858501       -2.67104560490541
H           -3.18662779933726       -2.44125344085246       -0.12986493452871
H           -2.89099498742030       -4.85109313401109       -0.73595448204000
H           -2.48013524780633       -5.20427451115360        0.93973833997874
H           -1.36812513308913       -5.66813217838522       -0.34769853258196
H            0.56698915440186       -4.37577952447212        0.43445314307421
H            1.64827703183263       -2.21334750009174        0.66410406139160
H            1.82520646593397        1.00751637079980        2.52334880369643
H            4.26827899793425        1.09547309510884        2.85970356148115
H            5.35616739220282       -1.32663661953543       -3.21992452080028
H            2.93257380050232       -1.43620919487704       -3.67849397754048
H            1.27289574575111       -0.77937717158435       -2.02000118616006

          :  Hamiltonian                  GFN2-xTB          :
         :: gradient norm              0.000055490730 Eh/a0 ::
         :: HOMO-LUMO gap              0.680172533277 eV    ::
         :: SCC energy              -121.282472341919 Eh    ::
         :: -> dispersion             -0.111179170492 Eh    ::
         :: repulsion energy           2.058126721691 Eh    ::

    * Orbital Energies and Occupations

         #    Occupation            Energy/Eh            Energy/eV
      -------------------------------------------------------------
         1        2.0000           -0.7881403             -21.4464
       ...           ...                  ...                  ...
        98        2.0000           -0.4275222             -11.6335
        99        2.0000           -0.4273522             -11.6288
       100        2.0000           -0.4262371             -11.5985
       101        2.0000           -0.4195149             -11.4156
       102        2.0000           -0.4164117             -11.3311
       103        2.0000           -0.4107234             -11.1764
       104        2.0000           -0.4051622             -11.0250
       105        2.0000           -0.4043106             -11.0019
       106        2.0000           -0.4020341             -10.9399
       107        2.0000           -0.3992509             -10.8642
       108        2.0000           -0.3852709             -10.4838
       109        2.0000           -0.3710082             -10.0956
       110        2.0000           -0.3570766              -9.7165 (HOMO)
       111        0.0000           -0.3320809              -9.0364 (LUMO)
       112                         -0.3153791              -8.5819
       113                         -0.2590731              -7.0497
       114                         -0.2576511              -7.0110
       115                         -0.2533528              -6.8941
       116                         -0.2374294              -6.4608
       117                         -0.2317082              -6.3051
       118                         -0.2308632              -6.2821
       119                         -0.2295320              -6.2459
       120                         -0.2276457              -6.1946
       121                         -0.2215094              -6.0276
       ...                                ...                  ...
       213                          0.7238857              19.6979
      -------------------------------------------------------------
                  HL-Gap            0.0249957 Eh            0.6802 eV

     #   Z          covCN         q      C6AA      α(0)
     1   6 C        3.758    -0.109    22.631     6.782
     2   6 C        2.964     0.009    27.808     8.650
     3   6 C        2.925    -0.041    29.029     8.836
     4   6 C        2.922    -0.058    29.450     8.899
     5   6 C        2.923     0.052    26.826     8.494
     6   6 C        2.983    -0.006    28.170     8.706
     7   6 C        2.933    -0.045    29.112     8.849
     8   6 C        3.951     0.012    20.298     6.402
     9   6 C        3.059     0.003    27.905     8.663
    10   6 C        2.914    -0.032    28.797     8.800
    11   6 C        2.923    -0.031    28.779     8.797
    12   6 C        2.921    -0.032    28.800     8.800
    13   6 C        2.915    -0.034    28.847     8.807
    14   6 C        3.034     0.001    27.961     8.673
    15   6 C        3.035     0.002    27.953     8.672
    16   6 C        2.915    -0.034    28.844     8.807
    17   6 C        2.921    -0.032    28.800     8.800
    18   6 C        2.923    -0.032    28.789     8.799
    19   6 C        2.914    -0.032    28.799     8.800
    20   6 C        3.059     0.003    27.909     8.663
    21   6 C        2.983    -0.006    28.176     8.707
    22   6 C        2.933    -0.045    29.118     8.850
    23   6 C        2.964     0.009    27.811     8.650
    24   6 C        3.758    -0.109    22.631     6.782
    25   6 C        2.925    -0.042    29.039     8.837
    26   6 C        2.922    -0.057    29.418     8.894
    27   6 C        2.926     0.053    26.811     8.491
    28   7 N        2.751    -0.061    22.411     7.031
    29   6 C        2.924     0.071    26.413     8.428
    30   6 C        2.922    -0.040    28.996     8.830
    31   6 C        2.911    -0.016    28.420     8.742
    32   6 C        3.026    -0.008    28.199     8.710
    33   6 C        3.132    -0.002    27.852     8.639
    34   6 C        3.025    -0.002    28.051     8.688
    35   6 C        2.912    -0.014    28.354     8.732
    36   6 C        2.920    -0.025    28.633     8.775
    37   6 C        2.918    -0.020    28.513     8.756
    38   6 C        2.977     0.007    27.852     8.657
    39   6 C        3.099     0.096    25.750     8.316
    40   7 N        1.828    -0.228    26.817     7.674
    41   6 C        3.046     0.141    24.898     8.184
    42   7 N        1.914    -0.117    24.305     7.310
    43   8 O        1.938    -0.003    14.501     5.143
    44   7 N        1.914    -0.118    24.343     7.315
    45   6 C        3.044     0.141    24.885     8.182
    46   7 N        1.829    -0.231    26.906     7.686
    47   6 C        3.097     0.095    25.791     8.323
    48   1 H        0.924     0.048     2.350     2.397
    49   1 H        0.925     0.043     2.405     2.425
    50   1 H        0.925     0.045     2.388     2.416
    51   1 H        0.926     0.033     2.538     2.491
    52   1 H        0.926     0.028     2.617     2.530
    53   1 H        0.926     0.033     2.544     2.494
    54   1 H        0.926     0.026     2.651     2.546
    55   1 H        0.926     0.031     2.568     2.506
    56   1 H        0.926     0.031     2.569     2.506
    57   1 H        0.926     0.032     2.565     2.504
    58   1 H        0.926     0.032     2.560     2.502
    59   1 H        0.926     0.031     2.568     2.506
    60   1 H        0.926     0.031     2.576     2.510
    61   1 H        0.926     0.023     2.695     2.567
    62   1 H        0.926     0.033     2.543     2.494
    63   1 H        0.925     0.044     2.393     2.419
    64   1 H        0.924     0.048     2.343     2.394
    65   1 H        0.925     0.043     2.405     2.425
    66   1 H        0.926     0.033     2.546     2.495
    67   1 H        0.926     0.025     2.653     2.547
    68   1 H        0.926     0.053     2.279     2.361
    69   1 H        0.926     0.063     2.163     2.300
    70   1 H        0.926     0.062     2.179     2.309
    71   1 H        0.926     0.049     2.335     2.390
    72   1 H        0.926     0.047     2.354     2.399

molecular dipole:
                 x           y           z       tot (Debye)
 q only:       -3.143      -0.109      -0.430
   full:       -3.509      -0.126      -0.490       9.012

 projected vibrational frequencies (cm⁻¹)
eigval :       -0.00    -0.00    -0.00     0.00     0.00     0.00
eigval :      -10.22     1.54     4.13    17.59    24.03    26.54
eigval :       40.99    42.39    57.88    69.67    81.54    82.96
eigval :       93.34   106.96   114.94   131.96   134.93   147.34
eigval :      171.30   178.30   184.74   189.66   210.53   218.70
eigval :      222.43   262.32   276.44   277.34   287.47   293.73
eigval :      325.34   335.59   337.12   355.89   368.97   379.43
eigval :      388.02   392.04   412.65   419.59   423.90   427.95
eigval :      431.76   440.69   444.07   452.76   464.20   484.32
eigval :      498.64   504.63   510.77   527.03   533.94   546.06
eigval :      549.11   559.76   571.01   586.70   589.43   601.53
eigval :      609.79   610.98   631.82   633.28   652.59   656.16
eigval :      670.05   680.32   681.59   683.89   684.52   716.27
eigval :      731.19   733.90   753.68   757.82   759.39   771.01
eigval :      785.22   785.77   796.09   803.41   806.38   814.17
eigval :      815.46   846.77   872.37   878.08   879.41   879.68
eigval :      884.65   897.72   898.46   899.55   909.10   909.87
eigval :      913.12   915.21   922.27   926.08   926.54   927.38
eigval :      928.19   930.64   949.68   968.48   973.43   999.55
eigval :     1006.10  1018.17  1032.04  1032.24  1034.29  1043.21
eigval :     1058.66  1073.67  1074.38  1079.20  1093.43  1105.49
eigval :     1134.91  1142.67  1144.28  1150.71  1176.98  1178.52
eigval :     1184.79  1188.39  1195.28  1204.82  1208.00  1212.06
eigval :     1221.22  1234.35  1240.03  1240.48  1259.43  1260.07
eigval :     1269.27  1275.59  1282.99  1284.57  1306.14  1308.50
eigval :     1323.85  1326.95  1334.97  1337.01  1339.79  1349.31
eigval :     1358.81  1367.37  1392.86  1404.38  1404.46  1421.14
eigval :     1422.03  1427.00  1429.37  1430.55  1432.77  1436.96
eigval :     1461.47  1471.87  1476.02  1481.75  1481.97  1482.47
eigval :     1483.74  1490.21  1502.36  1553.15  1564.74  1570.11
eigval :     1576.48  1583.25  1586.49  1586.54  1595.74  1597.25
eigval :     1602.68  1603.32  1605.43  1610.40  1612.90  2995.41
eigval :     2995.99  3032.77  3035.16  3040.26  3042.00  3070.93
eigval :     3073.33  3075.64  3076.95  3079.81  3080.06  3081.38
eigval :     3081.79  3083.45  3084.41  3085.52  3085.96  3091.97
eigval :     3093.25  3095.25  3098.81  3099.96  3108.95  3109.42

   temp. (K)  partition function   enthalpy   heat capacity  entropy
                                   cal/mol     cal/K/mol   cal/K/mol   J/K/mol
 298.15  VIB  0.164E+19            20947.274    131.603    133.504
         ROT  0.650E+08              888.752      2.981     38.730
         INT  0.106E+27            21836.026    134.584    172.234
         TR   0.144E+29             1481.254      4.968     45.057
         TOT                       23317.2798   139.5518   217.2907   909.1441

       T/K    H(0)-H(T)+PV         H(T)/Eh          T*S/Eh         G(T)/Eh
   ------------------------------------------------------------------------
    298.15    0.371585E-01    0.575169E+00    0.103242E+00    0.471927E+00
   ------------------------------------------------------------------------

         :::::::::::::::::::::::::::::::::::::::::::::::::::::
         ::                  THERMODYNAMIC                  ::
         :::::::::::::::::::::::::::::::::::::::::::::::::::::
         :: total free energy        -118.752418879855 Eh   ::
         ::.................................................::
         :: total energy             -119.224345620235 Eh   ::
         :: zero point energy           0.538010095712 Eh   ::
         :: G(RRHO) w/o ZPVE           -0.066083355332 Eh   ::
         :: G(RRHO) contrib.            0.471926740380 Eh   ::
         :::::::::::::::::::::::::::::::::::::::::::::::::::::

           -------------------------------------------------
          | TOTAL ENERGY             -119.224345620235 Eh   |
          | TOTAL ENTHALPY           -118.649177073870 Eh   |
          | TOTAL FREE ENERGY        -118.752418879855 Eh   |
          | GRADIENT NORM               0.000055488324 Eh/α |
          | HOMO-LUMO GAP               0.680168116340 eV   |
           -------------------------------------------------

 * finished run on 2025/09/08 at 11:17:03.074
