   * xtb version 6.7.1 (edcfbbe) compiled by 'albert@albert-system' on 2024-07-22

   ID    Z sym.   atoms
    1    6 C      1-27, 29-39, 41, 45, 47
    2    7 N      28, 40, 42, 44, 46
    3    8 O      43
    4    1 H      48-72

          program call               : xtb data2507/gas/ANOP-MeFAC/ANOP-MeFAC_gas_T1_crest.xyz --gfn 2 --spinpol --tblite --uhf 2 --ohess vtight --parallel 40 --molden --ceasefiles --namespace data2507/gas/ANOP-MeFAC/ANOP-MeFAC_gas_T1_finalOpt
 * total energy  :  -119.1935938 Eh     change       -0.1470084E-07 Eh
 * total energy  :  -119.1936069 Eh     change       -0.1312447E-04 Eh
 * total energy  :  -119.1936115 Eh     change       -0.4582974E-05 Eh
 * total energy  :  -119.1936131 Eh     change       -0.1612698E-05 Eh
 * total energy  :  -119.1936150 Eh     change       -0.1852839E-05 Eh
 * total energy  :  -119.1936166 Eh     change       -0.1599913E-05 Eh
 * total energy  :  -119.1936185 Eh     change       -0.1873006E-05 Eh
 * total energy  :  -119.1936205 Eh     change       -0.2024703E-05 Eh
 * total energy  :  -119.1936225 Eh     change       -0.2014045E-05 Eh
 * total energy  :  -119.1936243 Eh     change       -0.1756842E-05 Eh
 * total energy  :  -119.1936269 Eh     change       -0.6736936E-06 Eh
 * total energy  :  -119.1936274 Eh     change       -0.5036189E-06 Eh
 * total energy  :  -119.1936279 Eh     change       -0.4183309E-06 Eh
 * total energy  :  -119.1936281 Eh     change       -0.2266743E-06 Eh
 * total energy  :  -119.1936284 Eh     change       -0.2870636E-06 Eh
 * total energy  :  -119.1936286 Eh     change       -0.2444027E-06 Eh
 * total energy  :  -119.1936288 Eh     change       -0.1472792E-06 Eh
 * total energy  :  -119.1936290 Eh     change       -0.2272008E-06 Eh
 * total energy  :  -119.1936291 Eh     change       -0.5409103E-07 Eh
   *** GEOMETRY OPTIMIZATION CONVERGED AFTER 21 ITERATIONS ***

 final structure:
================
72
 xtb: 6.7.1 (edcfbbe)
C           -3.32712811138352        4.93036305240447       -0.97103371957668
C           -2.56407578229165        3.69759022287418       -0.59968521226297
C           -1.17738147794991        3.72085356689838       -0.49150180885616
C           -0.47157497329699        2.58536626349223       -0.15989836867276
C           -1.13107655885798        1.37678138426301        0.08564685299310
C           -2.52146849663796        1.33491155192220       -0.05399432078575
C           -3.21110016455212        2.49046435375656       -0.38729917693177
C           -3.29961552417400        0.05407368512130        0.10545519692772
C           -4.45758522621552        0.23434770723655        1.06848965244830
C           -4.40786889557940        0.55262282737576        2.40716728905441
C           -5.60312853379309        0.66778264625360        3.10470764377675
C           -6.81839017969879        0.46622791450674        2.46834018039943
C           -6.87216662552359        0.14506334328880        1.12122711550566
C           -5.68342938821021        0.02923386409081        0.42010125892972
C           -5.42071747451942       -0.28791091301627       -0.97579367854519
C           -6.27984514928862       -0.57037401477694       -2.02466400509870
C           -5.73814633442722       -0.83700813752414       -3.27209716922155
C           -4.36618899506146       -0.82084597646654       -3.47116383044763
C           -3.49995767183482       -0.53851383961071       -2.42323385280606
C           -4.03447862830219       -0.27551280738680       -1.18203433849224
C           -2.43306951228586       -1.10456912035833        0.52729185051928
C           -3.03249911116256       -2.33013499611617        0.77132394221524
C           -2.30271886512280       -3.43850207205510        1.17329621379149
C           -2.97784680938568       -4.74639511578991        1.44472019163471
C           -0.93126851440995       -3.28779127386395        1.34816831089841
C           -0.31419957418112       -2.07893089137411        1.11162821488118
C           -1.05008688415918       -0.97150933083689        0.67812274105574
N           -0.41783930608424        0.23862579875530        0.43276422733481
C            0.99468147300199        0.29749976493327        0.52058723238203
C            1.60118224141533        0.95211964477507        1.57419495850991
C            2.99530574142788        1.04928441594997        1.71802774421328
C            3.78883599528911        0.46339932660199        0.76122294327864
C            3.16408652759964       -0.20599046884684       -0.31939766242574
C            4.11636270600328       -0.74732957669408       -1.21613250171316
C            3.66830751132038       -1.42303225166525       -2.32413505077295
C            2.27782446454716       -1.54161824711376       -2.51315808906164
C            1.35525818389125       -1.01842252898630       -1.63984180171943
C            1.78742466229646       -0.31976988030580       -0.48834470840131
C            5.41503233451749       -0.40604903733861       -0.67215735042779
N            6.62016948034079       -0.67907962848570       -1.13292472919623
C            7.65061572363386       -0.24263969118015       -0.43420052502848
N            8.93276711829785       -0.34248446474679       -0.61197891204562
O            9.52925696236727        0.30129185475713        0.43030365600461
N            8.61563253075778        0.82560131954720        1.29543691007045
C            7.44039931666244        0.53067820929787        0.82839845915326
N            6.22202285021029        0.78842862103482        1.26189699237504
C            5.21263969813866        0.33725150401933        0.54034604250958
H           -4.37032882251784        4.84341483156426       -0.67792358066486
H           -3.28872753419001        5.08267510275414       -2.05025928329882
H           -2.89646497766941        5.80871526226832       -0.49496360533261
H           -0.64209123349791        4.64136373217448       -0.67201623385882
H            0.60437698868141        2.63125963500031       -0.09558844237747
H           -4.28607341086513        2.43873994191555       -0.48643156858506
H           -3.46096705934092        0.70903751424856        2.90330307027866
H           -5.58584068477359        0.91729697600356        4.15527745915945
H           -7.73554569809755        0.56105694285616        3.03105836888421
H           -7.82110145093258       -0.01110954382021        0.63004570882882
H           -7.34923134681661       -0.58238289569447       -1.87516625598360
H           -6.39315654565638       -1.05942581767095       -4.10171748203535
H           -3.96660665803723       -1.02962753617172       -4.45252603784143
H           -2.43104272677294       -0.52230617739540       -2.58091044069602
H           -4.10201824068323       -2.41686808272204        0.64229631408109
H           -3.87293597776939       -4.85315610894804        0.83657527139839
H           -3.27423160641791       -4.80252800580266        2.49287648435099
H           -2.30761994821638       -5.57814180130923        1.24050329326131
H           -0.33758700800858       -4.12771415409213        1.67746901911060
H            0.74964825548371       -1.98770130237845        1.26723486380028
H            0.96916660911542        1.40935299541656        2.32241230032854
H            3.41735703976451        1.56821006664792        2.56410171455879
H            4.35348242870283       -1.85417354139760       -3.03715862085476
H            1.92752865209151       -2.07074086914522       -3.38745267973471
H            0.29890958169535       -1.14189202532183       -1.82731202645074

 projected vibrational frequencies (cm⁻¹)
eigval :       -0.00    -0.00    -0.00     0.00     0.00     0.00
eigval :      -15.79   -14.40    -2.51    15.57    17.19    24.74
eigval :       38.94    41.14    57.81    67.50    80.78    83.72
eigval :       92.70   104.91   111.53   131.02   133.74   142.96
eigval :      168.92   173.65   188.81   194.99   210.51   218.79
eigval :      222.87   262.19   268.55   277.76   286.06   292.38
eigval :      320.79   334.39   336.05   355.47   367.37   379.37
eigval :      386.09   387.71   412.45   413.95   424.18   431.93
eigval :      437.17   441.42   443.44   452.41   461.12   479.85
eigval :      498.12   504.34   510.84   529.68   533.16   535.92
eigval :      542.61   547.71   560.14   560.46   583.79   589.26
eigval :      602.01   608.61   610.39   630.48   638.68   648.92
eigval :      664.79   669.50   671.03   681.60   683.86   684.28
eigval :      695.73   725.93   726.14   730.59   753.64   756.65
eigval :      784.38   785.61   789.79   799.94   810.00   811.54
eigval :      813.87   839.02   854.74   863.55   876.18   876.22
eigval :      878.03   881.38   883.72   888.87   897.15   907.58
eigval :      908.94   910.37   913.45   915.77   922.89   925.91
eigval :      926.65   929.24   930.21   946.21   967.44   999.04
eigval :     1005.09  1016.51  1024.38  1028.74  1029.23  1032.66
eigval :     1039.91  1070.47  1073.59  1078.50  1092.00  1112.58
eigval :     1127.06  1141.34  1143.92  1148.65  1174.88  1175.46
eigval :     1181.47  1184.79  1191.08  1198.35  1202.25  1205.75
eigval :     1207.92  1210.46  1220.53  1238.01  1238.31  1246.96
eigval :     1257.37  1265.77  1273.04  1281.30  1284.00  1301.21
eigval :     1309.51  1325.00  1326.42  1334.96  1338.92  1346.80
eigval :     1354.49  1367.14  1386.76  1392.36  1401.17  1401.23
eigval :     1422.11  1423.83  1428.53  1428.69  1431.51  1437.77
eigval :     1460.34  1471.78  1473.35  1475.54  1476.66  1478.22
eigval :     1479.69  1480.56  1488.73  1495.54  1559.62  1572.84
eigval :     1576.14  1585.05  1586.19  1595.01  1596.97  1600.57
eigval :     1601.86  1604.58  1605.24  1606.69  1613.54  2994.63
eigval :     2995.82  3031.88  3037.02  3039.08  3044.15  3072.06
eigval :     3074.58  3077.11  3078.27  3080.17  3081.27  3081.81
eigval :     3082.65  3083.82  3084.30  3085.09  3087.30  3091.29
eigval :     3093.30  3094.66  3100.45  3102.61  3103.94  3105.24

   temp. (K)  partition function   enthalpy   heat capacity  entropy
                                   cal/mol     cal/K/mol   cal/K/mol   J/K/mol
 298.15  VIB  0.431E+18            21110.810    132.658    132.765
         ROT  0.649E+08              888.752      2.981     38.730
         INT  0.280E+26            21999.563    135.639    171.495
         TR   0.144E+29             1481.254      4.968     45.057
         TOT                       23480.8165   140.6067   216.5518   906.0525

       T/K    H(0)-H(T)+PV         H(T)/Eh          T*S/Eh         G(T)/Eh
   ------------------------------------------------------------------------
    298.15    0.374191E-01    0.573181E+00    0.102891E+00    0.470290E+00
   ------------------------------------------------------------------------

         :::::::::::::::::::::::::::::::::::::::::::::::::::::
         ::                  THERMODYNAMIC                  ::
         :::::::::::::::::::::::::::::::::::::::::::::::::::::
         :: total free energy        -118.723339195129 Eh   ::
         ::.................................................::
         :: total energy             -119.193629047346 Eh   ::
         :: zero point energy           0.535761515531 Eh   ::
         :: G(RRHO) w/o ZPVE           -0.065471663314 Eh   ::
         :: G(RRHO) contrib.            0.470289852218 Eh   ::
         :::::::::::::::::::::::::::::::::::::::::::::::::::::

           -------------------------------------------------
          | TOTAL ENERGY             -119.193629047346 Eh   |
          | TOTAL ENTHALPY           -118.620448468833 Eh   |
          | TOTAL FREE ENERGY        -118.723339195129 Eh   |
          | GRADIENT NORM               0.000118795919 Eh/α |
           -------------------------------------------------

 * finished run on 2025/09/08 at 11:28:15.112
