   * xtb version 6.7.1 (edcfbbe) compiled by 'albert@albert-system' on 2024-07-22

   ID    Z sym.   atoms
    1    6 C      1-27, 29-39, 41, 45, 47
    2    7 N      28, 40, 42, 44, 46
    3    8 O      43
    4    1 H      48-72

          program call               : xtb data2507/gas/ANOP-MeFAC/ANOP-MeFAC_gas_S0_finalOpt.xtbopt.xyz --gfn 2 --spinpol --tblite --uhf 2 --ohess vtight --parallel 40 --molden --ceasefiles --namespace data2507/gas/ANOP-MeFAC/ANOP-MeFAC_gas_T1_preOpt
 * total energy  :  -119.1862740 Eh     change       -0.2456630E-09 Eh
 * total energy  :  -119.1911282 Eh     change       -0.4854193E-02 Eh
 * total energy  :  -119.1931238 Eh     change       -0.1995598E-02 Eh
 * total energy  :  -119.1933045 Eh     change       -0.1806766E-03 Eh
 * total energy  :  -119.1933998 Eh     change       -0.9527861E-04 Eh
 * total energy  :  -119.1934084 Eh     change       -0.8596289E-05 Eh
 * total energy  :  -119.1934157 Eh     change       -0.7284484E-05 Eh
 * total energy  :  -119.1934217 Eh     change       -0.6065348E-05 Eh
 * total energy  :  -119.1934336 Eh     change       -0.1190122E-04 Eh
 * total energy  :  -119.1934466 Eh     change       -0.1300540E-04 Eh
 * total energy  :  -119.1936282 Eh     change       -0.2295602E-06 Eh
 * total energy  :  -119.1936283 Eh     change       -0.1164482E-06 Eh
 * total energy  :  -119.1936285 Eh     change       -0.1791450E-06 Eh
 * total energy  :  -119.1936285 Eh     change       -0.1093453E-07 Eh
 * total energy  :  -119.1936287 Eh     change       -0.1627668E-06 Eh
 * total energy  :  -119.1936288 Eh     change       -0.1078887E-06 Eh
 * total energy  :  -119.1936289 Eh     change       -0.1028030E-06 Eh
 * total energy  :  -119.1936290 Eh     change       -0.1687119E-06 Eh
 * total energy  :  -119.1936291 Eh     change       -0.7854396E-08 Eh
   *** GEOMETRY OPTIMIZATION CONVERGED AFTER 139 ITERATIONS ***

 final structure:
================
72
 xtb: 6.7.1 (edcfbbe)
C           -3.41293556805282        4.88822246563869       -1.09521246867558
C           -2.62954944176268        3.67568087064107       -0.70075431403058
C           -1.24723515415540        3.73539594357807       -0.55582717620445
C           -0.52495209918576        2.62887711150660       -0.16691867151228
C           -1.16269625204493        1.41387032210028        0.10312831457428
C           -2.54697219974892        1.33352076991988       -0.07662462582602
C           -3.25365980258198        2.46056057040832       -0.46757368031990
C           -3.29478079065958        0.03434974457417        0.08012260209466
C           -4.54348642300349        0.21153467204630        0.92134754563803
C           -4.63184534485981        0.59360914788096        2.24129988048668
C           -5.89077468018386        0.68971102478226        2.81957663428738
C           -7.03249915076397        0.40674704466905        2.08547435047132
C           -6.94747099458865        0.02125510026825        0.75694474854597
C           -5.69467357230342       -0.07604298519851        0.17460642893533
C           -5.29050873399093       -0.44637869352402       -1.17352858589859
C           -6.03640994149122       -0.81404803642087       -2.28098409790713
C           -5.37091586254791       -1.11444107611554       -3.45888806730228
C           -3.98813208824346       -1.04699984053333       -3.53278203119418
C           -3.23514586368052       -0.67901527465337       -2.42563751791714
C           -3.89270835914434       -0.38365131354664       -1.25270868348443
C           -2.42942245703138       -1.06997176641257        0.63057981010223
C           -3.01552928758005       -2.28622315913106        0.94268488238824
C           -2.28166361212362       -3.34663712663220        1.45309509939867
C           -2.94613610522664       -4.64343311741390        1.79487067889210
C           -0.92111533246856       -3.15530932004896        1.66639828609919
C           -0.31726396619889       -1.95448389869839        1.36289588767671
C           -1.05559241815084       -0.89809115081191        0.82057065528847
N           -0.43545398412786        0.30411279468205        0.51059519814955
C            0.97460777164011        0.38179547575741        0.60714625673360
C            1.56906568951397        1.12332634678706        1.60928827890296
C            2.96112968359640        1.24310369522340        1.75409875572569
C            3.76635744406871        0.58916597764645        0.85261554104878
C            3.15457130037516       -0.17164557530453       -0.17357273503545
C            4.11769154427553       -0.77706614452094       -1.01617344785973
C            3.68355871122316       -1.54638900535046       -2.06725079608671
C            2.29562786794155       -1.69234672505498       -2.25483412084269
C            1.36261638222049       -1.10634067046378       -1.43404066195298
C            1.78008772329335       -0.31066110071776       -0.34164600125441
C            5.40956674193713       -0.38101001901890       -0.49391407439821
N            6.62022397762212       -0.67999202673517       -0.92300030627685
C            7.64225256252527       -0.17827682490469       -0.25674880463808
N            8.92634481890628       -0.28047772395171       -0.41783347843163
O            9.51017263015042        0.45248758650311        0.57136419201880
N            8.58616538827248        1.03782312389073        1.38476836343425
C            7.41674926400924        0.69460464566372        0.93669465409069
N            6.19333111013220        0.97566993325304        1.33986169368716
C            5.19251007791118        0.45778578038085        0.65207591345656
H           -3.53767404929157        5.54807572683573       -0.23599792660337
H           -4.39966763583505        4.61184460302696       -1.45783413478690
H           -2.89356659383104        5.44713439650343       -1.87104853741772
H           -0.72812308654898        4.66134213058886       -0.75481356408204
H            0.54768704127333        2.70277146341150       -0.07959070152695
H           -4.32315336412148        2.37797166030272       -0.59932522984313
H           -3.74220937101773        0.81296942626724        2.81368544500888
H           -5.98156993699779        0.98830125620977        3.85343356720756
H           -8.00131685586050        0.48849150409273        2.55614323272891
H           -7.83948038533997       -0.19804459529588        0.18919581832078
H           -7.11381006038924       -0.86518835007352       -2.22930678756653
H           -5.93656073179188       -1.40339280910822       -4.33256878541057
H           -3.49090764003481       -1.28272627760966       -4.46204473488672
H           -2.15778273158791       -0.62165852313674       -2.48706145712503
H           -4.07726576758554       -2.40565202236967        0.78015734249092
H           -3.76839168079459       -4.84740197020101        1.11277725404095
H           -3.35255221147501       -4.59890149761841        2.80606611933350
H           -2.23641240040952       -5.46614910834651        1.75258794383699
H           -0.32520613017435       -3.95566666059329        2.07949578206062
H            0.73787935292313       -1.82946992615408        1.55110243128063
H            0.92859505246637        1.63225643925516        2.31583238359549
H            3.37293977718059        1.83111895245179        2.55905960878809
H            4.37750456658792       -2.02955483614327       -2.73710792040179
H            1.95574649517773       -2.29550013006199       -3.08414307729219
H            0.30892957259101       -1.25595743312091       -1.61740837249213

 projected vibrational frequencies (cm⁻¹)
eigval :       -0.00    -0.00    -0.00     0.00     0.00     0.00
eigval :        4.58    11.62    17.04    19.09    21.15    25.80
eigval :       39.21    43.32    58.33    67.87    81.96    85.28
eigval :       93.40   105.08   112.35   131.81   134.12   145.24
eigval :      169.27   174.08   189.14   195.44   210.04   219.41
eigval :      224.52   262.31   268.67   277.51   285.97   293.33
eigval :      321.53   334.56   335.67   354.73   367.31   380.13
eigval :      386.90   388.37   412.25   414.53   424.63   433.05
eigval :      438.14   441.75   443.24   452.66   461.97   480.26
eigval :      498.25   504.34   510.79   529.66   533.44   535.63
eigval :      542.56   548.51   559.93   560.89   583.91   589.28
eigval :      601.99   608.64   611.08   630.41   638.71   648.76
eigval :      665.29   669.64   670.89   681.02   684.06   685.30
eigval :      695.40   725.65   726.01   730.61   753.53   757.84
eigval :      785.28   785.69   790.82   800.67   809.89   812.65
eigval :      815.52   841.02   854.51   863.34   877.45   877.61
eigval :      879.70   882.67   884.00   889.81   897.80   908.72
eigval :      910.45   911.71   914.80   918.03   923.67   927.37
eigval :      928.10   929.41   930.60   945.89   967.22   999.41
eigval :     1005.08  1017.12  1024.47  1029.48  1030.56  1033.42
eigval :     1040.38  1070.53  1074.07  1078.96  1092.32  1112.76
eigval :     1127.28  1141.94  1144.25  1149.13  1176.17  1177.40
eigval :     1183.41  1186.56  1192.71  1197.32  1202.54  1207.23
eigval :     1208.99  1211.30  1221.34  1238.91  1239.18  1249.14
eigval :     1258.38  1266.59  1273.67  1281.74  1284.38  1301.36
eigval :     1309.69  1324.64  1326.39  1335.08  1338.08  1346.14
eigval :     1354.55  1367.22  1386.67  1393.49  1403.78  1404.17
eigval :     1422.06  1423.99  1428.84  1429.15  1431.65  1437.88
eigval :     1460.85  1471.66  1474.18  1475.58  1479.14  1480.67
eigval :     1482.10  1483.54  1488.10  1495.67  1559.77  1573.07
eigval :     1576.15  1585.04  1586.30  1595.20  1597.01  1601.22
eigval :     1601.93  1604.74  1605.55  1607.07  1613.29  2994.52
eigval :     2996.82  3030.07  3036.71  3040.52  3045.52  3071.20
eigval :     3074.80  3077.04  3078.35  3080.25  3081.04  3081.83
eigval :     3082.35  3083.79  3084.36  3084.75  3086.81  3091.17
eigval :     3093.27  3094.38  3099.91  3103.62  3104.22  3105.44

   temp. (K)  partition function   enthalpy   heat capacity  entropy
                                   cal/mol     cal/K/mol   cal/K/mol   J/K/mol
 298.15  VIB  0.153E+18            21070.661    132.681    131.704
         ROT  0.647E+08              888.752      2.981     38.722
         INT  0.991E+25            21959.413    135.661    170.426
         TR   0.144E+29             1481.254      4.968     45.057
         TOT                       23440.6670   140.6296   215.4823   901.5778

       T/K    H(0)-H(T)+PV         H(T)/Eh          T*S/Eh         G(T)/Eh
   ------------------------------------------------------------------------
    298.15    0.373551E-01    0.573359E+00    0.102383E+00    0.470976E+00
   ------------------------------------------------------------------------

         :::::::::::::::::::::::::::::::::::::::::::::::::::::
         ::                  THERMODYNAMIC                  ::
         :::::::::::::::::::::::::::::::::::::::::::::::::::::
         :: total free energy        -118.722652630902 Eh   ::
         ::.................................................::
         :: total energy             -119.193629044089 Eh   ::
         :: zero point energy           0.536003913486 Eh   ::
         :: G(RRHO) w/o ZPVE           -0.065027500299 Eh   ::
         :: G(RRHO) contrib.            0.470976413187 Eh   ::
         :::::::::::::::::::::::::::::::::::::::::::::::::::::

           -------------------------------------------------
          | TOTAL ENERGY             -119.193629044089 Eh   |
          | TOTAL ENTHALPY           -118.620270049955 Eh   |
          | TOTAL FREE ENERGY        -118.722652630902 Eh   |
          | GRADIENT NORM               0.000193354249 Eh/α |
           -------------------------------------------------

 * finished run on 2025/09/08 at 11:22:33.475
