   * xtb version 6.7.1 (edcfbbe) compiled by 'albert@albert-system' on 2024-07-22

   ID    Z sym.   atoms
    1    6 C      1-6, 8-20, 22-36
    2    8 O      7
    3    7 N      21
    4    1 H      37-57

          program call               : xtb data2507/toluene/SFX-bPy/SFX-bPy.xyz --gfn 2 --gbsa toluene --ohess vtight --parallel 40 --molden --ceasefiles --namespace data2507/toluene/SFX-bPy/SFX-bPy_toluene_S0_preOpt
      * Solvation model:               GBSA
        Solvent                        toluene
        Solvent mass                       9.2140E+01 g/mol
          :  Hamiltonian                  GFN2-xTB          :
 * total energy  :   -90.5604184 Eh     change       -0.3989825E-08 Eh
 * total energy  :   -90.5698037 Eh     change       -0.9385309E-02 Eh
 * total energy  :   -90.5721195 Eh     change       -0.2315808E-02 Eh
 * total energy  :   -90.5724708 Eh     change       -0.3513338E-03 Eh
 * total energy  :   -90.5726044 Eh     change       -0.1335628E-03 Eh
 * total energy  :   -90.5726378 Eh     change       -0.3344743E-04 Eh
 * total energy  :   -90.5726730 Eh     change       -0.3516318E-04 Eh
 * total energy  :   -90.5726846 Eh     change       -0.1163959E-04 Eh
 * total energy  :   -90.5727083 Eh     change       -0.2364212E-04 Eh
 * total energy  :   -90.5727217 Eh     change       -0.1348540E-04 Eh
 * total energy  :   -90.5728921 Eh     change       -0.1826073E-05 Eh
 * total energy  :   -90.5728941 Eh     change       -0.1948416E-05 Eh
 * total energy  :   -90.5728963 Eh     change       -0.2174180E-05 Eh
 * total energy  :   -90.5728984 Eh     change       -0.2084439E-05 Eh
 * total energy  :   -90.5728999 Eh     change       -0.1508549E-05 Eh
 * total energy  :   -90.5729007 Eh     change       -0.8659548E-06 Eh
 * total energy  :   -90.5729013 Eh     change       -0.5650495E-06 Eh
 * total energy  :   -90.5729017 Eh     change       -0.4260725E-06 Eh
 * total energy  :   -90.5729017 Eh     change       -0.3793062E-08 Eh
   *** GEOMETRY OPTIMIZATION CONVERGED AFTER 44 ITERATIONS ***

 final structure:
================
57
 xtb: 6.7.1 (edcfbbe)
C           -6.01062800245119       -1.49663434733056       -0.56054695065528
C           -5.76208498041891       -0.15543830242862       -0.31237446590106
C           -4.46264347939806        0.28254301120324       -0.14221040156851
C           -3.39212842119009       -0.60038024535425       -0.21557692390876
C           -3.65265986385989       -1.94426855325716       -0.46293805061220
C           -4.96085527116159       -2.38952718808153       -0.63532802618111
O           -2.67474632147020       -2.89876931323468       -0.55321510121350
C           -1.37165460067270       -2.52004217803946       -0.42036492475982
C           -0.41664139727059       -3.52672638195916       -0.55035291346755
C            0.92516386109017       -3.23692852153014       -0.43054277033900
C            1.34452147056147       -1.92987489642553       -0.17984396052671
C            2.76090512797090       -1.56242435376965       -0.05842600090677
C            3.74351644236252       -2.50696394222773        0.33306642087397
C            5.04848930904693       -2.11529786496631        0.42275366833630
C            5.39854642725534       -0.78028864676506        0.12653858597169
C            6.71609997391582       -0.28709273289512        0.18174558702447
C            6.97560600478899        1.02384847484511       -0.11053641002406
C            5.93169747279630        1.89421228275424       -0.46625394878419
C            4.64115642736019        1.44764147512894       -0.52877114913183
C            4.34140248388064        0.09920890932368       -0.23686672281443
N            3.06311844968034       -0.30940306787593       -0.31825577881047
C            0.37933560124425       -0.93339595549075       -0.06300082508939
C           -0.97240949630418       -1.20860940334685       -0.17475032293514
C           -1.98189512887120       -0.09418516871602       -0.02603535443500
C           -1.82069979312859        0.59172576206271        1.31801214342579
C           -1.98367990780164        0.05375454502379        2.57555963153294
C           -1.77491069267320        0.87189837328478        3.67855409259815
C           -1.40951840304345        2.19984176891333        3.51729789327851
C           -1.24440879324377        2.74449271069746        2.25331640141814
C           -1.45198265881934        1.93380937269658        1.14938139225020
C           -1.35923693669366        2.21326157856123       -0.27618109573178
C           -1.03682628009472        3.37486895869219       -0.95859462442747
C           -1.03128210878048        3.35021425015430       -2.34450430875155
C           -1.34155391832131        2.18975706905539       -3.03736354396581
C           -1.66448186365291        1.02163130974152       -2.35874004045451
C           -1.67090236855799        1.04236860869907       -0.98147891444131
H           -7.02235875307741       -1.84775656560123       -0.69579116018811
H           -6.57932912146550        0.54698240843468       -0.25213736943691
H           -4.26167352357870        1.32611389064164        0.05145189357831
H           -5.12476226174392       -3.43881503795800       -0.82694715945621
H           -0.75576539804924       -4.53131793015607       -0.75162821026497
H            1.64456733291837       -4.03064167079319       -0.55926692034732
H            3.45361486032202       -3.51652975479884        0.57802821497972
H            5.82073920377453       -2.81100016539052        0.72293743888118
H            7.51420051967111       -0.96235637507535        0.45759374785932
H            7.98729427285427        1.40032821849176       -0.06949942702214
H            6.16005283700992        2.92584394641749       -0.69184657842498
H            3.82532385912666        2.09941019824767       -0.80168081338246
H            0.70608905504740        0.07806291836297        0.12162484519555
H           -2.26818407939171       -0.98115313151143        2.70375046298654
H           -1.89841048998749        0.46796340099177        4.67287959363180
H           -1.25134004711052        2.81765851795369        4.38959647795769
H           -0.95886156518361        3.77901290556489        2.13366960613142
H           -0.79433846736072        4.28114043961074       -0.42366183624735
H           -0.78218498898345        4.24691537115017       -2.89354388765928
H           -1.33135279987717        2.19306505854855       -4.11758576980912
H           -1.90505180898567        0.11824395973372       -2.90111343583196

          :  Hamiltonian                  GFN2-xTB          :
         :: gradient norm              0.000046519466 Eh/a0 ::
         :: HOMO-LUMO gap              2.328028691414 eV    ::
         :: SCC energy               -92.240598125817 Eh    ::
         :: -> dispersion             -0.080321203527 Eh    ::
         :: -> Gsolv                  -0.036952071021 Eh    ::
         :: repulsion energy           1.667696404302 Eh    ::

    * Orbital Energies and Occupations

         #    Occupation            Energy/Eh            Energy/eV
      -------------------------------------------------------------
         1        2.0000           -0.7337892             -19.9674
       ...           ...                  ...                  ...
        72        2.0000           -0.4232085             -11.5161
        73        2.0000           -0.4220345             -11.4841
        74        2.0000           -0.4208276             -11.4513
        75        2.0000           -0.4172804             -11.3548
        76        2.0000           -0.4117513             -11.2043
        77        2.0000           -0.4045129             -11.0074
        78        2.0000           -0.4013922             -10.9224
        79        2.0000           -0.3992039             -10.8629
        80        2.0000           -0.3979883             -10.8298
        81        2.0000           -0.3928502             -10.6900
        82        2.0000           -0.3804481             -10.3525
        83        2.0000           -0.3717817             -10.1167
        84        2.0000           -0.3646946              -9.9238 (HOMO)
        85                         -0.2791411              -7.5958 (LUMO)
        86                         -0.2525818              -6.8731
        87                         -0.2511205              -6.8333
        88                         -0.2323337              -6.3221
        89                         -0.2308762              -6.2825
        90                         -0.2271704              -6.1816
        91                         -0.2260376              -6.1508
        92                         -0.2174072              -5.9160
        93                         -0.2082431              -5.6666
        94                         -0.1948905              -5.3032
        95                         -0.1900137              -5.1705
       ...                                ...                  ...
       165                          0.7280970              19.8125
      -------------------------------------------------------------
                  HL-Gap            0.0855535 Eh            2.3280 eV

     #   Z          covCN         q      C6AA      α(0)
     1   6 C        2.920    -0.032    28.789     8.799
     2   6 C        2.918    -0.039    28.966     8.826
     3   6 C        2.926    -0.035    28.879     8.813
     4   6 C        2.977    -0.013    28.331     8.731
     5   6 C        2.881     0.133    25.097     8.213
     6   6 C        2.919    -0.054    29.352     8.884
     7   8 O        1.710    -0.254    18.213     5.762
     8   6 C        2.880     0.136    25.032     8.202
     9   6 C        2.917    -0.056    29.400     8.891
    10   6 C        2.922    -0.036    28.900     8.816
    11   6 C        2.979    -0.006    28.156     8.704
    12   6 C        2.950     0.100    25.782     8.328
    13   6 C        2.913    -0.050    29.240     8.867
    14   6 C        2.920    -0.021    28.529     8.759
    15   6 C        2.985    -0.003    28.093     8.694
    16   6 C        2.915    -0.036    28.901     8.816
    17   6 C        2.916    -0.031    28.762     8.794
    18   6 C        2.916    -0.028    28.698     8.785
    19   6 C        2.920    -0.041    29.026     8.835
    20   6 C        2.962     0.091    25.968     8.359
    21   7 N        1.851    -0.268    27.816     7.817
    22   6 C        2.933    -0.034    28.845     8.808
    23   6 C        2.976    -0.012    28.312     8.728
    24   6 C        3.949     0.018    20.213     6.389
    25   6 C        3.056     0.001    27.956     8.671
    26   6 C        2.914    -0.033    28.832     8.805
    27   6 C        2.922    -0.032    28.806     8.802
    28   6 C        2.921    -0.032    28.809     8.802
    29   6 C        2.915    -0.034    28.849     8.808
    30   6 C        3.034     0.002    27.944     8.671
    31   6 C        3.034     0.002    27.943     8.670
    32   6 C        2.914    -0.034    28.839     8.806
    33   6 C        2.921    -0.032    28.796     8.800
    34   6 C        2.923    -0.031    28.783     8.798
    35   6 C        2.914    -0.032    28.805     8.801
    36   6 C        3.056     0.001    27.942     8.669
    37   1 H        0.926     0.045     2.382     2.414
    38   1 H        0.926     0.042     2.424     2.435
    39   1 H        0.926     0.038     2.474     2.460
    40   1 H        0.926     0.049     2.329     2.386
    41   1 H        0.926     0.053     2.288     2.366
    42   1 H        0.926     0.047     2.362     2.403
    43   1 H        0.926     0.039     2.467     2.456
    44   1 H        0.925     0.038     2.475     2.460
    45   1 H        0.925     0.038     2.481     2.463
    46   1 H        0.926     0.040     2.451     2.448
    47   1 H        0.926     0.041     2.436     2.441
    48   1 H        0.926     0.047     2.351     2.398
    49   1 H        0.926     0.055     2.262     2.352
    50   1 H        0.926     0.024     2.672     2.556
    51   1 H        0.926     0.033     2.543     2.494
    52   1 H        0.926     0.034     2.525     2.485
    53   1 H        0.926     0.036     2.500     2.473
    54   1 H        0.926     0.036     2.503     2.474
    55   1 H        0.926     0.035     2.518     2.482
    56   1 H        0.926     0.034     2.535     2.490
    57   1 H        0.926     0.024     2.667     2.554

molecular dipole:
                 x           y           z       tot (Debye)
 q only:        0.097       0.296       0.140
   full:        0.404       0.019       0.241       1.198

 projected vibrational frequencies (cm⁻¹)
eigval :       -0.00    -0.00     0.00     0.00     0.00     0.00
eigval :        9.44    19.83    28.41    39.53    42.33    54.67
eigval :       63.77    83.46   105.33   127.56   134.51   153.71
eigval :      162.07   192.41   201.81   209.07   239.84   243.80
eigval :      269.92   292.65   298.40   333.90   342.38   365.67
eigval :      386.95   403.60   410.76   416.13   421.58   427.32
eigval :      443.78   457.23   462.26   470.59   499.13   502.13
eigval :      507.05   509.46   534.27   537.26   558.67   585.70
eigval :      589.28   591.24   599.17   610.02   626.82   653.41
eigval :      668.38   680.33   684.06   691.46   715.44   730.00
eigval :      743.90   752.85   762.44   768.60   780.49   786.00
eigval :      800.93   807.44   825.55   840.20   845.98   874.56
eigval :      875.69   877.83   879.59   882.63   884.82   897.52
eigval :      907.48   910.26   911.33   914.01   914.45   916.69
eigval :      922.78   924.26   924.81   925.67   929.39   931.76
eigval :      975.32  1005.58  1067.46  1073.83  1078.18  1082.90
eigval :     1088.98  1094.81  1122.73  1132.40  1138.58  1142.51
eigval :     1160.11  1170.93  1172.63  1175.58  1177.80  1181.62
eigval :     1203.56  1204.12  1207.72  1217.38  1229.33  1235.14
eigval :     1238.73  1246.75  1252.92  1259.29  1265.02  1282.65
eigval :     1295.14  1309.91  1324.65  1324.90  1334.89  1351.06
eigval :     1365.69  1373.31  1398.37  1418.03  1427.98  1428.14
eigval :     1431.75  1443.89  1459.94  1470.38  1473.85  1487.32
eigval :     1496.45  1540.50  1567.14  1571.65  1585.31  1587.51
eigval :     1593.09  1595.53  1598.06  1602.78  1603.64  1606.77
eigval :     3055.19  3064.14  3067.77  3068.48  3072.04  3072.85
eigval :     3074.52  3080.34  3081.10  3081.75  3085.15  3086.11
eigval :     3088.54  3089.06  3090.62  3094.92  3095.60  3097.64
eigval :     3101.42  3102.62  3106.67

   temp. (K)  partition function   enthalpy   heat capacity  entropy
                                   cal/mol     cal/K/mol   cal/K/mol   J/K/mol
 298.15  VIB  0.112E+12            15054.078    100.237     91.396
         ROT  0.272E+08              888.752      2.981     37.003
         INT  0.304E+19            15942.830    103.218    128.398
         TR   0.953E+28             1481.254      4.968     44.244
         TOT                       17424.0841   108.1859   172.6421   722.3347

       T/K    H(0)-H(T)+PV         H(T)/Eh          T*S/Eh         G(T)/Eh
   ------------------------------------------------------------------------
    298.15    0.277670E-01    0.460657E+00    0.820278E-01    0.378629E+00
   ------------------------------------------------------------------------

         :::::::::::::::::::::::::::::::::::::::::::::::::::::
         ::                  THERMODYNAMIC                  ::
         :::::::::::::::::::::::::::::::::::::::::::::::::::::
         :: total free energy         -90.194273008573 Eh   ::
         ::.................................................::
         :: total energy              -90.572901725758 Eh   ::
         :: zero point energy           0.432889521079 Eh   ::
         :: G(RRHO) w/o ZPVE           -0.054260803894 Eh   ::
         :: G(RRHO) contrib.            0.378628717185 Eh   ::
         :::::::::::::::::::::::::::::::::::::::::::::::::::::

           -------------------------------------------------
          | TOTAL ENERGY              -90.572901725758 Eh   |
          | TOTAL ENTHALPY            -90.112245159263 Eh   |
          | TOTAL FREE ENERGY         -90.194273008573 Eh   |
          | GRADIENT NORM               0.000046523563 Eh/α |
          | HOMO-LUMO GAP               2.328028775977 eV   |
           -------------------------------------------------

 * finished run on 2025/08/26 at 03:58:10.462
