   * xtb version 6.7.1 (edcfbbe) compiled by 'albert@albert-system' on 2024-07-22

   ID    Z sym.   atoms
    1    6 C      1-6, 8-20, 22-36
    2    8 O      7
    3    7 N      21
    4    1 H      37-57

          program call               : xtb data2507/toluene/SFX-bPy/SFX-bPy_toluene_T1_crest.xyz --gfn 2 --uhf 2 --gbsa toluene --ohess vtight --parallel 40 --molden --ceasefiles --namespace data2507/toluene/SFX-bPy/SFX-bPy_toluene_T1_finalOpt
      * Solvation model:               GBSA
        Solvent                        toluene
        Solvent mass                       9.2140E+01 g/mol
          :  Hamiltonian                  GFN2-xTB          :
 * total energy  :   -90.4848853 Eh     change       -0.1173801E-07 Eh
 * total energy  :   -90.4849124 Eh     change       -0.2708284E-04 Eh
 * total energy  :   -90.4849227 Eh     change       -0.1027925E-04 Eh
 * total energy  :   -90.4849251 Eh     change       -0.2386451E-05 Eh
 * total energy  :   -90.4849243 Eh     change        0.7368876E-06 Eh
 * total energy  :   -90.4849264 Eh     change       -0.2077577E-05 Eh
 * total energy  :   -90.4849272 Eh     change       -0.8345587E-06 Eh
 * total energy  :   -90.4849289 Eh     change       -0.1654924E-05 Eh
 * total energy  :   -90.4849305 Eh     change       -0.1615862E-05 Eh
 * total energy  :   -90.4849318 Eh     change       -0.1281555E-05 Eh
 * total energy  :   -90.4849373 Eh     change       -0.1433602E-05 Eh
 * total energy  :   -90.4849384 Eh     change       -0.1091703E-05 Eh
 * total energy  :   -90.4849390 Eh     change       -0.6723352E-06 Eh
 * total energy  :   -90.4849395 Eh     change       -0.5111409E-06 Eh
 * total energy  :   -90.4849401 Eh     change       -0.5465086E-06 Eh
 * total energy  :   -90.4849407 Eh     change       -0.5941388E-06 Eh
 * total energy  :   -90.4849412 Eh     change       -0.5581347E-06 Eh
 * total energy  :   -90.4849417 Eh     change       -0.4294734E-06 Eh
 * total energy  :   -90.4849417 Eh     change       -0.7686822E-08 Eh
   *** GEOMETRY OPTIMIZATION CONVERGED AFTER 22 ITERATIONS ***

 final structure:
================
57
 xtb: 6.7.1 (edcfbbe)
C           -5.56314703787427       -2.58142201687865        0.04649481298231
C           -5.69342516321520       -1.19845517724195        0.09063696997562
C           -4.56605234942996       -0.39854716792412        0.08333358595382
C           -3.29407001281888       -0.95329677534956        0.03434265594124
C           -3.17228635070071       -2.34447594901160       -0.00662546671288
C           -4.31135190716753       -3.15407594381678       -0.00114644776093
O           -1.97649847888351       -2.98548100928768       -0.05254178499713
C           -0.82666812131452       -2.26150049643256       -0.04080418700639
C            0.37721929840625       -2.98474008174709       -0.06602236389568
C            1.57455255831092       -2.33098452109426       -0.05234836927282
C            1.64128263872160       -0.91031386626490       -0.01268142521360
C            2.91529938385549       -0.27760632525820        0.00279326177525
C            3.12272101966365        1.12143238690665        0.03172303071606
C            4.38419167756733        1.63817029516901        0.03435614049946
C            5.52540664798411        0.77993844600715        0.01070668741470
C            6.84151016285226        1.21559805830013        0.01451597807323
C            7.90065926362504        0.31079243023622       -0.00778450141815
C            7.64326042357027       -1.05250219920211       -0.03177780847852
C            6.34707893491568       -1.52536882144153       -0.03466754589861
C            5.25292632077982       -0.63134249245231       -0.01370025791879
N            4.01455917692771       -1.07981895835472       -0.01340014927446
C            0.41650365718577       -0.20822228988193        0.00857684662048
C           -0.79581884714522       -0.85753264117188       -0.00348003661761
C           -2.07841841075023       -0.06217525124519        0.01514203286773
C           -2.09569966742583        0.90929650399361        1.18241351436376
C           -2.06718713468097        0.62170916214442        2.52900790798923
C           -2.09010247240167        1.67769551581489        3.43143688215018
C           -2.13922670370787        2.99029884514492        2.98683401345993
C           -2.16698161914959        3.28274126738931        1.63203481390016
C           -2.14525366732675        2.23423974252884        0.72673765581207
C           -2.16750819549376        2.22361471110771       -0.72876182188265
C           -2.21617205771655        3.25863791347026       -1.64840318304394
C           -2.23047757998317        2.94631721303428       -2.99894945190277
C           -2.19759746476578        1.62725674082652       -3.42551244025334
C           -2.14773221497832        0.58468933661136       -2.50870780137358
C           -2.13246546006411        0.89230725014391       -1.16635549763613
H           -6.44054685986582       -3.20984755788130        0.05029629676114
H           -6.67277881676770       -0.74713634228340        0.12920594562009
H           -4.66347358057996        0.67663708505282        0.11529137493712
H           -4.17841811193458       -4.22427614109820       -0.03479599732813
H            0.32298230376456       -4.06229917123143       -0.09443121185648
H            2.50488991681916       -2.87658532929993       -0.06961429609485
H            2.26588735117473        1.77656485101260        0.04704263217019
H            4.54408827445225        2.70660490948988        0.05211624545891
H            7.03974615557549        2.27826604870740        0.03621668620121
H            8.91752078053807        0.67309508176748       -0.00568150853084
H            8.46506932798091       -1.75388675557590       -0.04839698612227
H            6.13813885789434       -2.58382361935275       -0.05536209642163
H            0.41331841230055        0.87004275333752        0.03558453031630
H           -2.02747087586665       -0.40024052041359        2.87797055663791
H           -2.06883845617257        1.47243576067663        4.49167466589401
H           -2.15619239835065        3.79567130965629        3.70685447376033
H           -2.20506031500516        4.30659169263846        1.29084662107236
H           -2.24233361318158        4.28747804559867       -1.32138521540431
H           -2.26807340100400        3.74105406101658       -3.72991933978646
H           -2.20988760080020        1.40632562392411       -4.48275144468450
H           -2.12122963474276       -0.44235396711357       -2.84382896523896

          :  Hamiltonian                  GFN2-xTB          :
         :: gradient norm              0.000056421384 Eh/a0 ::
         :: HOMO-LUMO gap              0.668029821749 eV    ::
         :: SCC energy               -92.142165104876 Eh    ::
         :: -> dispersion             -0.080327935883 Eh    ::
         :: -> Gsolv                  -0.036843481918 Eh    ::
         :: repulsion energy           1.657223428856 Eh    ::

    * Orbital Energies and Occupations

         #    Occupation            Energy/Eh            Energy/eV
      -------------------------------------------------------------
         1        2.0000           -0.7435781             -20.2338
       ...           ...                  ...                  ...
        73        2.0000           -0.4234054             -11.5214
        74        2.0000           -0.4230651             -11.5122
        75        2.0000           -0.4214473             -11.4682
        76        2.0000           -0.4153393             -11.3020
        77        2.0000           -0.4067247             -11.0675
        78        2.0000           -0.4052335             -11.0270
        79        2.0000           -0.4026023             -10.9554
        80        2.0000           -0.3979753             -10.8295
        81        2.0000           -0.3850556             -10.4779
        82        2.0000           -0.3843915             -10.4598
        83        1.5386           -0.3695813             -10.0568
        84        1.4614           -0.3692877             -10.0488
        85        1.0000           -0.2816756              -7.6648 (HOMO)
        86        0.0000           -0.2571261              -6.9968 (LUMO)
        87                         -0.2485946              -6.7646
        88                         -0.2362286              -6.4281
        89                         -0.2327385              -6.3331
        90                         -0.2305036              -6.2723
        91                         -0.2257850              -6.1439
        92                         -0.2218174              -6.0360
        93                         -0.2062568              -5.6125
        94                         -0.1944318              -5.2908
        95                         -0.1877834              -5.1098
        96                         -0.1461698              -3.9775
       ...                                ...                  ...
       165                          0.7232943              19.6818
      -------------------------------------------------------------
                  HL-Gap            0.0245496 Eh            0.6680 eV

     #   Z          covCN         q      C6AA      α(0)
     1   6 C        2.919    -0.029    28.726     8.789
     2   6 C        2.918    -0.035    28.869     8.811
     3   6 C        2.924    -0.034    28.842     8.807
     4   6 C        2.976    -0.010    28.250     8.719
     5   6 C        2.882     0.135    25.043     8.204
     6   6 C        2.917    -0.052    29.284     8.874
     7   8 O        1.710    -0.223    17.704     5.681
     8   6 C        2.881     0.125    25.264     8.240
     9   6 C        2.910    -0.052    29.280     8.873
    10   6 C        2.923    -0.036    28.895     8.815
    11   6 C        2.972     0.002    27.980     8.677
    12   6 C        2.921     0.065    26.534     8.447
    13   6 C        2.910    -0.041    29.025     8.834
    14   6 C        2.915    -0.050    29.241     8.867
    15   6 C        2.979     0.003    27.944     8.671
    16   6 C        2.916    -0.047    29.178     8.858
    17   6 C        2.914    -0.039    28.972     8.826
    18   6 C        2.913    -0.033    28.812     8.802
    19   6 C        2.919    -0.058    29.447     8.899
    20   6 C        2.928     0.099    25.803     8.331
    21   7 N        1.853    -0.221    26.676     7.655
    22   6 C        2.923    -0.049    29.224     8.865
    23   6 C        2.971    -0.008    28.220     8.714
    24   6 C        3.948     0.019    20.190     6.385
    25   6 C        3.056     0.002    27.928     8.667
    26   6 C        2.914    -0.032    28.809     8.802
    27   6 C        2.923    -0.031    28.774     8.797
    28   6 C        2.921    -0.032    28.790     8.799
    29   6 C        2.915    -0.034    28.844     8.807
    30   6 C        3.033     0.002    27.953     8.672
    31   6 C        3.033     0.002    27.951     8.672
    32   6 C        2.915    -0.034    28.841     8.806
    33   6 C        2.921    -0.032    28.790     8.799
    34   6 C        2.923    -0.031    28.775     8.797
    35   6 C        2.914    -0.033    28.814     8.802
    36   6 C        3.056     0.002    27.924     8.666
    37   1 H        0.926     0.050     2.316     2.380
    38   1 H        0.926     0.047     2.358     2.401
    39   1 H        0.926     0.042     2.421     2.433
    40   1 H        0.926     0.055     2.260     2.351
    41   1 H        0.926     0.053     2.279     2.361
    42   1 H        0.926     0.056     2.241     2.341
    43   1 H        0.926     0.039     2.465     2.455
    44   1 H        0.926     0.035     2.511     2.478
    45   1 H        0.925     0.033     2.539     2.492
    46   1 H        0.926     0.030     2.589     2.516
    47   1 H        0.926     0.032     2.553     2.499
    48   1 H        0.926     0.037     2.486     2.466
    49   1 H        0.926     0.037     2.489     2.467
    50   1 H        0.926     0.027     2.630     2.536
    51   1 H        0.926     0.035     2.511     2.478
    52   1 H        0.926     0.036     2.502     2.473
    53   1 H        0.926     0.037     2.486     2.466
    54   1 H        0.926     0.037     2.483     2.464
    55   1 H        0.926     0.036     2.500     2.473
    56   1 H        0.926     0.035     2.511     2.478
    57   1 H        0.926     0.027     2.635     2.538

molecular dipole:
                 x           y           z       tot (Debye)
 q only:       -1.686       0.383       0.018
   full:       -1.619       0.618       0.017       4.406

 projected vibrational frequencies (cm⁻¹)
eigval :       -0.00    -0.00    -0.00     0.00     0.00     0.00
eigval :      -11.80    10.43    27.51    29.83    39.87    55.79
eigval :       62.39    81.47    93.04   127.51   139.14   143.07
eigval :      156.36   167.39   175.29   202.02   213.03   238.53
eigval :      255.37   291.24   296.30   314.39   331.62   332.84
eigval :      384.38   399.55   400.06   411.29   411.72   416.68
eigval :      423.35   451.53   457.82   468.82   473.84   488.84
eigval :      493.60   503.72   509.15   521.37   537.77   561.40
eigval :      562.92   585.84   589.33   595.89   614.14   619.15
eigval :      659.53   663.62   677.58   683.36   684.93   708.86
eigval :      710.35   727.92   733.04   752.35   758.90   767.63
eigval :      776.26   784.99   796.51   800.53   807.71   833.85
eigval :      837.50   838.53   852.44   862.67   870.17   872.94
eigval :      876.22   877.23   891.27   897.51   901.01   908.07
eigval :      908.87   913.17   919.49   919.97   927.28   928.04
eigval :      959.69  1002.33  1053.02  1071.55  1072.77  1077.13
eigval :     1080.97  1083.84  1103.00  1115.80  1125.23  1141.15
eigval :     1141.30  1162.69  1170.63  1171.68  1174.16  1179.55
eigval :     1196.31  1200.05  1201.86  1210.11  1218.93  1223.53
eigval :     1228.35  1240.28  1246.08  1256.80  1260.29  1265.00
eigval :     1276.88  1282.17  1322.99  1324.11  1331.01  1351.06
eigval :     1364.57  1365.37  1385.47  1395.71  1412.02  1420.84
eigval :     1421.53  1427.00  1428.08  1430.44  1458.07  1459.84
eigval :     1466.81  1469.35  1486.85  1506.28  1537.10  1554.43
eigval :     1556.19  1578.93  1583.75  1594.81  1598.43  1600.79
eigval :     3060.58  3064.42  3070.65  3071.02  3071.25  3073.73
eigval :     3074.43  3081.78  3082.81  3084.25  3085.88  3086.61
eigval :     3088.72  3090.03  3090.20  3091.64  3094.14  3098.00
eigval :     3100.82  3102.44  3105.05

   temp. (K)  partition function   enthalpy   heat capacity  entropy
                                   cal/mol     cal/K/mol   cal/K/mol   J/K/mol
 298.15  VIB  0.509E+12            15555.777    102.536     94.937
         ROT  0.302E+08              888.752      2.981     37.211
         INT  0.154E+20            16444.529    105.517    132.148
         TR   0.953E+28             1481.254      4.968     44.244
         TOT                       17925.7829   110.4854   176.3917   738.0227

       T/K    H(0)-H(T)+PV         H(T)/Eh          T*S/Eh         G(T)/Eh
   ------------------------------------------------------------------------
    298.15    0.285666E-01    0.456411E+00    0.838094E-01    0.372602E+00
   ------------------------------------------------------------------------

         :::::::::::::::::::::::::::::::::::::::::::::::::::::
         ::                  THERMODYNAMIC                  ::
         :::::::::::::::::::::::::::::::::::::::::::::::::::::
         :: total free energy         -90.112339851629 Eh   ::
         ::.................................................::
         :: total energy              -90.484941681247 Eh   ::
         :: zero point energy           0.427844648494 Eh   ::
         :: G(RRHO) w/o ZPVE           -0.055242818877 Eh   ::
         :: G(RRHO) contrib.            0.372601829617 Eh   ::
         :::::::::::::::::::::::::::::::::::::::::::::::::::::

           -------------------------------------------------
          | TOTAL ENERGY              -90.484941681247 Eh   |
          | TOTAL ENTHALPY            -90.028530479299 Eh   |
          | TOTAL FREE ENERGY         -90.112339851629 Eh   |
          | GRADIENT NORM               0.000056592203 Eh/α |
          | HOMO-LUMO GAP               0.668027433976 eV   |
           -------------------------------------------------

 * finished run on 2025/08/26 at 04:03:18.355
