   * xtb version 6.7.1 (edcfbbe) compiled by 'albert@albert-system' on 2024-07-22

   ID    Z sym.   atoms
    1    6 C      1-6, 8-20, 22-36
    2    8 O      7
    3    7 N      21
    4    1 H      37-57

          program call               : xtb data2507/toluene/SFX-bPy/SFX-bPy_toluene_S0_crest.xyz --gfn 2 --gbsa toluene --ohess vtight --parallel 40 --molden --ceasefiles --namespace data2507/toluene/SFX-bPy/SFX-bPy_toluene_S0_finalOpt
      * Solvation model:               GBSA
        Solvent                        toluene
        Solvent mass                       9.2140E+01 g/mol
          :  Hamiltonian                  GFN2-xTB          :
 * total energy  :   -90.5733192 Eh     change       -0.1551172E-08 Eh
 * total energy  :   -90.5733446 Eh     change       -0.2541160E-04 Eh
 * total energy  :   -90.5733517 Eh     change       -0.7129642E-05 Eh
 * total energy  :   -90.5733535 Eh     change       -0.1789411E-05 Eh
 * total energy  :   -90.5733555 Eh     change       -0.2015020E-05 Eh
 * total energy  :   -90.5733572 Eh     change       -0.1725093E-05 Eh
 * total energy  :   -90.5733588 Eh     change       -0.1608340E-05 Eh
 * total energy  :   -90.5733600 Eh     change       -0.1135593E-05 Eh
 * total energy  :   -90.5733606 Eh     change       -0.5840857E-06 Eh
 * total energy  :   -90.5733609 Eh     change       -0.2980610E-06 Eh
 * total energy  :   -90.5733609 Eh     change       -0.3357435E-07 Eh
   *** GEOMETRY OPTIMIZATION CONVERGED AFTER 11 ITERATIONS ***

 final structure:
================
57
 xtb: 6.7.1 (edcfbbe)
C           -5.65146709511062       -2.39871354944471       -0.18760872805974
C           -5.72411786843049       -1.01770572256813       -0.08780986841791
C           -4.56261672684255       -0.27152665269302       -0.02888051778004
C           -3.31512701760622       -0.88192627854753       -0.06934440523222
C           -3.25274235198820       -2.26782243575226       -0.17108274793144
C           -4.42137051402152       -3.02316491356693       -0.22964102670728
O           -2.07778184456247       -2.96845229008475       -0.22063256313034
C           -0.89989710855364       -2.28132137314788       -0.20715993333250
C            0.26571597542395       -3.04268347596087       -0.29299569425624
C            1.49623570336964       -2.42763276632278       -0.29600655222680
C            1.59697975557960       -1.03624113742613       -0.22001853930557
C            2.92251104800737       -0.40539646152952       -0.24353246418426
C            3.09597538528753        0.93114580305673       -0.68583477692834
C            4.34881269437238        1.47330545067086       -0.69741586064105
C            5.44884689784085        0.69824035121613       -0.27099541434274
C            6.77439146350268        1.17182169041522       -0.24523770405081
C            7.79166087334318        0.35607381597238        0.16826175312124
C            7.52660837765821       -0.96339091834171        0.57122631663902
C            6.25051490560497       -1.45385814922596        0.55938857466454
C            5.17873059478097       -0.63654847986906        0.13935899500446
N            3.93551632146864       -1.14982966101533        0.14130962115304
C            0.42754983415979       -0.29099105691764       -0.11763313349989
C           -0.82021445591046       -0.89534532669889       -0.11084721655056
C           -2.06211265332431       -0.04199107759358        0.00563211444492
C           -2.03277329203995        0.77668047574068        1.28347157249848
C           -2.02206288218638        0.32700656489715        2.58553335859719
C           -1.99050831721725        1.26456830092412        3.60995960723153
C           -1.96973218791701        2.62242514616117        3.32879225478005
C           -1.98030302005490        3.07866183268684        2.01995498980421
C           -2.01274288347935        2.14841873774467        0.99386132350567
C           -2.03284143972086        2.31716758552129       -0.45205101505194
C           -2.02363621050452        3.45860457133956       -1.23732810566204
C           -2.04904695813955        3.31566711381071       -2.61596981719206
C           -2.08200152886219        2.05876509338998       -3.20121858845084
C           -2.09028478973378        0.91071226554086       -2.41921965929755
C           -2.06608164816733        1.04862700879677       -1.04872217673984
H           -6.55345793579850       -2.98995153079707       -0.23316324989516
H           -6.68355094305791       -0.52432243093672       -0.05527700890363
H           -4.61137983421517        0.80482210999097        0.05025181903190
H           -4.33536446289950       -4.09602891318510       -0.30763447220915
H            0.17359139899447       -4.11580124423487       -0.35873512027790
H            2.40252816841251       -3.00821075372682       -0.36174290845794
H            2.24667579104415        1.49905096454623       -1.03222019292030
H            4.51481418272089        2.48760388307763       -1.03524033928402
H            6.97010810666102        2.18852442436845       -0.55686212900051
H            8.80819981133211        0.72106042263140        0.18766364619353
H            8.34555243109958       -1.59067330444279        0.89226204484860
H            6.02744912086134       -2.46423147203080        0.86613290307109
H            0.47064903110376        0.78311297199986       -0.01700755064114
H           -2.03716924745273       -0.73067246486759        2.80713590182368
H           -1.98211668446386        0.93128164273512        4.63745117638314
H           -1.94531231776843        3.33364614120793        4.14184160379311
H           -1.96470910733900        4.13719902425450        1.80645822569651
H           -1.99760689119050        4.43964588678400       -0.78659834863011
H           -2.04298216307598        4.19494152209224       -3.24397407674323
H           -2.10148077842847        1.97052660591273       -4.27765433431853
H           -2.11521303056618       -0.06768635355776       -2.87758452693271

          :  Hamiltonian                  GFN2-xTB          :
         :: gradient norm              0.000147749855 Eh/a0 ::
         :: HOMO-LUMO gap              2.339554296595 eV    ::
         :: SCC energy               -92.240648731573 Eh    ::
         :: -> dispersion             -0.080454505090 Eh    ::
         :: -> Gsolv                  -0.036863031266 Eh    ::
         :: repulsion energy           1.667287840929 Eh    ::

    * Orbital Energies and Occupations

         #    Occupation            Energy/Eh            Energy/eV
      -------------------------------------------------------------
         1        2.0000           -0.7342177             -19.9791
       ...           ...                  ...                  ...
        72        2.0000           -0.4248161             -11.5598
        73        2.0000           -0.4237666             -11.5313
        74        2.0000           -0.4224571             -11.4956
        75        2.0000           -0.4186964             -11.3933
        76        2.0000           -0.4137972             -11.2600
        77        2.0000           -0.4046863             -11.0121
        78        2.0000           -0.4037105             -10.9855
        79        2.0000           -0.4006168             -10.9013
        80        2.0000           -0.4000787             -10.8867
        81        2.0000           -0.3934251             -10.7056
        82        2.0000           -0.3834778             -10.4350
        83        2.0000           -0.3722451             -10.1293
        84        2.0000           -0.3651691              -9.9368 (HOMO)
        85                         -0.2791921              -7.5972 (LUMO)
        86                         -0.2556501              -6.9566
        87                         -0.2512707              -6.8374
        88                         -0.2336226              -6.3572
        89                         -0.2319072              -6.3105
        90                         -0.2290651              -6.2332
        91                         -0.2271603              -6.1813
        92                         -0.2198254              -5.9818
        93                         -0.2085632              -5.6753
        94                         -0.1950660              -5.3080
        95                         -0.1929607              -5.2507
       ...                                ...                  ...
       165                          0.7243934              19.7117
      -------------------------------------------------------------
                  HL-Gap            0.0859770 Eh            2.3396 eV

     #   Z          covCN         q      C6AA      α(0)
     1   6 C        2.920    -0.031    28.783     8.798
     2   6 C        2.918    -0.039    28.969     8.826
     3   6 C        2.926    -0.035    28.882     8.813
     4   6 C        2.977    -0.014    28.346     8.733
     5   6 C        2.880     0.133    25.091     8.212
     6   6 C        2.919    -0.054    29.347     8.884
     7   8 O        1.710    -0.253    18.198     5.760
     8   6 C        2.880     0.136    25.030     8.202
     9   6 C        2.917    -0.054    29.349     8.884
    10   6 C        2.926    -0.029    28.736     8.791
    11   6 C        2.979    -0.005    28.143     8.702
    12   6 C        2.949     0.100    25.784     8.328
    13   6 C        2.913    -0.049    29.218     8.864
    14   6 C        2.920    -0.021    28.524     8.758
    15   6 C        2.985    -0.003    28.089     8.694
    16   6 C        2.915    -0.036    28.898     8.815
    17   6 C        2.916    -0.030    28.760     8.794
    18   6 C        2.916    -0.028    28.699     8.785
    19   6 C        2.920    -0.042    29.031     8.836
    20   6 C        2.962     0.091    25.979     8.360
    21   7 N        1.851    -0.266    27.771     7.810
    22   6 C        2.929    -0.040    28.997     8.831
    23   6 C        2.976    -0.014    28.358     8.735
    24   6 C        3.949     0.018    20.205     6.387
    25   6 C        3.056     0.000    27.963     8.672
    26   6 C        2.914    -0.033    28.822     8.803
    27   6 C        2.923    -0.032    28.790     8.799
    28   6 C        2.921    -0.032    28.805     8.801
    29   6 C        2.914    -0.034    28.858     8.809
    30   6 C        3.034     0.001    27.975     8.676
    31   6 C        3.033     0.001    27.972     8.675
    32   6 C        2.914    -0.035    28.864     8.810
    33   6 C        2.921    -0.032    28.809     8.802
    34   6 C        2.922    -0.032    28.797     8.800
    35   6 C        2.914    -0.033    28.823     8.804
    36   6 C        3.055     0.000    27.966     8.673
    37   1 H        0.926     0.045     2.378     2.412
    38   1 H        0.926     0.042     2.426     2.436
    39   1 H        0.926     0.037     2.484     2.465
    40   1 H        0.926     0.050     2.321     2.382
    41   1 H        0.926     0.054     2.265     2.354
    42   1 H        0.926     0.061     2.185     2.311
    43   1 H        0.926     0.036     2.501     2.473
    44   1 H        0.925     0.038     2.481     2.463
    45   1 H        0.925     0.037     2.483     2.464
    46   1 H        0.926     0.040     2.452     2.449
    47   1 H        0.926     0.041     2.435     2.440
    48   1 H        0.926     0.048     2.340     2.392
    49   1 H        0.926     0.039     2.458     2.452
    50   1 H        0.926     0.025     2.657     2.549
    51   1 H        0.926     0.034     2.531     2.488
    52   1 H        0.926     0.035     2.519     2.482
    53   1 H        0.926     0.036     2.506     2.476
    54   1 H        0.926     0.035     2.510     2.478
    55   1 H        0.926     0.035     2.522     2.483
    56   1 H        0.926     0.034     2.533     2.489
    57   1 H        0.926     0.025     2.657     2.549

molecular dipole:
                 x           y           z       tot (Debye)
 q only:       -0.136       0.603      -0.079
   full:       -0.090       1.001      -0.186       2.598

 projected vibrational frequencies (cm⁻¹)
eigval :       -0.00    -0.00     0.00     0.00     0.00     0.00
eigval :       14.47    20.37    29.57    41.12    48.01    56.83
eigval :       70.08    81.68   106.10   128.59   138.70   155.16
eigval :      161.80   174.94   198.71   215.88   238.98   244.89
eigval :      272.64   293.26   300.62   334.15   345.32   364.31
eigval :      385.14   403.63   412.86   419.57   424.45   429.25
eigval :      442.05   457.21   462.93   469.90   499.57   501.98
eigval :      506.75   511.89   534.62   536.91   559.95   583.43
eigval :      589.21   594.52   600.18   611.04   625.03   653.69
eigval :      668.54   682.73   684.60   693.81   714.61   730.39
eigval :      743.56   752.89   765.21   768.62   782.29   786.13
eigval :      800.77   809.06   825.94   839.02   846.08   875.23
eigval :      876.11   878.07   878.73   881.11   886.95   896.70
eigval :      907.85   910.50   911.70   914.50   916.32   918.16
eigval :      922.56   924.46   925.49   926.59   929.17   938.57
eigval :      981.65  1005.29  1066.26  1073.10  1077.60  1082.62
eigval :     1088.43  1089.80  1117.53  1131.90  1141.13  1141.47
eigval :     1162.49  1167.51  1172.63  1173.84  1175.22  1179.85
eigval :     1200.59  1203.04  1205.72  1220.63  1229.54  1234.05
eigval :     1240.83  1245.10  1258.71  1263.14  1264.98  1282.43
eigval :     1293.59  1313.14  1324.26  1325.87  1337.26  1348.23
eigval :     1365.20  1374.80  1403.68  1408.65  1427.54  1428.05
eigval :     1431.47  1451.58  1459.55  1469.84  1472.53  1481.55
eigval :     1497.50  1540.87  1564.88  1576.97  1584.67  1587.38
eigval :     1593.56  1595.11  1597.70  1602.19  1603.29  1606.76
eigval :     3055.32  3064.18  3067.93  3068.89  3072.24  3073.30
eigval :     3074.93  3079.93  3080.79  3082.04  3085.40  3085.42
eigval :     3088.64  3089.22  3091.08  3094.45  3094.81  3096.41
eigval :     3098.85  3102.41  3112.09

   temp. (K)  partition function   enthalpy   heat capacity  entropy
                                   cal/mol     cal/K/mol   cal/K/mol   J/K/mol
 298.15  VIB  0.537E+11            15016.954    100.444     90.805
         ROT  0.297E+08              888.752      2.981     37.178
         INT  0.160E+19            15905.706    103.425    127.983
         TR   0.953E+28             1481.254      4.968     44.244
         TOT                       17386.9602   108.3929   172.2269   720.5973

       T/K    H(0)-H(T)+PV         H(T)/Eh          T*S/Eh         G(T)/Eh
   ------------------------------------------------------------------------
    298.15    0.277079E-01    0.460715E+00    0.818306E-01    0.378884E+00
   ------------------------------------------------------------------------

         :::::::::::::::::::::::::::::::::::::::::::::::::::::
         ::                  THERMODYNAMIC                  ::
         :::::::::::::::::::::::::::::::::::::::::::::::::::::
         :: total free energy         -90.194476590408 Eh   ::
         ::.................................................::
         :: total energy              -90.573360894247 Eh   ::
         :: zero point energy           0.433006974211 Eh   ::
         :: G(RRHO) w/o ZPVE           -0.054122670372 Eh   ::
         :: G(RRHO) contrib.            0.378884303838 Eh   ::
         :::::::::::::::::::::::::::::::::::::::::::::::::::::

           -------------------------------------------------
          | TOTAL ENERGY              -90.573360894247 Eh   |
          | TOTAL ENTHALPY            -90.112646035229 Eh   |
          | TOTAL FREE ENERGY         -90.194476590408 Eh   |
          | GRADIENT NORM               0.000147688355 Eh/α |
          | HOMO-LUMO GAP               2.339554509954 eV   |
           -------------------------------------------------

 * finished run on 2025/08/26 at 04:00:28.700
