   * xtb version 6.7.1 (edcfbbe) compiled by 'albert@albert-system' on 2024-07-22

   ID    Z sym.   atoms
    1    6 C      1-6, 8-20, 22-36
    2    8 O      7
    3    7 N      21
    4    1 H      37-57

          program call               : xtb data2507/toluene/SFX-bPy/SFX-bPy_toluene_S0_finalOpt.xtbopt.xyz --gfn 2 --uhf 2 --gbsa toluene --ohess vtight --parallel 40 --molden --ceasefiles --namespace data2507/toluene/SFX-bPy/SFX-bPy_toluene_T1_preOpt
      * Solvation model:               GBSA
        Solvent                        toluene
        Solvent mass                       9.2140E+01 g/mol
          :  Hamiltonian                  GFN2-xTB          :
 * total energy  :   -90.4770518 Eh     change       -0.1647095E-08 Eh
 * total energy  :   -90.4817716 Eh     change       -0.4719809E-02 Eh
 * total energy  :   -90.4832407 Eh     change       -0.1469111E-02 Eh
 * total energy  :   -90.4834444 Eh     change       -0.2037195E-03 Eh
 * total energy  :   -90.4836177 Eh     change       -0.1732894E-03 Eh
 * total energy  :   -90.4837121 Eh     change       -0.9436495E-04 Eh
 * total energy  :   -90.4838553 Eh     change       -0.1432600E-03 Eh
 * total energy  :   -90.4840141 Eh     change       -0.1588281E-03 Eh
 * total energy  :   -90.4841530 Eh     change       -0.1388251E-03 Eh
 * total energy  :   -90.4842643 Eh     change       -0.1112873E-03 Eh
 * total energy  :   -90.4849920 Eh     change       -0.3544760E-05 Eh
 * total energy  :   -90.4849945 Eh     change       -0.2460491E-05 Eh
 * total energy  :   -90.4849960 Eh     change       -0.1507375E-05 Eh
 * total energy  :   -90.4849969 Eh     change       -0.9559385E-06 Eh
 * total energy  :   -90.4849976 Eh     change       -0.6744138E-06 Eh
 * total energy  :   -90.4849982 Eh     change       -0.5627152E-06 Eh
 * total energy  :   -90.4849984 Eh     change       -0.2375010E-06 Eh
 * total energy  :   -90.4849985 Eh     change       -0.1104651E-06 Eh
 * total energy  :   -90.4849985 Eh     change       -0.8662383E-08 Eh
   *** GEOMETRY OPTIMIZATION CONVERGED AFTER 66 ITERATIONS ***

 final structure:
================
57
 xtb: 6.7.1 (edcfbbe)
C           -5.60560105281894       -2.47154773169193       -0.19797849770315
C           -5.71185706879690       -1.08927242559579       -0.09964124693262
C           -4.57031342611660       -0.31259362282003       -0.03186532305474
C           -3.30784245992725       -0.89001140328686       -0.06122116355850
C           -3.21025474779807       -2.28012692792203       -0.16199694053535
C           -4.36366506624001       -3.06638209681249       -0.22936088778924
O           -2.02546076610715       -2.94168513431571       -0.20170953637410
C           -0.86312268518000       -2.23955699518460       -0.15149264203198
C            0.32822026007964       -2.98138750308189       -0.21037546731329
C            1.53661880572190       -2.34933990969327       -0.17071425396935
C            1.62777902628861       -0.93319685960431       -0.06738051416684
C            2.91238222147279       -0.32299219038116       -0.03519714841117
C            3.14375890043410        1.06910831306115        0.06386117639811
C            4.41359830558390        1.56490093178311        0.07044161610144
C            5.53956720770883        0.69119566928053       -0.02129668880910
C            6.86261076068838        1.10527637255470       -0.02186019466189
C            7.90574030902771        0.18632028240453       -0.11360374330153
C            7.62511558383407       -1.16973526572642       -0.20289749415841
C            6.32135927377129       -1.62135720683666       -0.20354187593042
C            5.24302889479394       -0.71246962912967       -0.11331661694062
N            3.99753709741665       -1.14081350758371       -0.11049364529141
C            0.41527637495689       -0.21237188756758       -0.00652067393487
C           -0.80796734728582       -0.83961619792314       -0.04775703317788
C           -2.07621777274568       -0.02403113264974        0.01662387992065
C           -2.10059178957932        0.83620926479293        1.26921396290795
C           -2.10155345538320        0.42637576267285        2.58415704498931
C           -2.12656843311466        1.39554917797090        3.57919258668858
C           -2.14964964176647        2.74393397688688        3.25635376087638
C           -2.14782640405954        3.15934173823906        1.93388136499634
C           -2.12294659128589        2.19792431978133        0.93664863131371
C           -2.11519797591014        2.32180898586232       -0.51366337190083
C           -2.12752605930193        3.43824987143998       -1.33394785384649
C           -2.11469192389902        3.25253732419154       -2.70761509097895
C           -2.09003453335055        1.97813225258102       -3.25367184916693
C           -2.07722793803109        0.85452427240243       -2.43685845782499
C           -2.08989598443474        1.03599206780438       -1.07165313166093
H           -6.49406263727863       -3.08197934840690       -0.25048837543370
H           -6.68347350464572       -0.62047424065686       -0.07575957139289
H           -4.64880873681024        0.76190177278353        0.04494964531725
H           -4.24960581673318       -4.13657466694452       -0.30570145635425
H            0.25577699760337       -4.05545513106245       -0.28808218353137
H            2.45747573291872       -2.90935779434358       -0.21607389035501
H            2.29850729412120        1.73593332483597        0.13000219380828
H            4.59175986226271        2.62825383084721        0.14120715812198
H            7.07906404395197        2.16203604947916        0.05189568784747
H            8.92838599689775        0.53197423015718       -0.11381889963050
H            8.43470913718203       -1.88195410225736       -0.27350121968817
H            6.09418838605937       -2.67377524132529       -0.27624411041031
H            0.43028078283914        0.86332093024654        0.07239943787028
H           -2.08262741103911       -0.62339571295564        2.83949184116339
H           -2.12731853962146        1.09384795180886        4.61636650560546
H           -2.16897561455675        3.47992604964626        4.04709646593380
H           -2.16534280557497        4.21055514540634        1.68733687471277
H           -2.14639084722379        4.43270954280522       -0.91350449676529
H           -2.12387708437892        4.11176721999280       -3.36255209345187
H           -2.07996353262664        1.85598931832866       -4.32677705109577
H           -2.05642487017155       -0.13696226179460       -2.86593805149868

          :  Hamiltonian                  GFN2-xTB          :
         :: gradient norm              0.000082365276 Eh/a0 ::
         :: HOMO-LUMO gap              0.668363226435 eV    ::
         :: SCC energy               -92.142074837819 Eh    ::
         :: -> dispersion             -0.080319937637 Eh    ::
         :: -> Gsolv                  -0.036902266169 Eh    ::
         :: repulsion energy           1.657076320200 Eh    ::

    * Orbital Energies and Occupations

         #    Occupation            Energy/Eh            Energy/eV
      -------------------------------------------------------------
         1        2.0000           -0.7435595             -20.2333
       ...           ...                  ...                  ...
        73        2.0000           -0.4233655             -11.5204
        74        2.0000           -0.4230996             -11.5131
        75        2.0000           -0.4214613             -11.4685
        76        2.0000           -0.4153283             -11.3017
        77        2.0000           -0.4067294             -11.0677
        78        2.0000           -0.4052243             -11.0267
        79        2.0000           -0.4026120             -10.9556
        80        2.0000           -0.3979674             -10.8292
        81        2.0000           -0.3850459             -10.4776
        82        2.0000           -0.3843945             -10.4599
        83        1.5419           -0.3695915             -10.0571
        84        1.4581           -0.3692720             -10.0484
        85        1.0000           -0.2816781              -7.6649 (HOMO)
        86        0.0000           -0.2571164              -6.9965 (LUMO)
        87                         -0.2486030              -6.7648
        88                         -0.2362284              -6.4281
        89                         -0.2327291              -6.3329
        90                         -0.2305198              -6.2728
        91                         -0.2257976              -6.1443
        92                         -0.2218155              -6.0359
        93                         -0.2062684              -5.6128
        94                         -0.1944118              -5.2902
        95                         -0.1877922              -5.1101
        96                         -0.1461865              -3.9779
       ...                                ...                  ...
       165                          0.7232405              19.6804
      -------------------------------------------------------------
                  HL-Gap            0.0245616 Eh            0.6684 eV

     #   Z          covCN         q      C6AA      α(0)
     1   6 C        2.919    -0.029    28.726     8.789
     2   6 C        2.918    -0.035    28.869     8.811
     3   6 C        2.924    -0.034    28.842     8.807
     4   6 C        2.976    -0.010    28.250     8.718
     5   6 C        2.882     0.135    25.043     8.204
     6   6 C        2.917    -0.052    29.284     8.874
     7   8 O        1.710    -0.223    17.704     5.681
     8   6 C        2.880     0.125    25.264     8.240
     9   6 C        2.910    -0.052    29.280     8.873
    10   6 C        2.923    -0.036    28.895     8.815
    11   6 C        2.972     0.002    27.980     8.677
    12   6 C        2.921     0.065    26.533     8.447
    13   6 C        2.910    -0.041    29.025     8.834
    14   6 C        2.915    -0.050    29.240     8.867
    15   6 C        2.979     0.003    27.944     8.671
    16   6 C        2.916    -0.047    29.178     8.858
    17   6 C        2.914    -0.039    28.972     8.826
    18   6 C        2.913    -0.033    28.812     8.802
    19   6 C        2.919    -0.058    29.447     8.899
    20   6 C        2.928     0.099    25.804     8.331
    21   7 N        1.853    -0.221    26.677     7.655
    22   6 C        2.923    -0.049    29.224     8.865
    23   6 C        2.971    -0.008    28.220     8.714
    24   6 C        3.948     0.019    20.190     6.385
    25   6 C        3.056     0.002    27.925     8.666
    26   6 C        2.914    -0.033    28.813     8.802
    27   6 C        2.923    -0.031    28.775     8.797
    28   6 C        2.921    -0.032    28.790     8.799
    29   6 C        2.915    -0.034    28.842     8.807
    30   6 C        3.033     0.002    27.951     8.672
    31   6 C        3.033     0.002    27.952     8.672
    32   6 C        2.915    -0.034    28.843     8.807
    33   6 C        2.921    -0.032    28.790     8.799
    34   6 C        2.923    -0.031    28.775     8.797
    35   6 C        2.914    -0.033    28.811     8.802
    36   6 C        3.056     0.002    27.927     8.667
    37   1 H        0.926     0.050     2.316     2.380
    38   1 H        0.926     0.047     2.358     2.401
    39   1 H        0.926     0.042     2.421     2.433
    40   1 H        0.926     0.055     2.260     2.351
    41   1 H        0.926     0.053     2.279     2.361
    42   1 H        0.926     0.056     2.241     2.341
    43   1 H        0.926     0.039     2.465     2.455
    44   1 H        0.926     0.035     2.511     2.478
    45   1 H        0.925     0.033     2.539     2.492
    46   1 H        0.926     0.030     2.589     2.516
    47   1 H        0.926     0.032     2.553     2.499
    48   1 H        0.926     0.037     2.486     2.466
    49   1 H        0.926     0.037     2.490     2.468
    50   1 H        0.926     0.027     2.632     2.537
    51   1 H        0.926     0.035     2.511     2.478
    52   1 H        0.926     0.036     2.501     2.473
    53   1 H        0.926     0.037     2.484     2.465
    54   1 H        0.926     0.037     2.485     2.465
    55   1 H        0.926     0.036     2.501     2.473
    56   1 H        0.926     0.035     2.511     2.478
    57   1 H        0.926     0.027     2.633     2.537

molecular dipole:
                 x           y           z       tot (Debye)
 q only:       -1.679       0.411       0.036
   full:       -1.608       0.644       0.048       4.404

 projected vibrational frequencies (cm⁻¹)
eigval :       -0.00    -0.00     0.00     0.00     0.00     0.00
eigval :       14.98    27.15    29.38    39.67    43.94    60.31
eigval :       63.60    83.38    98.88   129.51   139.20   145.90
eigval :      160.13   167.96   178.33   205.02   212.85   239.28
eigval :      256.03   291.92   295.98   316.36   332.66   333.59
eigval :      385.21   400.50   401.49   411.44   414.10   416.50
eigval :      424.09   453.85   457.65   472.20   473.73   488.75
eigval :      496.07   504.98   512.77   521.74   537.32   561.56
eigval :      565.16   585.71   589.37   596.04   615.81   619.41
eigval :      663.20   663.41   680.79   683.22   687.33   706.14
eigval :      710.55   728.00   731.17   752.20   758.87   768.42
eigval :      777.05   785.69   794.36   800.53   808.65   832.49
eigval :      837.35   838.47   852.84   861.36   870.33   871.45
eigval :      878.27   880.55   891.10   897.99   901.67   909.52
eigval :      911.44   913.86   919.65   922.68   926.52   928.99
eigval :      959.76  1002.23  1053.00  1071.17  1073.06  1077.25
eigval :     1081.03  1083.48  1102.73  1116.38  1125.41  1140.48
eigval :     1141.68  1162.48  1170.51  1171.27  1173.09  1179.04
eigval :     1196.82  1199.96  1201.51  1209.51  1218.69  1223.07
eigval :     1228.61  1240.37  1246.18  1256.68  1259.96  1264.83
eigval :     1276.92  1281.35  1322.82  1324.11  1331.18  1351.15
eigval :     1364.53  1364.96  1385.77  1395.75  1412.14  1421.24
eigval :     1421.81  1426.55  1428.05  1430.61  1457.97  1460.01
eigval :     1466.96  1469.07  1487.08  1506.45  1537.09  1554.81
eigval :     1556.41  1578.98  1583.54  1594.56  1598.26  1600.62
eigval :     3060.00  3064.45  3070.11  3071.11  3071.44  3074.12
eigval :     3074.72  3082.03  3083.03  3083.80  3086.42  3087.02
eigval :     3089.10  3090.10  3091.16  3091.72  3093.86  3097.85
eigval :     3100.42  3104.19  3104.97

   temp. (K)  partition function   enthalpy   heat capacity  entropy
                                   cal/mol     cal/K/mol   cal/K/mol   J/K/mol
 298.15  VIB  0.846E+11            15455.549    102.900     93.328
         ROT  0.302E+08              888.752      2.981     37.211
         INT  0.256E+19            16344.301    105.881    130.540
         TR   0.953E+28             1481.254      4.968     44.244
         TOT                       17825.5553   110.8489   174.7835   731.2943

       T/K    H(0)-H(T)+PV         H(T)/Eh          T*S/Eh         G(T)/Eh
   ------------------------------------------------------------------------
    298.15    0.284068E-01    0.456498E+00    0.830453E-01    0.373452E+00
   ------------------------------------------------------------------------

         :::::::::::::::::::::::::::::::::::::::::::::::::::::
         ::                  THERMODYNAMIC                  ::
         :::::::::::::::::::::::::::::::::::::::::::::::::::::
         :: total free energy         -90.111546154195 Eh   ::
         ::.................................................::
         :: total energy              -90.484998519328 Eh   ::
         :: zero point energy           0.428090830807 Eh   ::
         :: G(RRHO) w/o ZPVE           -0.054638465674 Eh   ::
         :: G(RRHO) contrib.            0.373452365133 Eh   ::
         :::::::::::::::::::::::::::::::::::::::::::::::::::::

           -------------------------------------------------
          | TOTAL ENERGY              -90.484998519328 Eh   |
          | TOTAL ENTHALPY            -90.028500858017 Eh   |
          | TOTAL FREE ENERGY         -90.111546154195 Eh   |
          | GRADIENT NORM               0.000083759670 Eh/α |
          | HOMO-LUMO GAP               0.668355854878 eV   |
           -------------------------------------------------

 * finished run on 2025/08/26 at 04:00:34.394
