   * xtb version 6.7.1 (edcfbbe) compiled by 'albert@albert-system' on 2024-07-22

   ID    Z sym.   atoms
    1    8 O      1, 21, 67
    2   15 P      2, 66
    3    6 C      3-20, 22-34, 36-65, 68-79
    4    7 N      35
    5    1 H      80-130

          program call               : xtb data2507/toluene/9CzFDPEPO/9CzFDPEPO_toluene_T1_crest.xyz --gfn 2 --uhf 2 --gbsa toluene --ohess vtight --parallel 40 --molden --ceasefiles --namespace data2507/toluene/9CzFDPEPO/9CzFDPEPO_toluene_T1_finalOpt
      * Solvation model:               GBSA
        Solvent                        toluene
        Solvent mass                       9.2140E+01 g/mol
          :  Hamiltonian                  GFN2-xTB          :
 * total energy  :  -202.6029722 Eh     change       -0.5964642E-07 Eh
 * total energy  :  -202.6032614 Eh     change       -0.2891049E-03 Eh
 * total energy  :  -202.6034324 Eh     change       -0.1710683E-03 Eh
 * total energy  :  -202.6034834 Eh     change       -0.5101965E-04 Eh
 * total energy  :  -202.6035710 Eh     change       -0.8756262E-04 Eh
 * total energy  :  -202.6036367 Eh     change       -0.6569728E-04 Eh
 * total energy  :  -202.6036841 Eh     change       -0.4741447E-04 Eh
 * total energy  :  -202.6037335 Eh     change       -0.4939089E-04 Eh
 * total energy  :  -202.6037596 Eh     change       -0.2606055E-04 Eh
 * total energy  :  -202.6038082 Eh     change       -0.4862353E-04 Eh
 * total energy  :  -202.6041386 Eh     change       -0.3468589E-06 Eh
 * total energy  :  -202.6041389 Eh     change       -0.3682400E-06 Eh
 * total energy  :  -202.6041394 Eh     change       -0.4308046E-06 Eh
 * total energy  :  -202.6041398 Eh     change       -0.3980142E-06 Eh
 * total energy  :  -202.6041402 Eh     change       -0.3803137E-06 Eh
 * total energy  :  -202.6041405 Eh     change       -0.3418969E-06 Eh
 * total energy  :  -202.6041408 Eh     change       -0.2889827E-06 Eh
 * total energy  :  -202.6041411 Eh     change       -0.3005339E-06 Eh
 * total energy  :  -202.6041411 Eh     change       -0.1252138E-07 Eh
   *** GEOMETRY OPTIMIZATION CONVERGED AFTER 68 ITERATIONS ***

 final structure:
================
130
 xtb: 6.7.1 (edcfbbe)
O           -7.14091447519937       -1.22289830614260       -0.96705239854079
P           -7.33985244451382        0.09435561389763       -0.33305106441513
C           -9.06771471105112        0.65730031903375       -0.44244136393394
C          -10.00185324948016       -0.21821131213735       -0.97719616970965
C          -11.32606234622256        0.16696085239298       -1.09559501568303
C          -11.71500415550584        1.43164937029731       -0.68467978856779
C          -10.78115495404018        2.31119224025457       -0.15709064497495
C           -9.45801210576817        1.92835235489512       -0.03676187757219
C           -6.38450617235047        1.44875340863733       -1.08219885652318
C           -6.10041627802350        1.33991077890154       -2.43581580732874
C           -5.40751733956830        2.34760662410307       -3.08208741873299
C           -5.00053861948278        3.46806426906753       -2.37544684504791
C           -5.29306428081845        3.58293546100224       -1.02547005689284
C           -5.98894543733417        2.57827434479654       -0.37774412184879
C           -6.93467488503579        0.14880931359529        1.44220666700851
C           -7.84472471759451        0.29277004942573        2.47405472683766
C           -7.40221299484591        0.31422011630833        3.78731421837025
C           -6.04811420471498        0.18365884594081        4.06563497651446
C           -5.12850211093750        0.02505612470701        3.04635687544995
C           -5.57335280187029       -0.00186682572083        1.72801619353933
O           -4.77153449191711       -0.22310517526229        0.65138940406451
C           -3.45784948145370        0.14757240806357        0.70590958002874
C           -3.02164785542951        1.39054999357264        1.20368119106053
C           -1.71094894104689        1.75021671459754        1.14500090352217
C           -0.69609813513745        0.87875695988427        0.58692094211095
C            0.65510369361309        1.25293455859283        0.48783302511557
C            1.18330631835327        2.42761595414718        1.12602095736406
C            2.49906078324160        2.77044585657311        1.03502917757292
C            3.41535348779565        1.98838847599281        0.30632674239803
C            4.84853497007739        2.41595567614249        0.13485769801481
C            5.80841460307559        1.25422867192512        0.02294849066960
C            5.63795344782053        0.13015082151047        0.82615886991593
C            6.53559690289176       -0.91701971347756        0.77861054349252
C            7.63041735605281       -0.85877346104285       -0.08043557176532
N            8.54180388164124       -1.92217081195946       -0.13991200453044
C            9.91364440103693       -1.81320629778816       -0.03837368541542
C           10.69491649550578       -0.69048852900635        0.20209641192057
C           12.06417147776443       -0.86387075104380        0.28408549594458
C           12.64740322688059       -2.12093095429646        0.14227021078107
C           11.87202313679508       -3.24640401922033       -0.07196970177065
C           10.49548622520191       -3.09738321543184       -0.15870415379384
C            9.40817831935432       -4.02074202809644       -0.34849573347737
C            9.34316026847789       -5.39256003974611       -0.54408655296632
C            8.10230098897491       -5.97807765353926       -0.72077340313019
C            6.93979955010196       -5.21077829641869       -0.71760832553636
C            6.97959691741690       -3.84209283713772       -0.52558878617147
C            8.22057678162059       -3.25162399583520       -0.32528034826431
C            7.81187332592319        0.26637504764446       -0.88030122084098
C            6.91148327790429        1.31220959961090       -0.82072354508522
C            4.85807705101886        3.35024793934690       -1.06435637153774
C            4.49822763616778        3.08034422999791       -2.36887745903729
C            4.55691593809421        4.10691801861021       -3.30069706692319
C            4.95402663801747        5.38446679038396       -2.92844105821188
C            5.30784023451800        5.66328298608692       -1.61852939861852
C            5.25935346747915        4.64107824458461       -0.68369750141276
C            5.57701194672782        4.62942880902658        0.73361817642677
C            6.04396511326258        5.63256511615837        1.56880795180999
C            6.27038889566493        5.33497555221513        2.90301725771893
C            6.03562879495669        4.05981376515772        3.39558447898221
C            5.56844120161698        3.05001557457575        2.56336766283248
C            5.33827442288622        3.34143288186294        1.23629133822189
C            2.91421764486042        0.85323690255927       -0.36485507394315
C            1.60490188079591        0.49074490703929       -0.27515440510694
C           -1.16939938779997       -0.40020775443272        0.15104534518910
C           -2.48607293329241       -0.75286723412193        0.19212022943783
P           -2.92023163262423       -2.45511789908670       -0.25384659200076
O           -1.71395116122493       -3.26209337541078       -0.54494682288703
C           -4.01757790843243       -2.41209267784738       -1.70415099033821
C           -3.94346790337819       -1.36460270192237       -2.60768664575965
C           -4.64629459316196       -1.43511274034982       -3.79792177968266
C           -5.42630134143672       -2.54406680861532       -4.07901227982925
C           -5.49400806813471       -3.59419731482815       -3.17746129078296
C           -4.77915633562530       -3.53477715307268       -1.99577714355243
C           -3.86369929243376       -3.12519105713822        1.15475494157658
C           -5.24898755968408       -3.10296614643535        1.24352240104620
C           -5.86974902755043       -3.62909802633077        2.36309465776956
C           -5.11635964886407       -4.16943153245164        3.39322882349899
C           -3.73319298778981       -4.19136372867374        3.30514783742707
C           -3.10862123727098       -3.67042975895262        2.18664929063439
H           -9.67019476068003       -1.19752254069272       -1.29393788518866
H          -12.05238049762091       -0.51717060633891       -1.50952724658609
H          -12.74749339241920        1.73477333809227       -0.77755105481173
H          -11.08654847957288        3.29809205694701        0.15872236073786
H           -8.72511879565367        2.60904242997980        0.37116731913207
H           -6.42036132951345        0.44940245534235       -2.95866472962456
H           -5.18432621346063        2.26143408837788       -4.13549566732906
H           -4.45465799321440        4.25381787106886       -2.87658300255292
H           -4.97642312374465        4.45796396971089       -0.47645358582207
H           -6.21719667461839        2.66295158404095        0.67636518220593
H           -8.89549166549285        0.39843361297613        2.24488728110204
H           -8.11068065736862        0.43322439037650        4.59239487114984
H           -5.70491939580701        0.19429371497404        5.08907255354912
H           -4.07700763282263       -0.10405115035605        3.25846807130260
H           -3.75793628087476        2.07162507246264        1.60646424867958
H           -1.43098823577129        2.73008526127303        1.49235349119499
H            0.52989922945502        3.04583068520989        1.71936211228847
H            2.85394261514599        3.65816206742649        1.53915153651170
H            4.78993623744980        0.07503843071047        1.49290213873017
H            6.40353199780056       -1.77625534545803        1.41898270808477
H           10.24962749754032        0.28406877397008        0.33164043361702
H           12.69468186878385       -0.00624106805358        0.46675841997915
H           13.72100137795980       -2.21572744655230        0.21034344494405
H           12.32550256774892       -4.22158222110741       -0.16497758946607
H           10.24361393688768       -5.98759539761216       -0.56237721820080
H            8.03042322201132       -7.04489054100334       -0.87253303056951
H            5.98625519576257       -5.69394692623805       -0.87220261215050
H            6.07430850966274       -3.25476605137435       -0.54190584898721
H            8.64907332564422        0.30836034739064       -1.56080673418954
H            7.06087329446575        2.17813024705282       -1.44834608603218
H            4.18243299131543        2.09077584710702       -2.66393973169455
H            4.28747979005272        3.90956451390307       -4.32810610967240
H            4.98523186765121        6.16956916214556       -3.67011073553786
H            5.61386029530433        6.65845093477445       -1.33166838744797
H            6.22829667308155        6.62613492554887        1.18802017266464
H            6.63445336596573        6.10475146897150        3.56824628852924
H            6.21911699148271        3.84756390166177        4.43882786645315
H            5.38867174130389        2.05968388895321        2.95429280722563
H            3.58964438757994        0.25646768691139       -0.96168440066969
H            1.26750255030598       -0.37745471752345       -0.81833031106478
H           -0.47717698693469       -1.15634424066207       -0.18807727799746
H           -3.33736326013866       -0.49887432068773       -2.37308030675431
H           -4.58166781149290       -0.62383855537609       -4.50860715078767
H           -5.98076705875376       -2.59283374725129       -5.00515474773139
H           -6.09967956635708       -4.46127670355194       -3.39846866803722
H           -4.80452947904703       -4.35554101835327       -1.29010954452829
H           -5.83428398274055       -2.67586731742558        0.44264357542215
H           -6.94817570535027       -3.61532236280529        2.42835576786849
H           -5.60805501927760       -4.57741320403813        4.26420357936050
H           -3.14361207388348       -4.61524775428264        4.10509628372019
H           -2.03119875999504       -3.68769192214479        2.08671937432138

          :  Hamiltonian                  GFN2-xTB          :
         :: gradient norm              0.000079539051 Eh/a0 ::
         :: HOMO-LUMO gap              0.400795985641 eV    ::
         :: SCC energy              -206.284122598592 Eh    ::
         :: -> dispersion             -0.207978159960 Eh    ::
         :: -> Gsolv                  -0.089687102688 Eh    ::
         :: repulsion energy           3.679981498374 Eh    ::

    * Orbital Energies and Occupations

         #    Occupation            Energy/Eh            Energy/eV
      -------------------------------------------------------------
         1        2.0000           -0.7382148             -20.0878
       ...           ...                  ...                  ...
       177        2.0000           -0.4061136             -11.0509
       178        2.0000           -0.4057156             -11.0401
       179        2.0000           -0.4031847             -10.9712
       180        2.0000           -0.4023452             -10.9484
       181        2.0000           -0.4001307             -10.8881
       182        2.0000           -0.3991427             -10.8612
       183        2.0000           -0.3987240             -10.8498
       184        2.0000           -0.3945228             -10.7355
       185        2.0000           -0.3855556             -10.4915
       186        2.0000           -0.3823235             -10.4036
       187        1.8885           -0.3690686             -10.0429
       188        1.1115           -0.3651244              -9.9355
       189        0.9994           -0.2696223              -7.3368 (HOMO)
       190        0.0003           -0.2548928              -6.9360 (LUMO)
       191        0.0002           -0.2545618              -6.9270
       192        0.0000           -0.2519647              -6.8563
       193        0.0000           -0.2493538              -6.7853
       194        0.0000           -0.2484484              -6.7606
       195                         -0.2399595              -6.5296
       196                         -0.2393073              -6.5119
       197                         -0.2376466              -6.4667
       198                         -0.2351875              -6.3998
       199                         -0.2345699              -6.3830
       200                         -0.2341980              -6.3729
       ...                                ...                  ...
       377                          1.2139929              33.0344
      -------------------------------------------------------------
                  HL-Gap            0.0147295 Eh            0.4008 eV

     #   Z          covCN         q      C6AA      α(0)
     1   8 O        0.808    -0.398    21.668     6.240
     2  15 P        4.102     0.068   157.246    22.526
     3   6 C        2.920     0.006    27.884     8.659
     4   6 C        3.018    -0.020    28.474     8.753
     5   6 C        2.918    -0.027    28.676     8.781
     6   6 C        2.920    -0.024    28.612     8.772
     7   6 C        2.919    -0.027    28.676     8.781
     8   6 C        2.979    -0.026    28.653     8.780
     9   6 C        2.921     0.014    27.692     8.629
    10   6 C        3.030    -0.019    28.462     8.751
    11   6 C        2.919    -0.026    28.657     8.779
    12   6 C        2.920    -0.025    28.639     8.776
    13   6 C        2.920    -0.027    28.681     8.782
    14   6 C        2.974    -0.024    28.591     8.771
    15   6 C        2.919    -0.012    28.312     8.726
    16   6 C        2.960    -0.024    28.612     8.774
    17   6 C        2.918    -0.038    28.936     8.821
    18   6 C        2.921    -0.026    28.650     8.778
    19   6 C        2.914    -0.055    29.366     8.886
    20   6 C        3.008     0.146    24.813     8.171
    21   8 O        1.723    -0.219    17.634     5.670
    22   6 C        2.927     0.112    25.536     8.287
    23   6 C        2.905    -0.054    29.333     8.881
    24   6 C        2.915    -0.047    29.161     8.855
    25   6 C        2.963    -0.006    28.174     8.706
    26   6 C        2.965     0.007    27.870     8.659
    27   6 C        2.915    -0.040    28.998     8.830
    28   6 C        2.911    -0.035    28.862     8.809
    29   6 C        2.982     0.009    27.821     8.652
    30   6 C        3.945     0.012    20.303     6.403
    31   6 C        2.978     0.020    27.567     8.612
    32   6 C        2.923    -0.030    28.739     8.791
    33   6 C        2.920    -0.041    29.016     8.833
    34   6 C        2.913     0.061    26.639     8.463
    35   7 N        2.802    -0.026    21.746     6.926
    36   6 C        3.074     0.047    26.862     8.498
    37   6 C        2.909    -0.046    29.148     8.853
    38   6 C        2.923    -0.032    28.804     8.801
    39   6 C        2.920    -0.037    28.914     8.818
    40   6 C        2.912    -0.031    28.776     8.796
    41   6 C        3.066    -0.014    28.294     8.722
    42   6 C        3.066    -0.014    28.297     8.723
    43   6 C        2.912    -0.031    28.776     8.796
    44   6 C        2.920    -0.036    28.908     8.817
    45   6 C        2.923    -0.032    28.795     8.800
    46   6 C        2.909    -0.046    29.140     8.852
    47   6 C        3.073     0.048    26.859     8.497
    48   6 C        2.921    -0.041    29.007     8.832
    49   6 C        2.923    -0.032    28.806     8.801
    50   6 C        3.061     0.005    27.847     8.654
    51   6 C        2.913    -0.033    28.834     8.805
    52   6 C        2.922    -0.033    28.817     8.803
    53   6 C        2.920    -0.033    28.828     8.805
    54   6 C        2.914    -0.034    28.853     8.808
    55   6 C        3.033     0.001    27.983     8.677
    56   6 C        3.033     0.001    27.964     8.674
    57   6 C        2.914    -0.035    28.865     8.810
    58   6 C        2.920    -0.033    28.815     8.803
    59   6 C        2.922    -0.033    28.815     8.803
    60   6 C        2.914    -0.034    28.852     8.808
    61   6 C        3.055     0.005    27.864     8.657
    62   6 C        2.911    -0.033    28.832     8.805
    63   6 C        2.915    -0.039    28.974     8.827
    64   6 C        3.035    -0.027    28.646     8.779
    65   6 C        2.906    -0.010    28.270     8.718
    66  15 P        4.099     0.042   158.365    22.606
    67   8 O        0.808    -0.411    21.917     6.276
    68   6 C        2.922     0.028    27.387     8.582
    69   6 C        2.996    -0.015    28.380     8.739
    70   6 C        2.920    -0.025    28.616     8.772
    71   6 C        2.921    -0.023    28.581     8.767
    72   6 C        2.920    -0.023    28.576     8.766
    73   6 C        3.011    -0.014    28.339     8.732
    74   6 C        2.920     0.016    27.651     8.623
    75   6 C        2.966    -0.024    28.593     8.771
    76   6 C        2.920    -0.028    28.692     8.784
    77   6 C        2.920    -0.026    28.656     8.778
    78   6 C        2.918    -0.029    28.726     8.789
    79   6 C        3.036    -0.021    28.506     8.757
    80   1 H        0.925     0.047     2.360     2.402
    81   1 H        0.926     0.043     2.408     2.427
    82   1 H        0.926     0.046     2.368     2.407
    83   1 H        0.926     0.046     2.376     2.410
    84   1 H        0.926     0.044     2.397     2.421
    85   1 H        0.926     0.043     2.404     2.425
    86   1 H        0.926     0.042     2.423     2.434
    87   1 H        0.926     0.046     2.373     2.409
    88   1 H        0.926     0.044     2.390     2.418
    89   1 H        0.925     0.035     2.520     2.483
    90   1 H        0.926     0.050     2.325     2.385
    91   1 H        0.926     0.054     2.271     2.357
    92   1 H        0.926     0.055     2.261     2.352
    93   1 H        0.926     0.041     2.433     2.439
    94   1 H        0.926     0.037     2.488     2.467
    95   1 H        0.926     0.046     2.368     2.406
    96   1 H        0.926     0.033     2.539     2.492
    97   1 H        0.926     0.030     2.584     2.514
    98   1 H        0.926     0.046     2.374     2.409
    99   1 H        0.926     0.047     2.353     2.399
   100   1 H        0.926     0.038     2.479     2.462
   101   1 H        0.926     0.037     2.488     2.466
   102   1 H        0.926     0.036     2.508     2.476
   103   1 H        0.926     0.038     2.478     2.461
   104   1 H        0.926     0.038     2.473     2.459
   105   1 H        0.926     0.035     2.513     2.479
   106   1 H        0.926     0.036     2.504     2.474
   107   1 H        0.926     0.037     2.492     2.468
   108   1 H        0.926     0.048     2.348     2.396
   109   1 H        0.926     0.044     2.395     2.420
   110   1 H        0.926     0.032     2.559     2.502
   111   1 H        0.926     0.033     2.547     2.495
   112   1 H        0.926     0.033     2.541     2.493
   113   1 H        0.926     0.035     2.517     2.481
   114   1 H        0.926     0.034     2.525     2.485
   115   1 H        0.926     0.033     2.541     2.493
   116   1 H        0.926     0.033     2.537     2.491
   117   1 H        0.926     0.033     2.549     2.497
   118   1 H        0.926     0.031     2.578     2.511
   119   1 H        0.926     0.030     2.590     2.517
   120   1 H        0.926     0.057     2.239     2.340
   121   1 H        0.925     0.028     2.612     2.528
   122   1 H        0.926     0.042     2.426     2.436
   123   1 H        0.926     0.044     2.395     2.420
   124   1 H        0.926     0.042     2.420     2.433
   125   1 H        0.925     0.034     2.526     2.485
   126   1 H        0.926     0.054     2.275     2.359
   127   1 H        0.926     0.037     2.486     2.466
   128   1 H        0.926     0.045     2.379     2.412
   129   1 H        0.926     0.044     2.398     2.422
   130   1 H        0.925     0.044     2.400     2.423

molecular dipole:
                 x           y           z       tot (Debye)
 q only:        1.963       2.697       1.169
   full:        1.645       2.914       1.256       9.084

 projected vibrational frequencies (cm⁻¹)
eigval :       -0.00    -0.00    -0.00     0.00     0.00     0.00
eigval :        4.82     6.34    10.14    14.97    17.25    18.35
eigval :       20.32    22.71    28.82    30.54    33.03    34.35
eigval :       36.53    40.83    44.20    48.38    49.66    53.11
eigval :       56.11    59.22    64.46    66.61    71.97    75.22
eigval :       76.93    82.27    90.31    93.35    95.69   101.93
eigval :      107.03   120.42   131.18   136.12   143.60   146.71
eigval :      156.03   159.34   161.73   172.44   177.58   184.61
eigval :      192.68   195.88   201.12   209.55   219.68   228.82
eigval :      232.62   237.51   241.09   258.52   262.95   271.89
eigval :      273.09   274.24   278.57   279.97   288.94   291.02
eigval :      306.94   315.66   326.06   357.15   360.22   361.93
eigval :      364.05   365.56   372.44   373.78   375.42   378.49
eigval :      385.54   389.99   390.86   398.71   405.74   408.50
eigval :      411.09   413.59   421.90   429.45   430.32   436.87
eigval :      437.44   449.81   452.57   459.36   470.37   480.45
eigval :      483.06   492.48   497.73   503.85   507.27   513.66
eigval :      516.16   517.22   520.23   535.86   536.88   539.26
eigval :      560.56   578.40   585.08   585.17   585.21   585.55
eigval :      586.16   587.97   590.74   595.73   599.02   618.49
eigval :      618.77   622.85   643.49   654.98   656.43   657.91
eigval :      659.76   660.65   661.83   670.03   671.77   675.50
eigval :      678.95   690.60   694.56   710.31   711.55   715.47
eigval :      720.50   722.73   727.80   740.94   742.24   743.87
eigval :      746.88   748.19   752.68   754.90   756.63   765.74
eigval :      768.81   776.73   778.30   778.79   781.97   787.52
eigval :      807.49   820.58   823.53   846.86   867.06   871.49
eigval :      873.89   875.16   879.71   880.47   880.74   881.83
eigval :      882.32   884.03   885.35   888.54   894.49   897.93
eigval :      901.12   902.01   903.82   904.65   905.08   905.60
eigval :      907.53   909.55   911.77   912.17   913.42   915.71
eigval :      919.13   920.18   921.71   923.53   924.61   927.02
eigval :      927.72   929.53   930.90   931.17   934.05   935.02
eigval :      935.74   937.35   950.12   952.06   969.97   972.15
eigval :      972.81   974.62   974.93   988.84  1000.95  1010.57
eigval :     1017.64  1021.62  1044.65  1067.33  1069.89  1073.08
eigval :     1075.52  1076.99  1078.15  1078.48  1078.93  1079.68
eigval :     1101.94  1109.81  1113.28  1114.30  1114.92  1115.39
eigval :     1119.66  1122.29  1124.83  1129.21  1132.70  1138.14
eigval :     1140.67  1144.44  1144.73  1150.89  1167.73  1170.25
eigval :     1171.56  1173.20  1175.15  1176.47  1177.99  1178.32
eigval :     1178.75  1179.26  1181.44  1186.96  1188.58  1189.83
eigval :     1191.34  1191.72  1196.43  1199.06  1201.48  1206.36
eigval :     1211.50  1219.80  1223.52  1230.36  1230.88  1233.17
eigval :     1235.60  1240.48  1246.33  1254.62  1265.75  1267.12
eigval :     1267.21  1270.66  1273.56  1274.93  1282.05  1285.12
eigval :     1289.50  1292.03  1315.56  1318.86  1320.20  1321.12
eigval :     1322.32  1322.74  1323.52  1327.44  1332.54  1345.08
eigval :     1348.74  1356.48  1360.35  1361.30  1370.83  1393.41
eigval :     1404.95  1415.12  1415.67  1417.77  1420.46  1421.61
eigval :     1422.25  1423.61  1425.20  1425.81  1431.59  1451.04
eigval :     1451.54  1451.83  1454.15  1457.13  1457.64  1463.37
eigval :     1465.81  1473.18  1481.54  1483.16  1485.19  1527.65
eigval :     1534.84  1559.01  1559.59  1567.54  1569.92  1576.64
eigval :     1579.05  1579.71  1580.31  1580.51  1581.62  1582.58
eigval :     1582.89  1583.32  1585.29  1587.21  1589.05  1589.50
eigval :     1591.60  1596.72  1606.25  3048.73  3049.32  3055.54
eigval :     3059.08  3067.32  3068.27  3070.10  3070.22  3070.57
eigval :     3070.65  3071.89  3073.33  3073.74  3074.15  3075.51
eigval :     3075.72  3076.24  3076.57  3076.79  3076.87  3077.21
eigval :     3077.46  3078.02  3080.06  3080.49  3080.69  3080.90
eigval :     3081.78  3082.97  3083.78  3083.96  3084.92  3085.71
eigval :     3086.68  3088.16  3089.61  3090.36  3090.51  3090.85
eigval :     3091.47  3091.83  3092.28  3094.72  3095.78  3096.45
eigval :     3097.09  3098.98  3100.91  3101.46  3104.09  3118.28

   temp. (K)  partition function   enthalpy   heat capacity  entropy
                                   cal/mol     cal/K/mol   cal/K/mol   J/K/mol
 298.15  VIB  0.775E+34            40322.202    244.746    256.455
         ROT  0.425E+09              888.752      2.981     42.463
         INT  0.329E+43            41210.955    247.727    298.918
         TR   0.330E+29             1481.254      4.968     46.712
         TOT                       42692.2087   252.6950   345.6302  1446.1166

       T/K    H(0)-H(T)+PV         H(T)/Eh          T*S/Eh         G(T)/Eh
   ------------------------------------------------------------------------
    298.15    0.680344E-01    0.105637E+01    0.164220E+00    0.892149E+00
   ------------------------------------------------------------------------

         :::::::::::::::::::::::::::::::::::::::::::::::::::::
         ::                  THERMODYNAMIC                  ::
         :::::::::::::::::::::::::::::::::::::::::::::::::::::
         :: total free energy        -201.711992216657 Eh   ::
         ::.................................................::
         :: total energy             -202.604141096512 Eh   ::
         :: zero point energy           0.988334562299 Eh   ::
         :: G(RRHO) w/o ZPVE           -0.096185682444 Eh   ::
         :: G(RRHO) contrib.            0.892148879856 Eh   ::
         :::::::::::::::::::::::::::::::::::::::::::::::::::::

           -------------------------------------------------
          | TOTAL ENERGY             -202.604141096512 Eh   |
          | TOTAL ENTHALPY           -201.547772169103 Eh   |
          | TOTAL FREE ENERGY        -201.711992216657 Eh   |
          | GRADIENT NORM               0.000080085217 Eh/α |
          | HOMO-LUMO GAP               0.400808932726 eV   |
           -------------------------------------------------

 * finished run on 2025/09/06 at 23:47:11.328
