   * xtb version 6.7.1 (edcfbbe) compiled by 'albert@albert-system' on 2024-07-22

   ID    Z sym.   atoms
    1    8 O      1, 21, 67
    2   15 P      2, 66
    3    6 C      3-20, 22-34, 36-65, 68-79
    4    7 N      35
    5    1 H      80-130

          program call               : xtb data2507/toluene/9CzFDPEPO/9CzFDPEPO.xyz --gfn 2 --gbsa toluene --ohess vtight --parallel 40 --molden --ceasefiles --namespace data2507/toluene/9CzFDPEPO/9CzFDPEPO_toluene_S0_preOpt
      * Solvation model:               GBSA
        Solvent                        toluene
        Solvent mass                       9.2140E+01 g/mol
          :  Hamiltonian                  GFN2-xTB          :
 * total energy  :  -202.6729328 Eh     change       -0.1069168E-08 Eh
 * total energy  :  -202.6936710 Eh     change       -0.2073816E-01 Eh
 * total energy  :  -202.7002241 Eh     change       -0.6553141E-02 Eh
 * total energy  :  -202.7022302 Eh     change       -0.2006059E-02 Eh
 * total energy  :  -202.7039882 Eh     change       -0.1757977E-02 Eh
 * total energy  :  -202.7049906 Eh     change       -0.1002484E-02 Eh
 * total energy  :  -202.7055808 Eh     change       -0.5901576E-03 Eh
 * total energy  :  -202.7059556 Eh     change       -0.3747622E-03 Eh
 * total energy  :  -202.7062107 Eh     change       -0.2550974E-03 Eh
 * total energy  :  -202.7064091 Eh     change       -0.1984151E-03 Eh
 * total energy  :  -202.7094417 Eh     change       -0.3719619E-06 Eh
 * total energy  :  -202.7094421 Eh     change       -0.3839551E-06 Eh
 * total energy  :  -202.7094424 Eh     change       -0.3353778E-06 Eh
 * total energy  :  -202.7094426 Eh     change       -0.2374141E-06 Eh
 * total energy  :  -202.7094428 Eh     change       -0.1740512E-06 Eh
 * total energy  :  -202.7094430 Eh     change       -0.1759613E-06 Eh
 * total energy  :  -202.7094431 Eh     change       -0.1621052E-06 Eh
 * total energy  :  -202.7094432 Eh     change       -0.1016172E-06 Eh
 * total energy  :  -202.7094433 Eh     change       -0.9817737E-07 Eh
   *** GEOMETRY OPTIMIZATION CONVERGED AFTER 135 ITERATIONS ***

 final structure:
================
130
 xtb: 6.7.1 (edcfbbe)
O           -7.53475833019975        0.01951159423637       -1.09719938876154
P           -7.48794532480694        0.01580233945704        0.37648946671216
C           -9.15297121044094        0.00913124636137        1.11453168085886
C          -10.23482685116385       -0.09285003108615        0.25162201792977
C          -11.52565301882783       -0.09115462374913        0.75120224585396
C          -11.73504891757435        0.01532550533081        2.11652216110693
C          -10.65540959034630        0.12389401149872        2.98048965507584
C           -9.36499823071507        0.12331880527402        2.48352379122728
C           -6.66962383626536        1.46494421607513        1.11188287740709
C           -6.66506875814820        2.63297047130947        0.36422358626486
C           -6.07872729402948        3.77878510578930        0.87196596953146
C           -5.50085319825067        3.75786130194226        2.13117092836322
C           -5.51053595708762        2.59272056753854        2.88190255446203
C           -6.09595424961963        1.44565072212655        2.37628647388448
C           -6.63857694871272       -1.42322588417087        1.10765064634008
C           -7.24331429106685       -2.44088517590474        1.82477282467134
C           -6.47631455873578       -3.47979594377166        2.32658727097696
C           -5.10878930986890       -3.50018463494728        2.10710042978445
C           -4.49347289234658       -2.49805131118407        1.37626986377498
C           -5.26489373416689       -1.46274062767748        0.86862092378702
O           -4.79169091266345       -0.46179215203190        0.07154398234100
C           -3.45609719461214       -0.13689359388097        0.12855056164388
C           -2.84435679266927        0.26699771451356        1.30746349931410
C           -1.51772484188662        0.65510571550404        1.29773464990296
C           -0.76945476585749        0.64184943915668        0.12073905064153
C            0.64572232378828        1.04036454974716        0.11982800324702
C            1.08342621495751        2.13420046714966        0.86203452883096
C            2.41513175917791        2.50388469023153        0.86040376691052
C            3.35161513531629        1.77962384610666        0.13381739785564
C            4.80579410429926        2.20339656560600        0.08223720163072
C            5.75134104479482        1.01865577113881        0.07176029632964
C            5.48731532801128       -0.08965826149602        0.87020827252455
C            6.36806497238534       -1.15178300320579        0.92307324123059
C            7.53620473135610       -1.12892973378667        0.16713211682762
N            8.42543015204156       -2.21474466594926        0.20755248134790
C            9.78150678958734       -2.14324428045965        0.45427908189237
C           10.56854527613104       -1.04011153079707        0.75531607401124
C           11.91392301105915       -1.25124879123529        0.98912089007212
C           12.47060122933166       -2.52788864313820        0.93486869919786
C           11.68933746285335       -3.63163910485524        0.65599206448066
C           10.33354145560140       -3.44516497854985        0.41701614263903
C            9.24857981914047       -4.33971241315332        0.12441872820734
C            9.16401781816415       -5.71452064382218       -0.05695224888778
C            7.93559301712003       -6.26858661280287       -0.35784860399049
C            6.80205661094702       -5.46857724615231       -0.49057763654188
C            6.86060170141107       -4.09928618683651       -0.31486531199027
C            8.08880151598315       -3.53836140142942        0.00747519717579
C            7.81006542132977       -0.02089275348871       -0.62755921438833
C            6.92970013265488        1.04435560645606       -0.66330816993712
C            4.97567746543469        3.13016148685968       -1.10878402203383
C            4.72828045924936        2.87649513171882       -2.44137165281852
C            4.93959499854108        3.89269007175603       -3.36416568980895
C            5.38456725047481        5.14150338816861       -2.95702442217141
C            5.62776717798774        5.40490232409645       -1.61842497221847
C            5.41898767591954        4.39425161307392       -0.69397093916405
C            5.58159190399534        4.37799717090234        0.75116050549420
C            6.00782211945609        5.36336482042053        1.62705093409936
C            6.06927924465006        5.06873952373389        2.97976260535454
C            5.71468302963594        3.81257257131612        3.44847207524310
C            5.28801424377603        2.82112295771161        2.57442443660846
C            5.21771465324746        3.11066352839578        1.22812774936837
C            2.91472092145197        0.69219748577913       -0.61619071279450
C            1.58292778826307        0.32890083409880       -0.62614590538777
C           -1.39388384980328        0.22701591484550       -1.05253618221867
C           -2.72411781319742       -0.15676410351419       -1.05601173507474
P           -3.45139343419892       -0.77006248112420       -2.60710483698668
O           -2.42974880599671       -0.86885033944727       -3.67193856013251
C           -4.79867381305471        0.35347052561786       -3.08212018896889
C           -4.87921078009991        1.64658608592710       -2.59221873297368
C           -5.83833320259069        2.50905606645849       -3.09445948368167
C           -6.71734392207123        2.07862649373779       -4.07365447488522
C           -6.63092497372682        0.78692191558975       -4.56820094983744
C           -5.66373964088853       -0.07184138429486       -4.08125967470898
C           -4.16566198203049       -2.39541932482534       -2.19634925956046
C           -5.51308616360871       -2.61186856293892       -1.94602374405827
C           -5.95329372027837       -3.88839906477892       -1.64079166948436
C           -5.05615521584727       -4.94224027961498       -1.57870552487778
C           -3.70978938831714       -4.72577724165552       -1.82736256980887
C           -3.26608334387533       -3.45341537630964       -2.13810572157033
H          -10.04351586093289       -0.17186588945783       -0.80967626736034
H          -12.36559322413372       -0.17230311002941        0.07679633218612
H          -12.74121057253251        0.01686493468047        2.50931361896697
H          -10.82187701019418        0.21021408325133        4.04433222101557
H           -8.52189174688468        0.21012705261906        3.15272114784220
H           -7.11424286469460        2.61553038636365       -0.61889393316711
H           -6.07251074476950        4.68793142991320        0.28855523177590
H           -5.04092640096480        4.65075019062210        2.52854721655522
H           -5.05871935022331        2.57845071852949        3.86338648114714
H           -6.09690907721682        0.53100415896470        2.95412456828486
H           -8.30993316010294       -2.41044434750355        1.99473012043733
H           -6.94582533791399       -4.27177462337012        2.88951486281847
H           -4.51038582080317       -4.30844191795364        2.49929745013097
H           -3.43053921535745       -2.52416041396210        1.18596358668769
H           -3.41446165829986        0.27487688300451        2.22444661386784
H           -1.04942571841285        0.95509801421490        2.22286458052638
H            0.37029980862136        2.71682690604418        1.42634763540821
H            2.72883942608275        3.36470331404092        1.43231684059000
H            4.57979209280676       -0.12548626035152        1.45447735557164
H            6.15997101797289       -2.00032650194012        1.55788802244881
H           10.14343548988503       -0.04938786592035        0.81508873160156
H           12.54811064871068       -0.40831393831568        1.22303154939290
H           13.52729489368645       -2.65170548868394        1.12212082975141
H           12.11880120040062       -4.62212415308582        0.62780123136017
H           10.04454567004551       -6.33343755090401        0.03190954353567
H            7.84836697869061       -7.33576478107748       -0.50131950832944
H            5.85700780156872       -5.92919985796314       -0.73997200730899
H            5.97963438504521       -3.48692923178318       -0.43529011282448
H            8.70918510368788       -0.00120999632993       -1.22514867912052
H            7.15905349787030        1.89941414636799       -1.28160683710541
H            4.37975612212649        1.90808686375230       -2.76797700431189
H            4.75282178412665        3.70731052154014       -4.41203689994647
H            5.54138298168258        5.91749329918913       -3.69247562631569
H            5.97084980874169        6.37924409415566       -1.30337542191884
H            6.28777724354316        6.34117700439532        1.26402710028494
H            6.39869553422066        5.82524887829318        3.67752517115600
H            5.77134170762302        3.60178151469731        4.50661956483062
H            5.01459817597589        1.84540277682761        2.94747536377194
H            3.62615806321912        0.11630416474597       -1.18996169250137
H            1.26645862074986       -0.52750595119530       -1.20347379701911
H           -0.85988264405526        0.20256750918465       -1.99227249071730
H           -4.19623464075050        1.97285117888097       -1.81913923839129
H           -5.89756547670135        3.52150436287451       -2.72167478186333
H           -7.47091665717405        2.75192849441094       -4.45595013291591
H           -7.31460846826792        0.45171469243572       -5.33471088824230
H           -5.56788315722915       -1.07868062609638       -4.46844461174923
H           -6.20721393805876       -1.78532409270075       -1.98044987017150
H           -7.00297955513773       -4.05691217410051       -1.44913432696936
H           -5.40729107278359       -5.93493384453840       -1.33841060870400
H           -3.00899282108300       -5.54658910839396       -1.78135861362355
H           -2.22268476273230       -3.26061062335180       -2.35161602466913

          :  Hamiltonian                  GFN2-xTB          :
         :: gradient norm              0.000035232630 Eh/a0 ::
         :: HOMO-LUMO gap              2.632206798478 eV    ::
         :: SCC energy              -206.411128801383 Eh    ::
         :: -> dispersion             -0.209332877278 Eh    ::
         :: -> Gsolv                  -0.087302991196 Eh    ::
         :: repulsion energy           3.701685452446 Eh    ::

    * Orbital Energies and Occupations

         #    Occupation            Energy/Eh            Energy/eV
      -------------------------------------------------------------
         1        2.0000           -0.7398396             -20.1321
       ...           ...                  ...                  ...
       176        2.0000           -0.4085132             -11.1162
       177        2.0000           -0.4080489             -11.1036
       178        2.0000           -0.4055724             -11.0362
       179        2.0000           -0.4039603             -10.9923
       180        2.0000           -0.4034452             -10.9783
       181        2.0000           -0.4025936             -10.9551
       182        2.0000           -0.3994957             -10.8708
       183        2.0000           -0.3985350             -10.8447
       184        2.0000           -0.3959346             -10.7739
       185        2.0000           -0.3868964             -10.5280
       186        2.0000           -0.3803177             -10.3490
       187        2.0000           -0.3773020             -10.2669
       188        2.0000           -0.3604902              -9.8094 (HOMO)
       189                         -0.2637584              -7.1772 (LUMO)
       190                         -0.2565204              -6.9803
       191                         -0.2549861              -6.9385
       192                         -0.2528274              -6.8798
       193                         -0.2509084              -6.8276
       194                         -0.2448050              -6.6615
       195                         -0.2424705              -6.5980
       196                         -0.2404154              -6.5420
       197                         -0.2384043              -6.4873
       198                         -0.2368126              -6.4440
       199                         -0.2355637              -6.4100
       ...                                ...                  ...
       377                          1.2177252              33.1360
      -------------------------------------------------------------
                  HL-Gap            0.0967318 Eh            2.6322 eV

     #   Z          covCN         q      C6AA      α(0)
     1   8 O        0.808    -0.398    21.664     6.239
     2  15 P        4.103     0.073   157.009    22.509
     3   6 C        2.920     0.006    27.889     8.660
     4   6 C        3.021    -0.020    28.473     8.753
     5   6 C        2.918    -0.027    28.672     8.781
     6   6 C        2.920    -0.024    28.604     8.770
     7   6 C        2.919    -0.027    28.675     8.781
     8   6 C        2.976    -0.026    28.657     8.781
     9   6 C        2.921     0.015    27.681     8.628
    10   6 C        3.028    -0.019    28.462     8.751
    11   6 C        2.919    -0.026    28.656     8.778
    12   6 C        2.920    -0.025    28.631     8.775
    13   6 C        2.920    -0.027    28.685     8.783
    14   6 C        2.976    -0.024    28.610     8.774
    15   6 C        2.920    -0.012    28.307     8.725
    16   6 C        2.960    -0.024    28.613     8.774
    17   6 C        2.919    -0.037    28.908     8.817
    18   6 C        2.922    -0.025    28.618     8.773
    19   6 C        2.915    -0.058    29.447     8.898
    20   6 C        3.008     0.150    24.731     8.158
    21   8 O        1.725    -0.238    17.947     5.720
    22   6 C        2.939     0.137    25.011     8.202
    23   6 C        2.915    -0.052    29.295     8.875
    24   6 C        2.926    -0.031    28.777     8.797
    25   6 C        2.974     0.011    27.762     8.643
    26   6 C        2.976     0.008    27.828     8.653
    27   6 C        2.924    -0.034    28.845     8.808
    28   6 C        2.922    -0.035    28.871     8.811
    29   6 C        2.979     0.018    27.594     8.617
    30   6 C        3.946     0.008    20.372     6.414
    31   6 C        2.979     0.016    27.655     8.626
    32   6 C        2.924    -0.033    28.820     8.804
    33   6 C        2.921    -0.043    29.077     8.843
    34   6 C        2.912     0.061    26.625     8.461
    35   7 N        2.802    -0.047    22.141     6.989
    36   6 C        3.076     0.048    26.854     8.496
    37   6 C        2.909    -0.052    29.288     8.874
    38   6 C        2.924    -0.035    28.877     8.812
    39   6 C        2.919    -0.043    29.071     8.842
    40   6 C        2.912    -0.035    28.876     8.812
    41   6 C        3.067    -0.019    28.414     8.741
    42   6 C        3.067    -0.019    28.414     8.741
    43   6 C        2.912    -0.035    28.874     8.811
    44   6 C        2.919    -0.043    29.071     8.842
    45   6 C        2.924    -0.035    28.879     8.813
    46   6 C        2.909    -0.052    29.291     8.874
    47   6 C        3.076     0.048    26.854     8.496
    48   6 C        2.921    -0.043    29.070     8.842
    49   6 C        2.923    -0.034    28.854     8.809
    50   6 C        3.055     0.003    27.893     8.661
    51   6 C        2.914    -0.034    28.851     8.808
    52   6 C        2.922    -0.033    28.815     8.803
    53   6 C        2.921    -0.033    28.825     8.804
    54   6 C        2.914    -0.035    28.865     8.810
    55   6 C        3.034     0.000    27.986     8.677
    56   6 C        3.034     0.001    27.979     8.676
    57   6 C        2.914    -0.035    28.863     8.810
    58   6 C        2.921    -0.033    28.828     8.805
    59   6 C        2.922    -0.033    28.824     8.804
    60   6 C        2.914    -0.035    28.860     8.809
    61   6 C        3.056     0.003    27.893     8.661
    62   6 C        2.922    -0.033    28.817     8.803
    63   6 C        2.924    -0.033    28.816     8.803
    64   6 C        3.018    -0.026    28.617     8.775
    65   6 C        2.917    -0.009    28.249     8.716
    66  15 P        4.086     0.069   157.189    22.522
    67   8 O        0.808    -0.411    21.916     6.275
    68   6 C        2.922     0.025    27.446     8.591
    69   6 C        2.985    -0.014    28.358     8.735
    70   6 C        2.921    -0.023    28.577     8.766
    71   6 C        2.921    -0.022    28.545     8.761
    72   6 C        2.920    -0.023    28.573     8.766
    73   6 C        3.024    -0.014    28.336     8.732
    74   6 C        2.921     0.014    27.704     8.631
    75   6 C        2.967    -0.023    28.584     8.770
    76   6 C        2.920    -0.027    28.675     8.781
    77   6 C        2.920    -0.025    28.634     8.775
    78   6 C        2.918    -0.028    28.710     8.787
    79   6 C        3.038    -0.021    28.503     8.757
    80   1 H        0.925     0.048     2.350     2.397
    81   1 H        0.926     0.043     2.411     2.428
    82   1 H        0.926     0.046     2.372     2.408
    83   1 H        0.926     0.046     2.373     2.409
    84   1 H        0.926     0.045     2.377     2.411
    85   1 H        0.926     0.045     2.381     2.413
    86   1 H        0.926     0.042     2.419     2.432
    87   1 H        0.926     0.046     2.367     2.406
    88   1 H        0.926     0.045     2.377     2.411
    89   1 H        0.925     0.037     2.490     2.468
    90   1 H        0.926     0.051     2.307     2.375
    91   1 H        0.926     0.055     2.255     2.348
    92   1 H        0.926     0.055     2.252     2.347
    93   1 H        0.926     0.039     2.466     2.456
    94   1 H        0.926     0.052     2.301     2.372
    95   1 H        0.926     0.061     2.187     2.313
    96   1 H        0.926     0.039     2.465     2.455
    97   1 H        0.926     0.037     2.490     2.468
    98   1 H        0.926     0.041     2.433     2.439
    99   1 H        0.926     0.043     2.416     2.430
   100   1 H        0.926     0.029     2.599     2.521
   101   1 H        0.926     0.029     2.597     2.520
   102   1 H        0.926     0.027     2.628     2.535
   103   1 H        0.926     0.029     2.594     2.519
   104   1 H        0.926     0.029     2.595     2.519
   105   1 H        0.926     0.027     2.630     2.536
   106   1 H        0.926     0.029     2.599     2.521
   107   1 H        0.926     0.029     2.595     2.519
   108   1 H        0.926     0.041     2.430     2.438
   109   1 H        0.926     0.038     2.469     2.457
   110   1 H        0.926     0.031     2.567     2.506
   111   1 H        0.926     0.032     2.560     2.502
   112   1 H        0.926     0.032     2.556     2.500
   113   1 H        0.926     0.034     2.534     2.489
   114   1 H        0.926     0.033     2.540     2.492
   115   1 H        0.926     0.032     2.553     2.499
   116   1 H        0.926     0.033     2.546     2.495
   117   1 H        0.926     0.033     2.549     2.497
   118   1 H        0.926     0.036     2.500     2.472
   119   1 H        0.926     0.035     2.512     2.478
   120   1 H        0.926     0.063     2.168     2.303
   121   1 H        0.925     0.029     2.596     2.520
   122   1 H        0.926     0.043     2.415     2.430
   123   1 H        0.926     0.045     2.382     2.413
   124   1 H        0.926     0.043     2.406     2.426
   125   1 H        0.925     0.036     2.502     2.474
   126   1 H        0.926     0.054     2.265     2.353
   127   1 H        0.926     0.039     2.463     2.454
   128   1 H        0.926     0.047     2.355     2.400
   129   1 H        0.926     0.046     2.372     2.408
   130   1 H        0.925     0.044     2.396     2.420

molecular dipole:
                 x           y           z       tot (Debye)
 q only:       -1.071       0.721       3.467
   full:       -1.267       0.763       3.665      10.046

 projected vibrational frequencies (cm⁻¹)
eigval :       -0.00    -0.00    -0.00    -0.00     0.00     0.00
eigval :        4.89     8.54     9.99    12.04    15.86    19.58
eigval :       21.89    25.20    26.36    28.51    29.94    32.95
eigval :       38.48    38.90    43.79    46.08    49.72    53.69
eigval :       56.61    59.72    63.71    67.71    70.32    73.85
eigval :       75.50    82.63    84.33    88.07    93.02   105.87
eigval :      113.20   125.32   133.77   141.15   144.00   146.59
eigval :      156.59   160.02   163.56   172.57   179.99   184.88
eigval :      193.05   196.90   205.66   217.70   227.90   229.87
eigval :      233.26   237.68   245.64   254.01   264.25   273.17
eigval :      274.05   274.47   277.68   286.20   290.05   311.60
eigval :      315.27   321.72   351.53   360.78   364.49   366.07
eigval :      369.64   370.47   374.38   377.57   383.82   386.03
eigval :      387.10   393.13   394.74   402.18   406.74   410.90
eigval :      413.68   419.60   427.99   434.29   437.84   443.22
eigval :      451.32   454.74   459.48   472.71   482.80   494.92
eigval :      496.69   500.22   506.78   510.09   514.97   518.53
eigval :      520.51   526.39   535.32   539.22   541.63   560.11
eigval :      577.54   580.82   585.28   585.33   586.32   586.58
eigval :      588.16   594.75   600.48   605.87   615.18   622.31
eigval :      624.83   654.10   657.61   658.10   661.06   661.92
eigval :      664.39   666.25   671.15   674.98   675.68   685.64
eigval :      690.71   695.05   707.46   709.22   712.09   716.21
eigval :      724.04   727.04   729.56   737.99   742.10   745.62
eigval :      747.27   753.57   756.11   761.78   766.30   768.85
eigval :      780.09   781.15   781.85   805.99   817.88   824.27
eigval :      842.00   866.01   868.73   870.39   872.13   873.49
eigval :      875.58   876.22   876.31   876.93   880.33   880.79
eigval :      882.39   894.03   896.22   900.41   900.96   901.21
eigval :      901.24   902.58   903.01   905.42   905.53   909.90
eigval :      911.08   911.91   914.03   919.01   921.60   921.81
eigval :      923.72   924.92   925.18   925.73   926.23   926.98
eigval :      929.44   931.38   931.69   932.33   932.95   934.83
eigval :      935.57   936.02   943.42   955.10   971.44   972.38
eigval :      974.70   975.57  1006.42  1009.81  1011.18  1024.75
eigval :     1043.75  1062.38  1068.62  1072.49  1074.86  1075.40
eigval :     1077.84  1078.55  1078.62  1080.49  1083.92  1085.39
eigval :     1107.14  1109.51  1113.60  1115.27  1116.02  1116.90
eigval :     1122.33  1123.88  1126.46  1131.67  1140.22  1142.67
eigval :     1144.30  1150.51  1155.18  1156.96  1173.46  1174.19
eigval :     1174.60  1175.02  1176.85  1177.90  1178.90  1179.13
eigval :     1179.63  1182.51  1184.05  1186.83  1189.80  1191.78
eigval :     1192.75  1201.41  1202.82  1204.14  1206.83  1209.52
eigval :     1220.49  1225.78  1227.00  1234.94  1235.30  1236.35
eigval :     1240.50  1245.50  1248.53  1260.50  1266.15  1270.83
eigval :     1270.99  1272.97  1274.30  1275.31  1284.01  1299.36
eigval :     1302.03  1304.93  1312.56  1314.52  1319.68  1319.81
eigval :     1320.44  1321.37  1323.32  1324.85  1325.25  1355.40
eigval :     1360.43  1363.95  1365.44  1382.99  1404.12  1407.93
eigval :     1421.04  1421.34  1423.96  1426.06  1426.73  1427.40
eigval :     1429.57  1429.89  1430.84  1439.19  1451.19  1452.36
eigval :     1452.92  1454.36  1456.75  1460.54  1470.38  1474.12
eigval :     1486.79  1490.80  1496.14  1552.58  1565.61  1569.64
eigval :     1574.15  1578.74  1580.31  1581.58  1581.82  1583.57
eigval :     1584.54  1584.84  1585.75  1586.00  1586.99  1587.07
eigval :     1587.55  1589.51  1592.49  1596.89  1597.15  1598.28
eigval :     1602.21  1602.92  1613.25  3048.13  3053.49  3056.07
eigval :     3057.01  3069.38  3069.74  3069.99  3070.25  3070.31
eigval :     3070.94  3071.38  3073.87  3074.18  3074.75  3074.96
eigval :     3075.23  3076.04  3076.08  3076.15  3076.40  3077.12
eigval :     3077.66  3078.50  3078.85  3079.62  3080.21  3081.03
eigval :     3082.86  3083.02  3083.75  3083.88  3084.71  3085.12
eigval :     3085.29  3086.64  3087.69  3087.79  3089.90  3090.08
eigval :     3090.19  3090.70  3090.88  3091.12  3092.08  3092.14
eigval :     3092.43  3092.61  3095.52  3098.29  3099.55  3101.16

   temp. (K)  partition function   enthalpy   heat capacity  entropy
                                   cal/mol     cal/K/mol   cal/K/mol   J/K/mol
 298.15  VIB  0.545E+34            39944.441    242.241    254.166
         ROT  0.431E+09              888.752      2.981     42.492
         INT  0.235E+43            40833.194    245.222    296.658
         TR   0.330E+29             1481.254      4.968     46.712
         TOT                       42314.4477   250.1902   343.3697  1436.6590

       T/K    H(0)-H(T)+PV         H(T)/Eh          T*S/Eh         G(T)/Eh
   ------------------------------------------------------------------------
    298.15    0.674324E-01    0.106032E+01    0.163146E+00    0.897174E+00
   ------------------------------------------------------------------------

         :::::::::::::::::::::::::::::::::::::::::::::::::::::
         ::                  THERMODYNAMIC                  ::
         :::::::::::::::::::::::::::::::::::::::::::::::::::::
         :: total free energy        -201.812269759715 Eh   ::
         ::.................................................::
         :: total energy             -202.709443345094 Eh   ::
         :: zero point energy           0.992887265444 Eh   ::
         :: G(RRHO) w/o ZPVE           -0.095713680066 Eh   ::
         :: G(RRHO) contrib.            0.897173585378 Eh   ::
         :::::::::::::::::::::::::::::::::::::::::::::::::::::

           -------------------------------------------------
          | TOTAL ENERGY             -202.709443345094 Eh   |
          | TOTAL ENTHALPY           -201.649123715017 Eh   |
          | TOTAL FREE ENERGY        -201.812269759715 Eh   |
          | GRADIENT NORM               0.000035288937 Eh/α |
          | HOMO-LUMO GAP               2.632207274548 eV   |
           -------------------------------------------------

 * finished run on 2025/09/06 at 22:24:34.016
