   * xtb version 6.7.1 (edcfbbe) compiled by 'albert@albert-system' on 2024-07-22

   ID    Z sym.   atoms
    1    8 O      1, 21, 67
    2   15 P      2, 66
    3    6 C      3-20, 22-34, 36-65, 68-79
    4    7 N      35
    5    1 H      80-130

          program call               : xtb data2507/toluene/9CzFDPEPO/9CzFDPEPO_toluene_S0_finalOpt.xtbopt.xyz --gfn 2 --uhf 2 --gbsa toluene --ohess vtight --parallel 40 --molden --ceasefiles --namespace data2507/toluene/9CzFDPEPO/9CzFDPEPO_toluene_T1_preOpt
      * Solvation model:               GBSA
        Solvent                        toluene
        Solvent mass                       9.2140E+01 g/mol
          :  Hamiltonian                  GFN2-xTB          :
 * total energy  :  -202.5956037 Eh     change       -0.4750120E-09 Eh
 * total energy  :  -202.5977833 Eh     change       -0.2179618E-02 Eh
 * total energy  :  -202.5990105 Eh     change       -0.1227137E-02 Eh
 * total energy  :  -202.6001512 Eh     change       -0.1140693E-02 Eh
 * total energy  :  -202.6007473 Eh     change       -0.5961382E-03 Eh
 * total energy  :  -202.6016331 Eh     change       -0.8857896E-03 Eh
 * total energy  :  -202.6021632 Eh     change       -0.5301584E-03 Eh
 * total energy  :  -202.6024030 Eh     change       -0.2397106E-03 Eh
 * total energy  :  -202.6026950 Eh     change       -0.2920171E-03 Eh
 * total energy  :  -202.6028880 Eh     change       -0.1930733E-03 Eh
 * total energy  :  -202.6040906 Eh     change       -0.3635984E-06 Eh
 * total energy  :  -202.6040909 Eh     change       -0.3347071E-06 Eh
 * total energy  :  -202.6040912 Eh     change       -0.3022878E-06 Eh
 * total energy  :  -202.6040915 Eh     change       -0.2895497E-06 Eh
 * total energy  :  -202.6040917 Eh     change       -0.2565528E-06 Eh
 * total energy  :  -202.6040921 Eh     change       -0.3187841E-06 Eh
 * total energy  :  -202.6040924 Eh     change       -0.2977935E-06 Eh
 * total energy  :  -202.6040927 Eh     change       -0.2935893E-06 Eh
 * total energy  :  -202.6040927 Eh     change       -0.2219991E-08 Eh
   *** GEOMETRY OPTIMIZATION CONVERGED AFTER 152 ITERATIONS ***

 final structure:
================
130
 xtb: 6.7.1 (edcfbbe)
O           -7.11244829551882       -1.40415197766841       -0.73724785038301
P           -7.33745556950726       -0.02139476592440       -0.27489288304556
C           -9.07660054143221        0.48662269393372       -0.44901207351647
C           -9.97856348822613       -0.45088808972148       -0.93139902975899
C          -11.30765650394519       -0.10833421908185       -1.10974319223861
C          -11.73457769198163        1.17466535475625       -0.80771931204098
C          -10.83310817111925        2.11530018661013       -0.33165157106971
C           -9.50449180913628        1.77618807795294       -0.15490194765460
C           -6.41682585557083        1.24758635444983       -1.19743184803936
C           -6.12856086247082        0.97115555364982       -2.52600405688044
C           -5.46081534032743        1.90376911048054       -3.29898050837307
C           -5.08512601084012        3.11724955625060       -2.74519630724562
C           -5.38259311757831        3.39918933285823       -1.42105514070846
C           -6.05209871085491        2.46918301595340       -0.64661706563436
C           -6.91897768910476        0.26981722487149        1.47400946202331
C           -7.81836602432241        0.52813226568537        2.49265896205576
C           -7.35881052752450        0.73053027623991        3.78461458790619
C           -5.99874032665426        0.66334322310339        4.05623667502873
C           -5.08929450357760        0.39048204701074        3.05212513094439
C           -5.55071073453788        0.18410473380710        1.75542068322340
O           -4.76047180093896       -0.16102527679063        0.70314262665056
C           -3.45179026778799        0.22884527889291        0.68772611987658
C           -3.02479942585529        1.52699129213902        1.02754180691050
C           -1.71882731988527        1.89063428322052        0.91325126851793
C           -0.70076801176953        0.96915353741924        0.45028142987835
C            0.64806060216688        1.33834560360027        0.30583099028920
C            1.17639185852890        2.56506332139919        0.83581118028416
C            2.49178005371455        2.89909417294979        0.71030952827298
C            3.40533083525556        2.05701902644471        0.04834570748232
C            4.83986938708749        2.46399108497162       -0.15883245129555
C            5.79719390974873        1.29448563936887       -0.15835455172020
C            5.61267870166568        0.24165452053600        0.73345624905398
C            6.50325311452826       -0.81168721882914        0.77972978485740
C            7.60566085011096       -0.83071875313410       -0.07131909990970
N            8.50370408384646       -1.90661899390693       -0.04132591031029
C            9.87586943054699       -1.81001414803341        0.06633297485280
C           10.67183838075576       -0.68345720147224        0.22754814740902
C           12.03775158338053       -0.86960472426196        0.33457481168590
C           12.60302876298556       -2.14208215778453        0.29435523306109
C           11.81259048213678       -3.26953386654945        0.16004545573504
C           10.43917584483600       -3.10792841763666        0.04954199771052
C            9.33970079376087       -4.02731164048811       -0.08077052278295
C            9.25481696192867       -5.40907424853687       -0.17033566194795
C            8.00652839746059       -5.98766006005632       -0.31493401587441
C            6.85631952545890       -5.20509007295395       -0.38478884757774
C            6.91585853092218       -3.82636286609901       -0.29867617426395
C            8.16404125477954       -3.24137318995200       -0.12966263354943
C            7.80556389575191        0.22726352827520       -0.95420221604319
C            6.91135258737225        1.27946239989922       -0.98934936763766
C            4.85683663908068        3.28078271486755       -1.44116410128343
C            4.50028339124323        2.89063154064062       -2.71584119887456
C            4.56745330859316        3.82438718059359       -3.74014522349423
C            4.97019220147706        5.12937331176941       -3.48888749367235
C            5.32020333496660        5.52914173269186       -2.20965664993658
C            5.26251177068547        4.60017785619661       -1.18258022833175
C            5.57356174749124        4.72183100962966        0.23096571357829
C            6.03824151278712        5.79868136515500        0.97013572660481
C            6.25640602893903        5.62814171579067        2.32777805265323
C            6.01637461625383        4.40556718983326        2.93739651367298
C            5.55122036206222        3.32249756156528        2.20184386972147
C            5.32857584567538        3.48785597384961        0.85198142933394
C            2.90184615155942        0.86947687142773       -0.52304382777312
C            1.59338481221217        0.51503830001105       -0.39574935368845
C           -1.16500872142069       -0.35345496192758        0.16253496658177
C           -2.47651619644853       -0.71410978978414        0.26309405073604
P           -2.88927585693992       -2.46396542432368        0.03209648899551
O           -1.67530811923063       -3.27878828208617       -0.19902371146388
C           -4.02576707199618       -2.61388772111590       -1.38060256546139
C           -3.94531128395222       -1.70756559617946       -2.42559355789786
C           -4.67406196037323       -1.92633884745578       -3.58154245007799
C           -5.48653725024722       -3.04261717148128       -3.68844538193595
C           -5.55965356045327       -3.95234409173436       -2.64605746012478
C           -4.81855303944239       -3.74635405879434       -1.49721939022765
C           -3.77208622483656       -2.96903130450400        1.54487192541714
C           -5.15270130024102       -2.94368100937222        1.68962673808103
C           -5.71973343271487       -3.32473215906016        2.89340090921862
C           -4.91769196616331       -3.72222445148190        3.95151683935273
C           -3.53930204225834       -3.74777828709192        3.80752042220079
C           -2.96856560026595       -3.37270316627067        2.60504807664104
H           -9.61793981276943       -1.44419051865084       -1.16087283480399
H          -12.00818525001365       -0.84039100060516       -1.48431540409149
H          -12.77122392510190        1.44455191691084       -0.94597322672324
H          -11.16815669192462        3.11594250301978       -0.10049404846933
H           -8.79634629555234        2.50542886759041        0.21055269953504
H           -6.42405685306395        0.01209138557838       -2.92796014570145
H           -5.23323254833843        1.68669124910297       -4.33241789770502
H           -4.55962678524237        3.84525380507693       -3.34549095609570
H           -5.08960098437226        4.34629150946627       -0.99152816210681
H           -6.28268420156527        2.68335252394041        0.38840199843081
H           -8.87428794497522        0.58109994667083        2.26910563784505
H           -8.05885816227066        0.93992130771440        4.57856687635344
H           -5.64241895527754        0.81443143695807        5.06393235434888
H           -4.03287915674315        0.30885740821442        3.26331991040780
H           -3.76557733927991        2.24384578019615        1.35245824514608
H           -1.44595779702689        2.90829297069124        1.13530154339426
H            0.52428009661550        3.23001969346131        1.37802590603112
H            2.84832880330386        3.82677232888816        1.13499024586532
H            4.75870406717356        0.24661118575112        1.39483615612570
H            6.35926166820667       -1.61576434361872        1.48592996709976
H           10.24007277517532        0.30441082834928        0.27796807879943
H           12.67965052600065       -0.00966223156401        0.45661866870305
H           13.67450664394176       -2.24697842979980        0.37900160828327
H           12.25225647186786       -4.25528916214983        0.14563645530895
H           10.14570043160674       -6.01743009291785       -0.13238979720920
H            7.91905246349493       -7.06179352988638       -0.38439074926542
H            5.89702963246821       -5.68458518598134       -0.51287060832164
H            6.02053550760738       -3.22800340783447       -0.37049957601978
H            8.65098642011031        0.21030405613691       -1.62556155533440
H            7.07378039855636        2.09180922771635       -1.68202031830854
H            4.18052336673905        1.87923222855015       -2.91778172593501
H            4.30075487951625        3.53203522305960       -4.74541864401313
H            5.00881769670134        5.84029262337270       -4.30163074359988
H            5.63055176337192        6.54540061188253       -2.01680361935485
H            6.22652630167717        6.75153712288572        0.49815238516695
H            6.61819280819013        6.45645429609939        2.91989075951540
H            6.19363679638897        4.29296897854730        3.99708059684912
H            5.36603403551104        2.37383991549859        2.68320796543309
H            3.57480368487789        0.22500376865136       -1.07100726977387
H            1.25215088254801       -0.39482161042904       -0.86321990087691
H           -0.46734169464325       -1.13515331747056       -0.09897086800677
H           -3.31284429456508       -0.83442221435348       -2.32592244631061
H           -4.60564129215078       -1.22515581177633       -4.40080978451983
H           -6.06190235247922       -3.20688034837048       -4.58823737598546
H           -6.19068749682038       -4.82535251399295       -2.73077639369285
H           -4.85029568700932       -4.45969386704435       -0.68373732948170
H           -5.77604099743072       -2.62618957078480        0.86681479499026
H           -6.79455296991858       -3.30915204125515        3.00344506798067
H           -5.36800024755252       -4.01604903061284        4.88833582822132
H           -2.91165678099675       -4.06071342124345        4.62931977985074
H           -1.89621296641863       -3.39614198299237        2.46174722490696

          :  Hamiltonian                  GFN2-xTB          :
         :: gradient norm              0.000040184733 Eh/a0 ::
         :: HOMO-LUMO gap              0.392834862410 eV    ::
         :: SCC energy              -206.283981211076 Eh    ::
         :: -> dispersion             -0.208065672812 Eh    ::
         :: -> Gsolv                  -0.089612427516 Eh    ::
         :: repulsion energy           3.679888550751 Eh    ::

    * Orbital Energies and Occupations

         #    Occupation            Energy/Eh            Energy/eV
      -------------------------------------------------------------
         1        2.0000           -0.7383495             -20.0915
       ...           ...                  ...                  ...
       177        2.0000           -0.4061322             -11.0514
       178        2.0000           -0.4056182             -11.0374
       179        2.0000           -0.4030412             -10.9673
       180        2.0000           -0.4022689             -10.9463
       181        2.0000           -0.3999868             -10.8842
       182        2.0000           -0.3991630             -10.8618
       183        2.0000           -0.3986955             -10.8491
       184        2.0000           -0.3945627             -10.7366
       185        2.0000           -0.3855904             -10.4924
       186        2.0000           -0.3822883             -10.4026
       187        1.8884           -0.3691102             -10.0440
       188        1.1116           -0.3651682              -9.9367
       189        0.9993           -0.2694336              -7.3317 (HOMO)
       190        0.0004           -0.2549976              -6.9388 (LUMO)
       191        0.0003           -0.2546456              -6.9293
       192        0.0000           -0.2519980              -6.8572
       193        0.0000           -0.2493200              -6.7843
       194        0.0000           -0.2487293              -6.7683
       195                         -0.2400025              -6.5308
       196                         -0.2387226              -6.4960
       197                         -0.2375675              -6.4645
       198                         -0.2352521              -6.4015
       199                         -0.2342189              -6.3734
       200                         -0.2340764              -6.3695
       ...                                ...                  ...
       377                          1.2158789              33.0857
      -------------------------------------------------------------
                  HL-Gap            0.0144360 Eh            0.3928 eV

     #   Z          covCN         q      C6AA      α(0)
     1   8 O        0.808    -0.398    21.663     6.239
     2  15 P        4.106     0.066   157.318    22.531
     3   6 C        2.920     0.006    27.881     8.659
     4   6 C        3.019    -0.020    28.474     8.753
     5   6 C        2.918    -0.027    28.677     8.782
     6   6 C        2.920    -0.024    28.613     8.772
     7   6 C        2.919    -0.027    28.678     8.782
     8   6 C        2.979    -0.026    28.654     8.781
     9   6 C        2.921     0.014    27.694     8.630
    10   6 C        3.030    -0.020    28.468     8.752
    11   6 C        2.919    -0.026    28.659     8.779
    12   6 C        2.920    -0.026    28.643     8.776
    13   6 C        2.920    -0.027    28.683     8.782
    14   6 C        2.975    -0.024    28.596     8.772
    15   6 C        2.919    -0.012    28.305     8.724
    16   6 C        2.958    -0.025    28.614     8.774
    17   6 C        2.918    -0.038    28.938     8.821
    18   6 C        2.921    -0.026    28.650     8.778
    19   6 C        2.914    -0.055    29.367     8.886
    20   6 C        3.011     0.146    24.815     8.171
    21   8 O        1.725    -0.218    17.613     5.666
    22   6 C        2.925     0.112    25.538     8.287
    23   6 C        2.905    -0.054    29.331     8.880
    24   6 C        2.915    -0.047    29.165     8.856
    25   6 C        2.963    -0.006    28.173     8.706
    26   6 C        2.965     0.007    27.871     8.659
    27   6 C        2.915    -0.040    28.995     8.830
    28   6 C        2.911    -0.035    28.863     8.809
    29   6 C        2.982     0.009    27.820     8.652
    30   6 C        3.945     0.012    20.304     6.403
    31   6 C        2.978     0.020    27.565     8.612
    32   6 C        2.923    -0.030    28.739     8.791
    33   6 C        2.920    -0.041    29.014     8.833
    34   6 C        2.913     0.061    26.639     8.463
    35   7 N        2.802    -0.026    21.744     6.926
    36   6 C        3.074     0.047    26.862     8.498
    37   6 C        2.909    -0.046    29.147     8.853
    38   6 C        2.923    -0.032    28.803     8.801
    39   6 C        2.920    -0.037    28.914     8.818
    40   6 C        2.912    -0.031    28.776     8.796
    41   6 C        3.066    -0.014    28.293     8.722
    42   6 C        3.066    -0.014    28.296     8.723
    43   6 C        2.912    -0.031    28.775     8.796
    44   6 C        2.920    -0.036    28.907     8.817
    45   6 C        2.923    -0.032    28.794     8.800
    46   6 C        2.909    -0.046    29.139     8.851
    47   6 C        3.074     0.048    26.858     8.497
    48   6 C        2.921    -0.041    29.006     8.832
    49   6 C        2.923    -0.032    28.803     8.801
    50   6 C        3.060     0.005    27.848     8.654
    51   6 C        2.913    -0.033    28.834     8.805
    52   6 C        2.922    -0.033    28.817     8.803
    53   6 C        2.920    -0.033    28.828     8.805
    54   6 C        2.914    -0.034    28.853     8.808
    55   6 C        3.033     0.001    27.983     8.677
    56   6 C        3.033     0.001    27.965     8.674
    57   6 C        2.914    -0.035    28.865     8.810
    58   6 C        2.920    -0.033    28.815     8.803
    59   6 C        2.922    -0.033    28.816     8.803
    60   6 C        2.914    -0.034    28.850     8.808
    61   6 C        3.055     0.005    27.864     8.657
    62   6 C        2.912    -0.033    28.830     8.805
    63   6 C        2.915    -0.039    28.973     8.826
    64   6 C        3.036    -0.027    28.643     8.778
    65   6 C        2.906    -0.010    28.273     8.719
    66  15 P        4.100     0.041   158.399    22.608
    67   8 O        0.808    -0.411    21.915     6.275
    68   6 C        2.922     0.028    27.369     8.579
    69   6 C        3.001    -0.015    28.381     8.739
    70   6 C        2.920    -0.025    28.620     8.773
    71   6 C        2.921    -0.023    28.582     8.767
    72   6 C        2.920    -0.022    28.562     8.764
    73   6 C        3.004    -0.013    28.330     8.731
    74   6 C        2.920     0.016    27.649     8.623
    75   6 C        2.965    -0.024    28.596     8.771
    76   6 C        2.920    -0.028    28.695     8.784
    77   6 C        2.920    -0.026    28.656     8.778
    78   6 C        2.918    -0.029    28.725     8.789
    79   6 C        3.039    -0.021    28.504     8.757
    80   1 H        0.925     0.047     2.359     2.402
    81   1 H        0.926     0.043     2.410     2.428
    82   1 H        0.926     0.046     2.370     2.407
    83   1 H        0.926     0.046     2.376     2.411
    84   1 H        0.926     0.044     2.394     2.419
    85   1 H        0.926     0.043     2.408     2.427
    86   1 H        0.926     0.042     2.425     2.435
    87   1 H        0.926     0.046     2.375     2.410
    88   1 H        0.926     0.044     2.391     2.418
    89   1 H        0.925     0.035     2.521     2.483
    90   1 H        0.926     0.050     2.321     2.382
    91   1 H        0.926     0.054     2.272     2.357
    92   1 H        0.926     0.055     2.262     2.352
    93   1 H        0.926     0.041     2.431     2.438
    94   1 H        0.926     0.037     2.488     2.467
    95   1 H        0.926     0.046     2.369     2.407
    96   1 H        0.926     0.033     2.539     2.492
    97   1 H        0.926     0.030     2.583     2.513
    98   1 H        0.926     0.046     2.374     2.410
    99   1 H        0.926     0.047     2.353     2.399
   100   1 H        0.926     0.038     2.478     2.462
   101   1 H        0.926     0.037     2.487     2.466
   102   1 H        0.926     0.036     2.507     2.476
   103   1 H        0.926     0.038     2.477     2.461
   104   1 H        0.926     0.038     2.472     2.459
   105   1 H        0.926     0.035     2.513     2.479
   106   1 H        0.926     0.036     2.504     2.474
   107   1 H        0.926     0.037     2.491     2.468
   108   1 H        0.926     0.048     2.347     2.396
   109   1 H        0.926     0.044     2.395     2.420
   110   1 H        0.926     0.032     2.558     2.501
   111   1 H        0.926     0.033     2.546     2.495
   112   1 H        0.926     0.033     2.541     2.493
   113   1 H        0.926     0.035     2.517     2.481
   114   1 H        0.926     0.034     2.525     2.485
   115   1 H        0.926     0.033     2.541     2.493
   116   1 H        0.926     0.033     2.538     2.491
   117   1 H        0.926     0.032     2.551     2.498
   118   1 H        0.926     0.031     2.576     2.510
   119   1 H        0.926     0.030     2.590     2.517
   120   1 H        0.926     0.057     2.237     2.339
   121   1 H        0.925     0.028     2.610     2.526
   122   1 H        0.926     0.042     2.428     2.437
   123   1 H        0.926     0.044     2.398     2.422
   124   1 H        0.926     0.042     2.423     2.434
   125   1 H        0.925     0.034     2.525     2.485
   126   1 H        0.926     0.054     2.276     2.359
   127   1 H        0.926     0.037     2.487     2.466
   128   1 H        0.926     0.045     2.379     2.412
   129   1 H        0.926     0.044     2.399     2.422
   130   1 H        0.925     0.044     2.396     2.421

molecular dipole:
                 x           y           z       tot (Debye)
 q only:        1.963       2.794       0.848
   full:        1.643       3.019       0.912       9.037

 projected vibrational frequencies (cm⁻¹)
eigval :       -0.00    -0.00    -0.00     0.00     0.00     0.00
eigval :        6.15     6.82    10.86    14.44    17.30    20.57
eigval :       22.48    24.83    30.31    32.33    33.48    35.79
eigval :       36.86    41.03    44.94    49.14    49.83    52.52
eigval :       57.32    59.86    65.56    66.77    73.39    76.87
eigval :       80.16    82.69    90.67    95.36    95.99   103.25
eigval :      108.58   122.09   134.18   136.13   146.12   148.11
eigval :      156.30   158.53   162.87   172.94   177.47   184.96
eigval :      193.60   197.01   202.60   210.46   220.18   228.51
eigval :      233.14   237.15   240.87   258.56   262.78   272.28
eigval :      272.83   274.40   278.78   279.88   289.00   291.10
eigval :      307.11   315.87   326.52   356.68   360.52   361.95
eigval :      362.76   365.54   372.67   373.40   376.21   377.62
eigval :      384.63   389.69   390.61   398.79   405.28   408.94
eigval :      411.02   413.63   421.51   429.54   430.52   436.43
eigval :      437.66   450.27   452.62   459.89   471.21   480.34
eigval :      483.51   493.15   498.20   504.47   507.46   514.02
eigval :      516.34   516.96   520.19   535.83   539.23   540.64
eigval :      560.77   578.15   584.86   585.09   585.15   585.55
eigval :      586.16   587.82   590.93   595.86   599.37   618.25
eigval :      619.20   622.66   643.25   655.97   656.39   657.71
eigval :      660.31   660.98   661.99   669.96   671.87   674.87
eigval :      678.99   690.78   694.52   710.26   710.96   715.36
eigval :      721.15   722.56   728.03   739.46   744.84   745.75
eigval :      748.78   752.50   753.08   755.39   758.80   767.06
eigval :      768.82   775.80   777.56   779.07   783.53   790.89
eigval :      807.48   820.79   827.04   846.88   867.90   872.49
eigval :      874.36   874.71   877.81   880.41   881.21   882.26
eigval :      882.55   886.74   887.07   888.67   894.47   897.89
eigval :      900.87   902.03   902.63   903.79   904.70   905.20
eigval :      908.53   908.84   911.67   913.86   914.16   916.34
eigval :      919.18   919.70   922.62   924.74   926.04   926.79
eigval :      928.73   928.99   930.41   932.10   932.60   932.79
eigval :      936.72   938.08   951.92   952.13   969.98   972.18
eigval :      972.87   974.53   974.89   990.14  1000.99  1010.54
eigval :     1017.52  1021.73  1044.08  1067.24  1069.44  1073.81
eigval :     1075.65  1077.44  1078.19  1079.01  1079.11  1079.30
eigval :     1102.77  1109.83  1112.80  1114.57  1115.10  1115.62
eigval :     1119.46  1122.20  1124.58  1128.78  1133.07  1138.67
eigval :     1141.53  1144.95  1145.47  1150.41  1168.40  1171.76
eigval :     1172.56  1172.99  1176.52  1177.42  1177.45  1178.25
eigval :     1179.40  1179.95  1181.79  1187.37  1188.38  1190.41
eigval :     1191.56  1191.98  1197.08  1199.19  1201.78  1206.99
eigval :     1211.53  1220.08  1223.69  1230.29  1231.37  1234.08
eigval :     1236.19  1240.10  1245.97  1255.06  1266.15  1266.97
eigval :     1267.28  1270.53  1274.00  1274.83  1283.32  1286.44
eigval :     1289.90  1291.84  1315.47  1318.70  1320.40  1321.49
eigval :     1322.48  1322.67  1323.50  1327.56  1332.45  1345.02
eigval :     1348.63  1356.42  1360.44  1361.72  1370.80  1393.12
eigval :     1404.96  1414.81  1416.27  1416.92  1420.62  1421.45
eigval :     1422.09  1423.67  1425.79  1425.89  1431.20  1450.56
eigval :     1451.34  1452.08  1454.44  1457.55  1457.59  1463.35
eigval :     1465.82  1472.40  1481.53  1483.23  1484.72  1526.97
eigval :     1533.49  1557.95  1559.43  1567.51  1569.53  1576.25
eigval :     1578.73  1579.62  1580.02  1580.24  1581.39  1582.14
eigval :     1582.54  1583.27  1585.20  1587.14  1589.05  1589.51
eigval :     1591.55  1596.87  1605.97  3047.79  3051.14  3056.09
eigval :     3059.12  3067.61  3068.16  3070.19  3070.55  3071.11
eigval :     3071.44  3071.75  3072.42  3073.18  3073.85  3075.51
eigval :     3075.58  3076.84  3077.03  3077.12  3077.26  3077.43
eigval :     3077.89  3078.06  3079.88  3080.53  3080.91  3081.80
eigval :     3082.05  3083.31  3083.35  3084.58  3085.65  3086.20
eigval :     3086.74  3088.00  3089.64  3090.12  3090.95  3090.96
eigval :     3091.12  3091.98  3092.35  3092.75  3095.89  3096.91
eigval :     3097.32  3098.89  3100.71  3100.82  3103.30  3117.29

   temp. (K)  partition function   enthalpy   heat capacity  entropy
                                   cal/mol     cal/K/mol   cal/K/mol   J/K/mol
 298.15  VIB  0.271E+34            40257.571    244.900    255.353
         ROT  0.424E+09              888.752      2.981     42.459
         INT  0.115E+43            41146.324    247.881    297.811
         TR   0.330E+29             1481.254      4.968     46.712
         TOT                       42627.5777   252.8491   344.5233  1441.4854

       T/K    H(0)-H(T)+PV         H(T)/Eh          T*S/Eh         G(T)/Eh
   ------------------------------------------------------------------------
    298.15    0.679314E-01    0.105649E+01    0.163694E+00    0.892794E+00
   ------------------------------------------------------------------------

         :::::::::::::::::::::::::::::::::::::::::::::::::::::
         ::                  THERMODYNAMIC                  ::
         :::::::::::::::::::::::::::::::::::::::::::::::::::::
         :: total free energy        -201.711298604928 Eh   ::
         ::.................................................::
         :: total energy             -202.604092657815 Eh   ::
         :: zero point energy           0.988556815131 Eh   ::
         :: G(RRHO) w/o ZPVE           -0.095762762244 Eh   ::
         :: G(RRHO) contrib.            0.892794052887 Eh   ::
         :::::::::::::::::::::::::::::::::::::::::::::::::::::

           -------------------------------------------------
          | TOTAL ENERGY             -202.604092657815 Eh   |
          | TOTAL ENTHALPY           -201.547604473600 Eh   |
          | TOTAL FREE ENERGY        -201.711298604928 Eh   |
          | GRADIENT NORM               0.000040873020 Eh/α |
          | HOMO-LUMO GAP               0.392824283263 eV   |
           -------------------------------------------------

 * finished run on 2025/09/06 at 23:04:27.843
