   * xtb version 6.7.1 (edcfbbe) compiled by 'albert@albert-system' on 2024-07-22

   ID    Z sym.   atoms
    1    8 O      1, 21, 67
    2   15 P      2, 66
    3    6 C      3-20, 22-34, 36-65, 68-79
    4    7 N      35
    5    1 H      80-130

          program call               : xtb data2507/toluene/9CzFDPEPO/9CzFDPEPO_toluene_S0_crest.xyz --gfn 2 --gbsa toluene --ohess vtight --parallel 40 --molden --ceasefiles --namespace data2507/toluene/9CzFDPEPO/9CzFDPEPO_toluene_S0_finalOpt
      * Solvation model:               GBSA
        Solvent                        toluene
        Solvent mass                       9.2140E+01 g/mol
          :  Hamiltonian                  GFN2-xTB          :
 * total energy  :  -202.7087814 Eh     change       -0.3960452E-08 Eh
 * total energy  :  -202.7090179 Eh     change       -0.2365586E-03 Eh
 * total energy  :  -202.7091657 Eh     change       -0.1477726E-03 Eh
 * total energy  :  -202.7092140 Eh     change       -0.4828095E-04 Eh
 * total energy  :  -202.7092954 Eh     change       -0.8142541E-04 Eh
 * total energy  :  -202.7093610 Eh     change       -0.6562287E-04 Eh
 * total energy  :  -202.7093992 Eh     change       -0.3822818E-04 Eh
 * total energy  :  -202.7094318 Eh     change       -0.3252094E-04 Eh
 * total energy  :  -202.7094488 Eh     change       -0.1705928E-04 Eh
 * total energy  :  -202.7094845 Eh     change       -0.3566264E-04 Eh
 * total energy  :  -202.7096166 Eh     change       -0.4231989E-06 Eh
 * total energy  :  -202.7096170 Eh     change       -0.3542891E-06 Eh
 * total energy  :  -202.7096172 Eh     change       -0.2862647E-06 Eh
 * total energy  :  -202.7096175 Eh     change       -0.2740448E-06 Eh
 * total energy  :  -202.7096179 Eh     change       -0.3456049E-06 Eh
 * total energy  :  -202.7096183 Eh     change       -0.4745861E-06 Eh
 * total energy  :  -202.7096188 Eh     change       -0.4254892E-06 Eh
 * total energy  :  -202.7096191 Eh     change       -0.3514754E-06 Eh
 * total energy  :  -202.7096191 Eh     change       -0.2440942E-08 Eh
   *** GEOMETRY OPTIMIZATION CONVERGED AFTER 68 ITERATIONS ***

 final structure:
================
130
 xtb: 6.7.1 (edcfbbe)
O           -7.02800866268795       -1.46126285697112       -0.83706016093982
P           -7.31157011633932       -0.05112609970255       -0.51261451753780
C           -9.07526574580556        0.35693511997594       -0.71351391484077
C           -9.94899362890559       -0.68755628319849       -0.97993255701288
C          -11.29901565622763       -0.43724342896091       -1.15477638499827
C          -11.77515952812402        0.86084750871152       -1.06801614794160
C          -10.90273698082429        1.90708747739154       -0.80731662797432
C           -9.55383362609617        1.65920941212327       -0.63087276871470
C           -6.44724907534450        1.15720712228376       -1.56290813716314
C           -6.10998195031065        0.74633187413396       -2.84397657053247
C           -5.48227613138820        1.62311445474199       -3.71091564577351
C           -5.19420209647408        2.91376707722080       -3.29705049222592
C           -5.53556736461306        3.32723524600078       -2.01891357758106
C           -6.16449736057076        2.45265777618223       -1.15055659872601
C           -6.90681241348674        0.43007483975175        1.19934474432457
C           -7.82378816859823        0.75245602915450        2.18483559695915
C           -7.38091880664698        1.09666813987343        3.45157606954567
C           -6.02415184332986        1.11434536919263        3.73035713888004
C           -5.09684582798580        0.77954829825672        2.75832686333893
C           -5.54315619345455        0.42937627794248        1.49213591449202
O           -4.73566374800004        0.01174690360969        0.47453989684782
C           -3.41494080521644        0.39497342676986        0.47287952535513
C           -3.03145987278583        1.72905030459166        0.49909661864259
C           -1.69261299375864        2.06376967970771        0.42280823566273
C           -0.70589421799578        1.08256008531134        0.32210374039874
C            0.71772124525631        1.43962346447975        0.24839464886577
C            1.23436200389830        2.49304804050740        0.99893678775301
C            2.57742673488629        2.81333051518812        0.94068808415332
C            3.44566098680388        2.08839737506437        0.13443588550388
C            4.90950640828125        2.46323347942196        0.02076158582200
C            5.81077881609419        1.25004944043876       -0.09464371895187
C            5.54828592466549        0.11214785778909        0.66151334231737
C            6.39850238607728       -0.97527573534434        0.62466011532044
C            7.53391989402356       -0.94767822547582       -0.17937068831311
N            8.39907954510119       -2.05272671029350       -0.22088568278689
C            9.76353675483415       -2.01743092008438       -0.01605007423424
C           10.58254395384778       -0.94196410548883        0.29936864672252
C           11.93021083571352       -1.18793625614835        0.47984521311744
C           12.45815915134193       -2.47236793689857        0.36031089787923
C           11.64544325135529       -3.54934590307268        0.06684716394121
C           10.28683735307733       -3.32752060751687       -0.12020786650369
C            9.17440705206759       -4.18874240695881       -0.40957970206369
C            9.05534754620360       -5.55384135907889       -0.63868009180312
C            7.80641280146979       -6.07204372288896       -0.91825498021701
C            6.68579581527557       -5.24582411826642       -0.98233984092873
C            6.77870040980990       -3.88551516129855       -0.75825680369610
C            8.02826831563948       -3.36113238876574       -0.45737171205475
C            7.80421960892727        0.18807757935936       -0.93531485371632
C            6.95444815058425        1.27708129512630       -0.88272095968726
C            5.05016453257830        3.43922892970075       -1.13385091176557
C            4.72836761270990        3.25534397002101       -2.46188706103075
C            4.92975762004672        4.30538990791259       -3.34832558702416
C            5.43871642823933        5.51849648626327       -2.90940789782171
C            5.75650944943618        5.71197372575953       -1.57447747371750
C            5.55879313532379        4.66704380965659       -0.68633651756856
C            5.79745537569482        4.57646908349949        0.74551992076604
C            6.30588535236543        5.50326982042981        1.64131807276754
C            6.43097647387794        5.14063613367225        2.97302178365279
C            6.05907888253219        3.87506043825025        3.40137229636439
C            5.54978379262860        2.94225663471641        2.50731953719338
C            5.41545523026829        3.30005600568804        1.18249111483807
C            2.92853124607106        1.04848233776902       -0.63168587666328
C            1.58794403373138        0.72462989639317       -0.57242011685445
C           -1.10543197240437       -0.25157559191669        0.30426406557524
C           -2.44344119840319       -0.59830508163079        0.37799993161733
P           -2.88815802256150       -2.36078026759687        0.45012944769659
O           -1.68205421200711       -3.21284962812301        0.53253829124951
C           -3.87493600134437       -2.75290123558696       -1.02475958198969
C           -3.85771867295386       -1.95050959872003       -2.15365373993707
C           -4.50863533686471       -2.37110291325290       -3.30064717573169
C           -5.18068827338112       -3.58138966264431       -3.31591921914856
C           -5.19170380940763       -4.38631697811931       -2.18777738388261
C           -4.52826151622665       -3.97786431161964       -1.04624202542438
C           -3.94528275922454       -2.52851760830408        1.92469463522852
C           -5.32959598636238       -2.61009886051005        1.88384784653156
C           -6.04014362692613       -2.73176632986332        3.06579420521698
C           -5.37648446850895       -2.76449855824301        4.28139879968811
C           -3.99348071735727       -2.67974610567187        4.32212074017544
C           -3.27876499975224       -2.56463976012415        3.14387344478659
H           -9.55028278612506       -1.69034440650278       -1.04829849635963
H          -11.97713975638430       -1.25258979124008       -1.36046303547098
H          -12.82785797803831        1.05939016836706       -1.20593694413572
H          -11.27641699008868        2.91860716198761       -0.74305702865133
H           -8.87037156803497        2.47098091956035       -0.43001619357358
H           -6.33849505049877       -0.26952026375354       -3.13452354818265
H           -5.21831438409692        1.30272566690965       -4.70825774341454
H           -4.70201667684652        3.59945263001837       -3.97094617164146
H           -5.30944943257757        4.33414765280411       -1.69868596053954
H           -6.42705759796576        2.76914789113629       -0.14983955621912
H           -8.87924356841818        0.74141596162231        1.95364642501640
H           -8.09438670498011        1.35204709523919        4.21985235614986
H           -5.67853959597982        1.38313816391599        4.71697980108397
H           -4.03956147479503        0.77464005794475        2.97959687272920
H           -3.78791715141103        2.49617693259278        0.57152917294782
H           -1.40993852438580        3.10546431128592        0.42254069560814
H            0.58440657683251        3.05288376194159        1.65494701336244
H            2.95484461863195        3.63199581357083        1.53557532120593
H            4.66760406081703        0.07302161398956        1.28547825719450
H            6.19239019520748       -1.84689255577957        1.22803151705130
H           10.18011340618721        0.05373106131417        0.41078169845724
H           12.58894737472768       -0.36692628304044        0.72366220791583
H           13.51756972843959       -2.62380848318508        0.50777951465389
H           12.05276658496975       -4.54642026285330       -0.01200475895298
H            9.92534154747844       -6.19266770578443       -0.60225889293496
H            7.69203804975931       -7.13114413791672       -1.09781533948860
H            5.72320203671851       -5.67799662973154       -1.21502547467705
H            5.90640296493255       -3.25272343877013       -0.82410853115755
H            8.67715096094275        0.21121756502504       -1.57054798603296
H            7.18145808460698        2.15376906829875       -1.47096155143811
H            4.33130403463760        2.31418467210643       -2.81186628823123
H            4.68676917981070        4.17436673308156       -4.39285779205907
H            5.58723134038458        6.32181658028086       -3.61671313539101
H            6.15040053450091        6.65838178054803       -1.23473386047460
H            6.59985069223907        6.48815701654013        1.30986398874421
H            6.82560514501570        5.85025234526251        3.68599159436057
H            6.16702159799044        3.61043899778470        4.44329098574916
H            5.26310265902296        1.95872461525137        2.84865682318532
H            3.58441509129778        0.47770272079110       -1.27282767987728
H            1.20575516349538       -0.08132224325519       -1.18172133378275
H           -0.38081241712185       -1.05277765899672        0.26233438345815
H           -3.34063937735950       -1.00037000182357       -2.13148763909260
H           -4.48830460694639       -1.75273063976436       -4.18638752075241
H           -5.69555148792092       -3.90112630545176       -4.21036367052246
H           -5.71393892170552       -5.33206240056059       -2.20035230865050
H           -4.50822381404629       -4.60123429361541       -0.16083905849396
H           -5.84440702485310       -2.56624711735140        0.93562826366419
H           -7.11789226961771       -2.79887462419898        3.03373273643192
H           -5.93795831508374       -2.85736832632391        5.19934702181690
H           -3.47420120515626       -2.70598731400229        5.26904426067674
H           -2.19763131520133       -2.51170861078362        3.14698967635494

          :  Hamiltonian                  GFN2-xTB          :
         :: gradient norm              0.000034984745 Eh/a0 ::
         :: HOMO-LUMO gap              2.597785574023 eV    ::
         :: SCC energy              -206.411196854134 Eh    ::
         :: -> dispersion             -0.209253233576 Eh    ::
         :: -> Gsolv                  -0.087314969290 Eh    ::
         :: repulsion energy           3.701577742861 Eh    ::

    * Orbital Energies and Occupations

         #    Occupation            Energy/Eh            Energy/eV
      -------------------------------------------------------------
         1        2.0000           -0.7399875             -20.1361
       ...           ...                  ...                  ...
       176        2.0000           -0.4086014             -11.1186
       177        2.0000           -0.4081039             -11.1051
       178        2.0000           -0.4050732             -11.0226
       179        2.0000           -0.4036293             -10.9833
       180        2.0000           -0.4033642             -10.9761
       181        2.0000           -0.4026670             -10.9571
       182        2.0000           -0.3995667             -10.8728
       183        2.0000           -0.3992598             -10.8644
       184        2.0000           -0.3968355             -10.7984
       185        2.0000           -0.3860340             -10.5045
       186        2.0000           -0.3805756             -10.3560
       187        2.0000           -0.3766627             -10.2495
       188        2.0000           -0.3599362              -9.7944 (HOMO)
       189                         -0.2644694              -7.1966 (LUMO)
       190                         -0.2562160              -6.9720
       191                         -0.2546542              -6.9295
       192                         -0.2529355              -6.8827
       193                         -0.2510371              -6.8311
       194                         -0.2442065              -6.6452
       195                         -0.2426375              -6.6025
       196                         -0.2407541              -6.5513
       197                         -0.2385585              -6.4915
       198                         -0.2367235              -6.4416
       199                         -0.2355576              -6.4098
       ...                                ...                  ...
       377                          1.2157371              33.0819
      -------------------------------------------------------------
                  HL-Gap            0.0954669 Eh            2.5978 eV

     #   Z          covCN         q      C6AA      α(0)
     1   8 O        0.808    -0.398    21.665     6.239
     2  15 P        4.102     0.074   156.980    22.507
     3   6 C        2.920     0.006    27.891     8.660
     4   6 C        3.020    -0.020    28.472     8.753
     5   6 C        2.918    -0.027    28.671     8.781
     6   6 C        2.920    -0.024    28.604     8.770
     7   6 C        2.919    -0.027    28.673     8.781
     8   6 C        2.977    -0.026    28.658     8.781
     9   6 C        2.921     0.015    27.683     8.628
    10   6 C        3.030    -0.019    28.461     8.751
    11   6 C        2.919    -0.026    28.654     8.778
    12   6 C        2.920    -0.025    28.628     8.774
    13   6 C        2.920    -0.027    28.684     8.783
    14   6 C        2.975    -0.024    28.606     8.773
    15   6 C        2.920    -0.012    28.305     8.725
    16   6 C        2.960    -0.024    28.610     8.773
    17   6 C        2.919    -0.036    28.905     8.816
    18   6 C        2.922    -0.025    28.618     8.773
    19   6 C        2.915    -0.058    29.441     8.898
    20   6 C        3.007     0.150    24.736     8.158
    21   8 O        1.725    -0.238    17.942     5.719
    22   6 C        2.940     0.137    25.009     8.202
    23   6 C        2.915    -0.052    29.301     8.876
    24   6 C        2.926    -0.031    28.780     8.798
    25   6 C        2.974     0.011    27.769     8.644
    26   6 C        2.976     0.008    27.829     8.653
    27   6 C        2.924    -0.034    28.850     8.808
    28   6 C        2.922    -0.035    28.875     8.812
    29   6 C        2.979     0.018    27.592     8.616
    30   6 C        3.946     0.008    20.372     6.414
    31   6 C        2.979     0.016    27.658     8.627
    32   6 C        2.924    -0.033    28.814     8.803
    33   6 C        2.921    -0.043    29.068     8.841
    34   6 C        2.912     0.061    26.622     8.461
    35   7 N        2.802    -0.047    22.145     6.989
    36   6 C        3.076     0.048    26.853     8.496
    37   6 C        2.909    -0.052    29.290     8.874
    38   6 C        2.924    -0.035    28.880     8.813
    39   6 C        2.919    -0.043    29.072     8.842
    40   6 C        2.912    -0.035    28.876     8.812
    41   6 C        3.067    -0.019    28.413     8.740
    42   6 C        3.067    -0.019    28.416     8.741
    43   6 C        2.912    -0.035    28.875     8.811
    44   6 C        2.919    -0.043    29.067     8.841
    45   6 C        2.924    -0.035    28.872     8.812
    46   6 C        2.910    -0.052    29.283     8.873
    47   6 C        3.076     0.048    26.852     8.496
    48   6 C        2.921    -0.043    29.072     8.842
    49   6 C        2.923    -0.035    28.859     8.810
    50   6 C        3.056     0.004    27.889     8.661
    51   6 C        2.914    -0.034    28.853     8.808
    52   6 C        2.922    -0.033    28.818     8.803
    53   6 C        2.921    -0.033    28.827     8.805
    54   6 C        2.914    -0.035    28.864     8.810
    55   6 C        3.034     0.001    27.980     8.676
    56   6 C        3.034     0.001    27.980     8.676
    57   6 C        2.914    -0.035    28.864     8.810
    58   6 C        2.921    -0.033    28.828     8.805
    59   6 C        2.922    -0.033    28.819     8.804
    60   6 C        2.914    -0.034    28.855     8.809
    61   6 C        3.056     0.004    27.891     8.661
    62   6 C        2.922    -0.033    28.816     8.803
    63   6 C        2.924    -0.033    28.817     8.803
    64   6 C        3.017    -0.026    28.623     8.776
    65   6 C        2.917    -0.010    28.256     8.717
    66  15 P        4.088     0.069   157.196    22.522
    67   8 O        0.808    -0.410    21.913     6.275
    68   6 C        2.922     0.025    27.446     8.591
    69   6 C        2.984    -0.014    28.361     8.736
    70   6 C        2.921    -0.023    28.581     8.767
    71   6 C        2.921    -0.022    28.549     8.762
    72   6 C        2.919    -0.023    28.577     8.766
    73   6 C        3.025    -0.014    28.337     8.732
    74   6 C        2.921     0.014    27.699     8.631
    75   6 C        2.967    -0.023    28.582     8.769
    76   6 C        2.920    -0.027    28.675     8.781
    77   6 C        2.920    -0.025    28.637     8.776
    78   6 C        2.918    -0.028    28.710     8.787
    79   6 C        3.039    -0.022    28.505     8.757
    80   1 H        0.925     0.048     2.351     2.398
    81   1 H        0.926     0.043     2.409     2.427
    82   1 H        0.926     0.046     2.371     2.408
    83   1 H        0.926     0.046     2.374     2.409
    84   1 H        0.926     0.045     2.382     2.413
    85   1 H        0.926     0.045     2.381     2.413
    86   1 H        0.926     0.042     2.417     2.431
    87   1 H        0.926     0.046     2.366     2.405
    88   1 H        0.926     0.045     2.378     2.411
    89   1 H        0.925     0.037     2.493     2.469
    90   1 H        0.926     0.051     2.309     2.376
    91   1 H        0.926     0.055     2.254     2.348
    92   1 H        0.926     0.056     2.250     2.346
    93   1 H        0.926     0.039     2.462     2.454
    94   1 H        0.926     0.051     2.304     2.374
    95   1 H        0.926     0.061     2.190     2.314
    96   1 H        0.926     0.039     2.460     2.453
    97   1 H        0.926     0.037     2.492     2.468
    98   1 H        0.926     0.040     2.447     2.446
    99   1 H        0.926     0.042     2.429     2.437
   100   1 H        0.926     0.029     2.598     2.520
   101   1 H        0.926     0.029     2.595     2.519
   102   1 H        0.926     0.027     2.626     2.534
   103   1 H        0.926     0.029     2.594     2.519
   104   1 H        0.926     0.030     2.592     2.518
   105   1 H        0.926     0.027     2.630     2.536
   106   1 H        0.926     0.029     2.604     2.523
   107   1 H        0.926     0.029     2.602     2.523
   108   1 H        0.926     0.042     2.424     2.435
   109   1 H        0.926     0.039     2.462     2.454
   110   1 H        0.926     0.032     2.562     2.503
   111   1 H        0.926     0.032     2.552     2.498
   112   1 H        0.926     0.032     2.551     2.498
   113   1 H        0.926     0.034     2.533     2.489
   114   1 H        0.926     0.034     2.533     2.489
   115   1 H        0.926     0.032     2.552     2.498
   116   1 H        0.926     0.032     2.552     2.498
   117   1 H        0.926     0.032     2.564     2.504
   118   1 H        0.926     0.036     2.501     2.473
   119   1 H        0.926     0.035     2.515     2.480
   120   1 H        0.926     0.063     2.166     2.301
   121   1 H        0.925     0.029     2.596     2.520
   122   1 H        0.926     0.043     2.412     2.428
   123   1 H        0.926     0.045     2.381     2.413
   124   1 H        0.926     0.043     2.406     2.425
   125   1 H        0.925     0.036     2.499     2.472
   126   1 H        0.926     0.055     2.262     2.352
   127   1 H        0.926     0.039     2.463     2.454
   128   1 H        0.926     0.047     2.357     2.401
   129   1 H        0.926     0.046     2.374     2.409
   130   1 H        0.925     0.044     2.400     2.423

molecular dipole:
                 x           y           z       tot (Debye)
 q only:       -1.793       3.810       0.484
   full:       -2.047       4.023       0.508      11.546

 projected vibrational frequencies (cm⁻¹)
eigval :       -0.00     0.00     0.00     0.00     0.00     0.00
eigval :        5.67     7.73     9.27    11.31    15.48    18.50
eigval :       20.15    22.52    26.71    29.62    31.92    34.03
eigval :       35.84    38.38    40.63    47.03    49.18    52.69
eigval :       56.52    59.12    63.26    68.08    70.61    73.17
eigval :       75.08    83.62    85.69    90.93    93.79   105.06
eigval :      110.77   126.00   134.72   138.05   145.17   147.56
eigval :      158.63   162.34   168.73   172.10   176.60   184.13
eigval :      192.47   196.52   204.38   215.13   225.54   230.43
eigval :      236.17   236.97   243.93   260.69   265.03   272.49
eigval :      274.12   276.10   277.88   284.34   289.69   309.11
eigval :      312.25   324.03   354.89   359.96   361.66   364.15
eigval :      368.69   370.68   372.41   375.59   380.10   386.43
eigval :      391.86   392.38   401.31   404.97   406.38   412.20
eigval :      414.66   419.09   427.18   436.82   437.58   441.59
eigval :      449.92   455.66   458.57   475.78   486.55   488.39
eigval :      497.41   500.24   507.37   510.30   516.49   517.49
eigval :      519.66   529.79   535.51   539.32   541.69   559.96
eigval :      578.67   580.72   585.20   585.30   586.20   586.66
eigval :      588.10   594.50   600.76   607.65   610.51   623.84
eigval :      625.39   651.87   656.88   658.31   660.40   661.01
eigval :      665.03   666.86   672.91   675.02   676.59   686.91
eigval :      692.01   698.31   703.26   709.21   712.65   716.76
eigval :      724.11   728.57   729.51   739.58   740.30   744.62
eigval :      746.21   753.46   756.44   761.96   769.25   770.20
eigval :      778.91   780.74   786.25   810.43   818.34   820.22
eigval :      844.80   866.67   869.22   872.55   874.41   874.92
eigval :      876.00   877.36   877.43   880.01   880.35   881.45
eigval :      881.85   892.40   896.20   899.28   900.60   901.52
eigval :      902.60   903.71   905.18   906.15   909.23   909.93
eigval :      910.16   912.96   917.46   919.01   919.73   921.89
eigval :      923.21   925.43   926.42   926.78   928.04   928.38
eigval :      929.22   929.55   932.78   933.44   934.42   934.53
eigval :      934.88   936.91   941.46   955.15   971.47   972.29
eigval :      974.72   975.75  1006.52  1009.57  1011.09  1024.64
eigval :     1043.93  1062.58  1068.87  1072.49  1075.26  1076.74
eigval :     1077.83  1078.49  1078.78  1080.47  1084.60  1084.93
eigval :     1107.02  1110.63  1113.53  1115.38  1115.71  1117.48
eigval :     1122.18  1124.93  1126.69  1131.76  1139.04  1142.14
eigval :     1144.15  1152.17  1155.70  1156.40  1173.32  1173.39
eigval :     1174.25  1176.28  1176.68  1178.04  1178.79  1179.30
eigval :     1181.55  1182.83  1184.45  1188.48  1189.81  1192.17
eigval :     1193.39  1200.98  1203.07  1204.33  1206.17  1209.96
eigval :     1220.20  1225.92  1226.97  1235.55  1235.75  1236.62
eigval :     1241.05  1245.24  1249.15  1261.16  1268.54  1270.04
eigval :     1270.21  1273.81  1274.13  1274.82  1283.95  1300.16
eigval :     1303.17  1304.90  1312.77  1314.53  1319.39  1319.91
eigval :     1320.56  1321.36  1323.15  1324.61  1324.98  1355.66
eigval :     1360.93  1364.02  1365.81  1383.16  1404.33  1408.23
eigval :     1420.60  1422.10  1423.82  1425.58  1427.11  1427.57
eigval :     1428.78  1429.64  1430.90  1438.90  1452.14  1452.48
eigval :     1453.00  1454.43  1456.56  1460.46  1470.60  1474.88
eigval :     1487.54  1490.49  1495.84  1552.13  1565.45  1569.53
eigval :     1574.45  1578.20  1579.71  1581.89  1581.97  1583.35
eigval :     1584.39  1585.16  1585.27  1585.87  1587.02  1587.36
eigval :     1587.40  1589.28  1592.51  1596.93  1597.17  1598.26
eigval :     1602.18  1603.04  1613.34  3048.41  3053.06  3054.84
eigval :     3055.74  3068.63  3069.77  3070.17  3070.44  3071.15
eigval :     3071.30  3071.74  3073.77  3074.10  3074.14  3075.71
eigval :     3075.93  3076.07  3076.34  3076.53  3076.66  3077.10
eigval :     3078.30  3078.55  3078.96  3079.15  3079.65  3080.79
eigval :     3082.35  3083.41  3083.80  3084.05  3084.78  3084.90
eigval :     3085.13  3086.25  3087.62  3087.92  3090.02  3090.26
eigval :     3090.50  3090.63  3090.97  3091.09  3091.94  3092.34
eigval :     3092.57  3092.87  3095.32  3098.84  3100.15  3101.31

   temp. (K)  partition function   enthalpy   heat capacity  entropy
                                   cal/mol     cal/K/mol   cal/K/mol   J/K/mol
 298.15  VIB  0.754E+34            39941.998    242.046    254.292
         ROT  0.425E+09              888.752      2.981     42.463
         INT  0.321E+43            40830.750    245.026    296.755
         TR   0.330E+29             1481.254      4.968     46.712
         TOT                       42312.0043   249.9946   343.4668  1437.0649

       T/K    H(0)-H(T)+PV         H(T)/Eh          T*S/Eh         G(T)/Eh
   ------------------------------------------------------------------------
    298.15    0.674285E-01    0.106045E+01    0.163192E+00    0.897257E+00
   ------------------------------------------------------------------------

         :::::::::::::::::::::::::::::::::::::::::::::::::::::
         ::                  THERMODYNAMIC                  ::
         :::::::::::::::::::::::::::::::::::::::::::::::::::::
         :: total free energy        -201.812361765175 Eh   ::
         ::.................................................::
         :: total energy             -202.709619112920 Eh   ::
         :: zero point energy           0.993021020399 Eh   ::
         :: G(RRHO) w/o ZPVE           -0.095763672655 Eh   ::
         :: G(RRHO) contrib.            0.897257347745 Eh   ::
         :::::::::::::::::::::::::::::::::::::::::::::::::::::

           -------------------------------------------------
          | TOTAL ENERGY             -202.709619112920 Eh   |
          | TOTAL ENTHALPY           -201.649169621636 Eh   |
          | TOTAL FREE ENERGY        -201.812361765175 Eh   |
          | GRADIENT NORM               0.000034990108 Eh/α |
          | HOMO-LUMO GAP               2.597785849080 eV   |
           -------------------------------------------------

 * finished run on 2025/09/06 at 23:03:39.245
