   * xtb version 6.7.1 (edcfbbe) compiled by 'albert@albert-system' on 2024-07-22

   ID    Z sym.   atoms
    1    6 C      1-4, 6-43
    2    7 N      5
    3    1 H      44-72

          program call               : xtb data2507/toluene/TPA-AN-NA/TPA-AN-NA_toluene_S0_crest.xyz --gfn 2 --gbsa toluene --ohess vtight --parallel 40 --molden --ceasefiles --namespace data2507/toluene/TPA-AN-NA/TPA-AN-NA_toluene_S0_finalOpt
      * Solvation model:               GBSA
        Solvent                        toluene
        Solvent mass                       9.2140E+01 g/mol
          :  Hamiltonian                  GFN2-xTB          :
 * total energy  :  -107.6962765 Eh     change       -0.4375948E-09 Eh
 * total energy  :  -107.6963063 Eh     change       -0.2983317E-04 Eh
 * total energy  :  -107.6963264 Eh     change       -0.2005464E-04 Eh
 * total energy  :  -107.6963357 Eh     change       -0.9356192E-05 Eh
 * total energy  :  -107.6963442 Eh     change       -0.8535766E-05 Eh
 * total energy  :  -107.6963475 Eh     change       -0.3217718E-05 Eh
 * total energy  :  -107.6963512 Eh     change       -0.3744694E-05 Eh
 * total energy  :  -107.6963545 Eh     change       -0.3311897E-05 Eh
 * total energy  :  -107.6963579 Eh     change       -0.3424293E-05 Eh
 * total energy  :  -107.6963620 Eh     change       -0.4067824E-05 Eh
 * total energy  :  -107.6964461 Eh     change       -0.7281204E-06 Eh
 * total energy  :  -107.6964470 Eh     change       -0.9451239E-06 Eh
 * total energy  :  -107.6964475 Eh     change       -0.5194963E-06 Eh
 * total energy  :  -107.6964478 Eh     change       -0.2544691E-06 Eh
 * total energy  :  -107.6964477 Eh     change        0.4253275E-07 Eh
 * total energy  :  -107.6964479 Eh     change       -0.1629841E-06 Eh
 * total energy  :  -107.6964480 Eh     change       -0.1115072E-06 Eh
 * total energy  :  -107.6964482 Eh     change       -0.1361478E-06 Eh
 * total energy  :  -107.6964482 Eh     change       -0.9707936E-07 Eh
   *** GEOMETRY OPTIMIZATION CONVERGED AFTER 52 ITERATIONS ***

 final structure:
================
72
 xtb: 6.7.1 (edcfbbe)
C           -7.30690178708184       -3.47905791184213       -0.90064332847948
C           -7.81868138202021       -2.23147567668846       -1.21964421572853
C           -7.11460676816859       -1.08451443717473       -0.90748006297455
C           -5.88306974225428       -1.16931942761190       -0.25716983097908
N           -5.17015849364090       -0.00961623092485        0.06796642041795
C           -5.85170797827340        1.14293443970616        0.47868915002653
C           -6.98182137044092        1.04786788562323        1.29092091722027
C           -7.65104491629953        2.18900677414650        1.68962215200246
C           -7.20300491182653        3.43995989170402        1.29647811735853
C           -6.07852387960894        3.54052045514831        0.49306137989795
C           -5.40782169385226        2.40468920154362        0.08214967051468
C           -3.77238406564782       -0.00151681425809       -0.00424941743057
C           -3.10866122546079       -0.67684172021717       -1.02893792642013
C           -1.72979515257422       -0.67561211598099       -1.08866453686979
C           -0.97364458637921        0.00946413287471       -0.14096605891186
C            0.50320476187202        0.01029446366031       -0.20247087623165
C            1.18886385003005        1.19270338649337       -0.51821236290346
C            0.50176557032095        2.39588688079506       -0.82980772842508
C            1.17696936114486        3.54258513894161       -1.11550297978781
C            2.58643601570978        3.55935764523283       -1.10461775404759
C            3.28346845124372        2.42265733296198       -0.83223111987575
C            2.61843447410398        1.19999768334888       -0.54903951337360
C            3.32831451714440        0.01975018730276       -0.28773682468710
C            4.80770830057549        0.02822736041622       -0.32843527863572
C            5.47310278359888        0.11628358602373       -1.57033019756434
C            6.83704337395339        0.12044372677193       -1.63205876206915
C            7.61634422980725        0.04234657580370       -0.45783619590423
C            9.02653827631285        0.04612389971655       -0.48721415288621
C            9.74937868992000       -0.02953549123379        0.67074153229749
C            9.09510600432592       -0.11305796255228        1.91064937654458
C            7.72972252964641       -0.12004221144765        1.97245491573422
C            6.95458957299622       -0.04264309216127        0.79560867688481
C            5.54544236864101       -0.05000130483595        0.82652503971118
C            2.64369214275053       -1.16693390717197        0.01000410132137
C            3.33187774303019       -2.38580268826345        0.25121703602163
C            2.65969324750403       -3.52769595866457        0.56153440120808
C            1.25332339821214       -3.52035521366507        0.65647223973405
C            0.55529473426088       -2.37733860326263        0.41469449043334
C            1.21455832318878       -1.16876250331505        0.06570890075734
C           -1.63959434548494        0.69224074635412        0.87393529462943
C           -3.01736218104491        0.68301827870973        0.94874846248501
C           -5.37471185436182       -2.42815824608908        0.06492384806036
C           -6.08144739806060       -3.56984298766763       -0.26037263968515
H           -7.85863583498517       -4.37324058411788       -1.14929240500910
H           -8.77076721805053       -2.14990592756410       -1.72387277991557
H           -7.51292276399138       -0.11428818183106       -1.16676711235405
H           -7.32816472936656        0.07462714046917        1.60746063456058
H           -8.52412640161224        2.10046781063970        2.31990975881291
H           -7.72679775376558        4.32950069444682        1.61288061071043
H           -5.72482353746443        4.51102331534778        0.17614006925470
H           -4.53701124784971        2.48586712727224       -0.55224534346993
H           -3.68275859091999       -1.20204632438899       -1.77845444686863
H           -1.22812845039406       -1.19944681648071       -1.88983288526928
H           -0.57808650124910        2.38399484225583       -0.83850119626039
H            0.63855329084645        4.44943572071208       -1.35062462574873
H            3.10716753748751        4.48164590038188       -1.31849002522480
H            4.36360289092654        2.43450633212036       -0.82648646540824
H            4.88119497378774        0.17454271058581       -2.47288073669357
H            7.34091504341013        0.18411233644639       -2.58651493106113
H            9.52541180649543        0.11039254452919       -1.44429572744454
H           10.82958398436269       -0.02575023140238        0.64143412030551
H            9.68228023746848       -0.17182266632305        2.81597178260576
H            7.22136074845319       -0.18501652164251        2.92438968294993
H            5.04379712434743       -0.11450030167090        1.78254795035778
H            4.40974161725407       -2.39094872167023        0.18160322178416
H            3.19849031175527       -4.44682667558689        0.74150903700415
H            0.73561346658723       -4.43137237175822        0.92026856548542
H           -0.52214863371369       -2.37244892047169        0.48729431086457
H           -1.06536613089156        1.22036824967837        1.62184916422877
H           -3.51981268738649        1.20462003977535        1.75041533865340
H           -4.42534918800984       -2.50341337018582        0.57503752936822
H           -5.67606874714352       -4.53765379501640       -0.00253635440643

          :  Hamiltonian                  GFN2-xTB          :
         :: gradient norm              0.000057478882 Eh/a0 ::
         :: HOMO-LUMO gap              1.892764806842 eV    ::
         :: SCC energy              -109.787140714597 Eh    ::
         :: -> dispersion             -0.100745824978 Eh    ::
         :: -> Gsolv                  -0.043410429944 Eh    ::
         :: repulsion energy           2.090692466321 Eh    ::

    * Orbital Energies and Occupations

         #    Occupation            Energy/Eh            Energy/eV
      -------------------------------------------------------------
         1        2.0000           -0.6642855             -18.0761
       ...           ...                  ...                  ...
        89        2.0000           -0.4140700             -11.2674
        90        2.0000           -0.4086218             -11.1192
        91        2.0000           -0.4072535             -11.0819
        92        2.0000           -0.4049195             -11.0184
        93        2.0000           -0.4047923             -11.0150
        94        2.0000           -0.4045297             -11.0078
        95        2.0000           -0.4010322             -10.9126
        96        2.0000           -0.3997683             -10.8783
        97        2.0000           -0.3975802             -10.8187
        98        2.0000           -0.3958320             -10.7711
        99        2.0000           -0.3777010             -10.2778
       100        2.0000           -0.3581013              -9.7444
       101        2.0000           -0.3480154              -9.4700 (HOMO)
       102                         -0.2784576              -7.5772 (LUMO)
       103                         -0.2587524              -7.0410
       104                         -0.2307435              -6.2788
       105                         -0.2300979              -6.2613
       106                         -0.2298567              -6.2547
       107                         -0.2280816              -6.2064
       108                         -0.2272636              -6.1842
       109                         -0.2221778              -6.0458
       110                         -0.2214157              -6.0250
       111                         -0.2187104              -5.9514
       112                         -0.1956796              -5.3247
       ...                                ...                  ...
       201                          0.7160755              19.4854
      -------------------------------------------------------------
                  HL-Gap            0.0695578 Eh            1.8928 eV

     #   Z          covCN         q      C6AA      α(0)
     1   6 C        2.919    -0.040    28.990     8.829
     2   6 C        2.919    -0.030    28.759     8.794
     3   6 C        2.922    -0.049    29.205     8.862
     4   6 C        2.923     0.066    26.528     8.446
     5   7 N        2.752    -0.080    22.805     7.093
     6   6 C        2.923     0.066    26.528     8.446
     7   6 C        2.922    -0.048    29.193     8.860
     8   6 C        2.919    -0.030    28.756     8.794
     9   6 C        2.919    -0.039    28.980     8.828
    10   6 C        2.919    -0.030    28.756     8.794
    11   6 C        2.922    -0.048    29.188     8.860
    12   6 C        2.923     0.064    26.568     8.453
    13   6 C        2.921    -0.049    29.209     8.863
    14   6 C        2.923    -0.033    28.816     8.803
    15   6 C        2.976     0.007    27.862     8.658
    16   6 C        2.976    -0.006    28.165     8.705
    17   6 C        2.983     0.005    27.909     8.666
    18   6 C        2.917    -0.035    28.872     8.811
    19   6 C        2.914    -0.031    28.785     8.798
    20   6 C        2.914    -0.031    28.783     8.797
    21   6 C        2.917    -0.035    28.868     8.811
    22   6 C        2.984     0.005    27.899     8.664
    23   6 C        2.977    -0.007    28.190     8.709
    24   6 C        2.973     0.014    27.688     8.631
    25   6 C        2.919    -0.033    28.820     8.804
    26   6 C        2.916    -0.037    28.920     8.819
    27   6 C        2.987     0.009    27.799     8.649
    28   6 C        2.918    -0.036    28.898     8.815
    29   6 C        2.916    -0.032    28.791     8.799
    30   6 C        2.916    -0.031    28.776     8.796
    31   6 C        2.918    -0.036    28.904     8.816
    32   6 C        2.986     0.011    27.767     8.644
    33   6 C        2.923    -0.040    28.999     8.831
    34   6 C        2.983     0.005    27.901     8.665
    35   6 C        2.917    -0.035    28.874     8.812
    36   6 C        2.914    -0.031    28.783     8.798
    37   6 C        2.914    -0.031    28.785     8.798
    38   6 C        2.917    -0.035    28.877     8.812
    39   6 C        2.983     0.005    27.907     8.666
    40   6 C        2.923    -0.033    28.814     8.803
    41   6 C        2.921    -0.049    29.209     8.863
    42   6 C        2.922    -0.048    29.201     8.862
    43   6 C        2.919    -0.030    28.759     8.794
    44   1 H        0.926     0.031     2.570     2.507
    45   1 H        0.926     0.033     2.550     2.497
    46   1 H        0.926     0.031     2.575     2.509
    47   1 H        0.926     0.031     2.570     2.507
    48   1 H        0.926     0.033     2.545     2.495
    49   1 H        0.926     0.032     2.564     2.504
    50   1 H        0.926     0.033     2.543     2.494
    51   1 H        0.926     0.031     2.578     2.511
    52   1 H        0.926     0.032     2.552     2.498
    53   1 H        0.926     0.033     2.544     2.494
    54   1 H        0.926     0.031     2.572     2.508
    55   1 H        0.926     0.029     2.595     2.519
    56   1 H        0.926     0.029     2.597     2.520
    57   1 H        0.926     0.031     2.579     2.511
    58   1 H        0.926     0.030     2.582     2.513
    59   1 H        0.926     0.033     2.546     2.495
    60   1 H        0.926     0.032     2.564     2.504
    61   1 H        0.926     0.030     2.581     2.512
    62   1 H        0.926     0.030     2.580     2.512
    63   1 H        0.926     0.031     2.567     2.505
    64   1 H        0.925     0.030     2.585     2.514
    65   1 H        0.926     0.030     2.581     2.512
    66   1 H        0.926     0.029     2.598     2.520
    67   1 H        0.926     0.029     2.596     2.519
    68   1 H        0.926     0.031     2.571     2.507
    69   1 H        0.926     0.033     2.548     2.496
    70   1 H        0.926     0.032     2.556     2.500
    71   1 H        0.926     0.030     2.583     2.513
    72   1 H        0.926     0.033     2.549     2.497

molecular dipole:
                 x           y           z       tot (Debye)
 q only:       -0.072       0.020      -0.009
   full:       -0.070       0.020      -0.003       0.185

 projected vibrational frequencies (cm⁻¹)
eigval :       -0.00    -0.00    -0.00     0.00     0.00     0.00
eigval :       13.35    15.20    17.14    28.48    37.31    41.22
eigval :       49.06    57.18    67.32    71.16    73.05    82.10
eigval :       98.81   112.49   133.03   135.65   164.01   165.57
eigval :      181.10   182.97   196.37   215.16   232.17   236.42
eigval :      290.67   293.28   318.84   319.47   349.44   352.37
eigval :      364.41   376.69   379.15   386.57   388.36   393.14
eigval :      402.52   411.92   416.59   446.45   448.90   449.53
eigval :      459.16   481.18   485.77   492.38   496.57   511.07
eigval :      544.05   569.83   580.31   582.05   584.89   588.91
eigval :      589.39   596.51   604.06   611.17   637.21   643.25
eigval :      650.08   659.54   666.09   686.21   691.69   692.93
eigval :      725.02   728.75   740.13   755.33   755.87   763.81
eigval :      771.99   775.43   794.57   813.50   817.85   832.80
eigval :      869.53   871.14   872.32   873.02   875.17   880.75
eigval :      882.07   885.92   889.42   893.53   897.98   898.44
eigval :      909.53   913.54   914.40   917.09   918.89   922.12
eigval :      923.69   925.07   926.91   927.56   928.11   929.09
eigval :      931.95   933.17   934.05   942.01   985.64   993.74
eigval :     1003.89  1026.86  1077.93  1081.23  1082.15  1082.59
eigval :     1083.56  1121.51  1123.77  1133.49  1135.83  1138.00
eigval :     1146.06  1173.72  1178.43  1179.71  1180.09  1180.69
eigval :     1181.93  1186.03  1189.06  1193.69  1195.66  1207.20
eigval :     1222.28  1227.48  1229.32  1233.60  1257.80  1258.93
eigval :     1261.68  1269.97  1277.76  1281.01  1307.36  1312.13
eigval :     1313.95  1321.21  1323.17  1325.68  1329.96  1348.65
eigval :     1356.74  1379.57  1383.76  1396.50  1405.64  1417.15
eigval :     1425.00  1428.06  1434.36  1439.82  1441.85  1457.95
eigval :     1470.89  1473.57  1480.77  1494.77  1500.21  1525.18
eigval :     1528.48  1541.15  1554.12  1559.80  1575.43  1579.41
eigval :     1591.71  1592.39  1599.93  1605.11  1607.32  1609.70
eigval :     1621.54  3063.32  3063.48  3065.71  3067.54  3068.85
eigval :     3068.88  3071.21  3071.55  3071.62  3072.32  3072.56
eigval :     3073.54  3073.63  3075.49  3075.84  3078.61  3081.63
eigval :     3082.32  3083.14  3084.37  3084.80  3085.06  3085.49
eigval :     3086.14  3086.55  3090.31  3092.07  3093.32  3094.06

   temp. (K)  partition function   enthalpy   heat capacity  entropy
                                   cal/mol     cal/K/mol   cal/K/mol   J/K/mol
 298.15  VIB  0.817E+15            19524.023    126.186    120.741
         ROT  0.656E+08              888.752      2.981     38.751
         INT  0.536E+23            20412.775    129.167    159.492
         TR   0.124E+29             1481.254      4.968     44.767
         TOT                       21894.0293   134.1350   204.2590   854.6195

       T/K    H(0)-H(T)+PV         H(T)/Eh          T*S/Eh         G(T)/Eh
   ------------------------------------------------------------------------
    298.15    0.348904E-01    0.595926E+00    0.970500E-01    0.498876E+00
   ------------------------------------------------------------------------

         :::::::::::::::::::::::::::::::::::::::::::::::::::::
         ::                  THERMODYNAMIC                  ::
         :::::::::::::::::::::::::::::::::::::::::::::::::::::
         :: total free energy        -107.197572321657 Eh   ::
         ::.................................................::
         :: total energy             -107.696448252161 Eh   ::
         :: zero point energy           0.561035601495 Eh   ::
         :: G(RRHO) w/o ZPVE           -0.062159670992 Eh   ::
         :: G(RRHO) contrib.            0.498875930504 Eh   ::
         :::::::::::::::::::::::::::::::::::::::::::::::::::::

           -------------------------------------------------
          | TOTAL ENERGY             -107.696448252161 Eh   |
          | TOTAL ENTHALPY           -107.100522294032 Eh   |
          | TOTAL FREE ENERGY        -107.197572321657 Eh   |
          | GRADIENT NORM               0.000057459114 Eh/α |
          | HOMO-LUMO GAP               1.892765207548 eV   |
           -------------------------------------------------

 * finished run on 2025/08/30 at 16:52:32.120
