   * xtb version 6.7.1 (edcfbbe) compiled by 'albert@albert-system' on 2024-07-22

   ID    Z sym.   atoms
    1    6 C      1-4, 6-43
    2    7 N      5
    3    1 H      44-72

          program call               : xtb data2507/toluene/TPA-AN-NA/TPA-AN-NA_toluene_S0_finalOpt.xtbopt.xyz --gfn 2 --uhf 2 --gbsa toluene --ohess vtight --parallel 40 --molden --ceasefiles --namespace data2507/toluene/TPA-AN-NA/TPA-AN-NA_toluene_T1_preOpt
      * Solvation model:               GBSA
        Solvent                        toluene
        Solvent mass                       9.2140E+01 g/mol
          :  Hamiltonian                  GFN2-xTB          :
 * total energy  :  -107.6205071 Eh     change       -0.2439819E-08 Eh
 * total energy  :  -107.6259085 Eh     change       -0.5401332E-02 Eh
 * total energy  :  -107.6273384 Eh     change       -0.1429930E-02 Eh
 * total energy  :  -107.6275490 Eh     change       -0.2105712E-03 Eh
 * total energy  :  -107.6278564 Eh     change       -0.3073949E-03 Eh
 * total energy  :  -107.6280365 Eh     change       -0.1801435E-03 Eh
 * total energy  :  -107.6282528 Eh     change       -0.2163203E-03 Eh
 * total energy  :  -107.6284284 Eh     change       -0.1756217E-03 Eh
 * total energy  :  -107.6285538 Eh     change       -0.1253960E-03 Eh
 * total energy  :  -107.6286697 Eh     change       -0.1158100E-03 Eh
 * total energy  :  -107.6302285 Eh     change       -0.3369914E-06 Eh
 * total energy  :  -107.6302288 Eh     change       -0.2878776E-06 Eh
 * total energy  :  -107.6302291 Eh     change       -0.2442692E-06 Eh
 * total energy  :  -107.6302293 Eh     change       -0.2545101E-06 Eh
 * total energy  :  -107.6302296 Eh     change       -0.3394441E-06 Eh
 * total energy  :  -107.6302301 Eh     change       -0.5000052E-06 Eh
 * total energy  :  -107.6302307 Eh     change       -0.5143114E-06 Eh
 * total energy  :  -107.6302311 Eh     change       -0.4499534E-06 Eh
 * total energy  :  -107.6302311 Eh     change       -0.2924679E-08 Eh
   *** GEOMETRY OPTIMIZATION CONVERGED AFTER 68 ITERATIONS ***

 final structure:
================
72
 xtb: 6.7.1 (edcfbbe)
C           -7.23027186383054       -3.65704559370583       -0.34831679417951
C           -7.73847060818845       -2.49808006493605       -0.91372247874474
C           -7.06011927522262       -1.30138686480708       -0.78593236841358
C           -5.85830635278313       -1.24795847298481       -0.07889590378498
N           -5.17255494105587       -0.03498354863606        0.06158645066258
C           -5.89296779232478        1.15180529285226        0.24994623688258
C           -7.04014154005424        1.16368732365019        1.04399797343537
C           -7.74792332805111        2.33638689951191        1.22408421213944
C           -7.32367523958840        3.51161374252394        0.62402867672357
C           -6.18428011882184        3.50491713159395       -0.16510815530073
C           -5.47274487944097        2.33630497619660       -0.35623872630356
C           -3.78151419998613       -0.00720398133715        0.02243034361256
C           -3.06957199358081       -0.87828161038446       -0.81089086537954
C           -1.69581308320486       -0.85600117697449       -0.83781832901367
C           -0.96150871959980        0.05029900863468       -0.05527091070672
C            0.48797588406929        0.07897405355826       -0.09529405827838
C            1.17452610533821        1.31531819589701       -0.30989163062706
C            0.49251734350094        2.50422291609114       -0.59091526991402
C            1.16103938688445        3.71821934093233       -0.70948755878720
C            2.53111856126896        3.76690955791980       -0.54806382737309
C            3.24287646968989        2.58970312181817       -0.34785969817867
C            2.60125465683001        1.34639112289746       -0.29015208158054
C            3.33882572520780        0.12793583180122       -0.19580660059204
C            4.79492401383812        0.16029272329568       -0.28176944524855
C            5.42319439073078        0.76459787643059       -1.39985850978482
C            6.78055827463544        0.79642928834245       -1.51501039644591
C            7.61151944137111        0.24471122525063       -0.51282926584501
C            9.01595091202650        0.27254061978648       -0.59640889907808
C            9.78715084798355       -0.27215356661852        0.39599075784936
C            9.18332476859830       -0.86951485368369        1.51289257540047
C            7.82099192925259       -0.91414941765235        1.62216982618584
C            6.99736256659671       -0.36093294648441        0.61648686876203
C            5.59444233405559       -0.39221059922072        0.70169030700925
C            2.65532754852075       -1.11452278267387       -0.03292431420459
C            3.34000538573405       -2.33553140341927       -0.00053854946930
C            2.68267674345713       -3.53276577825374        0.25672226674186
C            1.32386687837987       -3.52873785400494        0.50005670271912
C            0.60961429440127       -2.33843455126546        0.41350307456161
C            1.23232228149683       -1.13050627943004        0.08161127575476
C           -1.68777962657939        0.92654385337505        0.76782289344274
C           -3.06067766268110        0.89273046116315        0.81655075279649
C           -5.35223376849548       -2.41692320918315        0.49098524468838
C           -6.03464099029607       -3.60989973705621        0.35118681207744
H           -7.76224196297260       -4.59068498736292       -0.45203665489706
H           -8.66653462783066       -2.52704085195751       -1.46565681346291
H           -7.45228784098216       -0.40120289984310       -1.23614896279764
H           -7.36594420156684        0.25089523028258        1.52091721308571
H           -8.63227542604220        2.33415455283306        1.84430235295139
H           -7.87779619652341        4.42660231336992        0.76965718845280
H           -5.85082243954688        4.41488544965277       -0.64211617180142
H           -4.59190612062395        2.32940088185406       -0.98154018336209
H           -3.61176688953612       -1.55924522607055       -1.45085652580960
H           -1.16655323701614       -1.51091287046968       -1.51455007018004
H           -0.57806267734057        2.48338918233221       -0.72582990835100
H            0.60015817736568        4.61891805391646       -0.91303901943806
H            3.05746145580818        4.70927603104318       -0.59310747428577
H            4.31539839857079        2.63789419187695       -0.23471760511005
H            4.79930512282859        1.17106224485990       -2.18342329666101
H            7.24391775109261        1.24223791882335       -2.38454848906689
H            9.47658695563358        0.73405098073811       -1.45907541654418
H           10.86512656095073       -0.24554846209050        0.32600055516316
H            9.80586243807635       -1.29415482500505        2.28769219068713
H            7.35179025702255       -1.37460580795715        2.48064204521916
H            5.13719599407955       -0.83163679216979        1.57774931737824
H            4.40406685567580       -2.35038891223430       -0.18119162110371
H            3.24308469110824       -4.45610120594020        0.28007039445644
H            0.80716546671133       -4.44538245981324        0.74504710362714
H           -0.45067228382357       -2.35100648294036        0.61486570287365
H           -1.14919902687229        1.60160459680183        1.41676093590554
H           -3.59391211441830        1.55135997195974        1.48672019910205
H           -4.42815698599348       -2.37918296406536        1.04914112549780
H           -5.63448289900199       -4.50725488353916        0.79995606990249

          :  Hamiltonian                  GFN2-xTB          :
         :: gradient norm              0.000039033081 Eh/a0 ::
         :: HOMO-LUMO gap              0.760542098325 eV    ::
         :: SCC energy              -109.702867692978 Eh    ::
         :: -> dispersion             -0.101061610445 Eh    ::
         :: -> Gsolv                  -0.043656420958 Eh    ::
         :: repulsion energy           2.072636577096 Eh    ::

    * Orbital Energies and Occupations

         #    Occupation            Energy/Eh            Energy/eV
      -------------------------------------------------------------
         1        2.0000           -0.6720753             -18.2881
       ...           ...                  ...                  ...
        90        2.0000           -0.4120575             -11.2127
        91        2.0000           -0.4108024             -11.1785
        92        2.0000           -0.4092342             -11.1358
        93        2.0000           -0.4087327             -11.1222
        94        2.0000           -0.4017876             -10.9332
        95        2.0000           -0.4014863             -10.9250
        96        2.0000           -0.3949458             -10.7470
        97        2.0000           -0.3940259             -10.7220
        98        2.0000           -0.3912121             -10.6454
        99        2.0000           -0.3743702             -10.1871
       100        1.9998           -0.3582329              -9.7480
       101        1.0002           -0.3415709              -9.2946
       102        1.0000           -0.2829011              -7.6981 (HOMO)
       103        0.0000           -0.2549516              -6.9376 (LUMO)
       104                         -0.2357824              -6.4160
       105                         -0.2349873              -6.3943
       106                         -0.2314357              -6.2977
       107                         -0.2265179              -6.1639
       108                         -0.2255805              -6.1384
       109                         -0.2243255              -6.1042
       110                         -0.2217657              -6.0346
       111                         -0.2164404              -5.8896
       112                         -0.2022574              -5.5037
       113                         -0.1866359              -5.0786
       ...                                ...                  ...
       201                          0.7163440              19.4927
      -------------------------------------------------------------
                  HL-Gap            0.0279495 Eh            0.7605 eV

     #   Z          covCN         q      C6AA      α(0)
     1   6 C        2.919    -0.036    28.886     8.813
     2   6 C        2.919    -0.028    28.710     8.787
     3   6 C        2.922    -0.045    29.121     8.850
     4   6 C        2.925     0.064    26.559     8.451
     5   7 N        2.752    -0.059    22.372     7.025
     6   6 C        2.925     0.064    26.559     8.451
     7   6 C        2.922    -0.045    29.116     8.849
     8   6 C        2.919    -0.028    28.709     8.786
     9   6 C        2.919    -0.035    28.882     8.813
    10   6 C        2.919    -0.028    28.710     8.787
    11   6 C        2.922    -0.044    29.102     8.847
    12   6 C        2.924     0.062    26.621     8.461
    13   6 C        2.918    -0.047    29.171     8.857
    14   6 C        2.922    -0.032    28.806     8.801
    15   6 C        2.972     0.011    27.757     8.642
    16   6 C        2.971    -0.019    28.479     8.754
    17   6 C        2.977     0.006    27.880     8.661
    18   6 C        2.921    -0.044    29.085     8.844
    19   6 C        2.914    -0.035    28.865     8.810
    20   6 C        2.914    -0.036    28.894     8.814
    21   6 C        2.921    -0.041    29.022     8.834
    22   6 C        2.978     0.006    27.893     8.663
    23   6 C        2.973    -0.015    28.377     8.738
    24   6 C        2.970     0.012    27.742     8.640
    25   6 C        2.919    -0.033    28.817     8.803
    26   6 C        2.914    -0.039    28.980     8.828
    27   6 C        2.986     0.008    27.828     8.653
    28   6 C        2.917    -0.038    28.935     8.821
    29   6 C        2.916    -0.034    28.845     8.807
    30   6 C        2.915    -0.032    28.802     8.801
    31   6 C        2.918    -0.038    28.956     8.824
    32   6 C        2.984     0.010    27.797     8.648
    33   6 C        2.923    -0.043    29.071     8.842
    34   6 C        2.977     0.005    27.895     8.664
    35   6 C        2.921    -0.042    29.033     8.836
    36   6 C        2.914    -0.035    28.882     8.813
    37   6 C        2.914    -0.035    28.867     8.810
    38   6 C        2.921    -0.043    29.072     8.842
    39   6 C        2.977     0.006    27.880     8.661
    40   6 C        2.922    -0.032    28.807     8.802
    41   6 C        2.918    -0.047    29.171     8.857
    42   6 C        2.922    -0.045    29.108     8.847
    43   6 C        2.919    -0.028    28.711     8.787
    44   1 H        0.926     0.036     2.500     2.473
    45   1 H        0.926     0.038     2.480     2.463
    46   1 H        0.926     0.036     2.501     2.473
    47   1 H        0.926     0.036     2.500     2.472
    48   1 H        0.926     0.038     2.478     2.461
    49   1 H        0.926     0.036     2.498     2.471
    50   1 H        0.926     0.038     2.481     2.463
    51   1 H        0.926     0.036     2.504     2.475
    52   1 H        0.926     0.036     2.504     2.475
    53   1 H        0.926     0.038     2.477     2.461
    54   1 H        0.926     0.029     2.595     2.519
    55   1 H        0.926     0.025     2.659     2.550
    56   1 H        0.926     0.024     2.677     2.559
    57   1 H        0.926     0.027     2.628     2.535
    58   1 H        0.926     0.030     2.589     2.516
    59   1 H        0.925     0.030     2.590     2.517
    60   1 H        0.925     0.029     2.603     2.523
    61   1 H        0.926     0.028     2.617     2.530
    62   1 H        0.926     0.028     2.614     2.528
    63   1 H        0.925     0.028     2.608     2.525
    64   1 H        0.925     0.029     2.600     2.522
    65   1 H        0.926     0.028     2.615     2.529
    66   1 H        0.926     0.024     2.673     2.556
    67   1 H        0.926     0.025     2.655     2.548
    68   1 H        0.926     0.029     2.594     2.518
    69   1 H        0.926     0.038     2.475     2.460
    70   1 H        0.926     0.036     2.506     2.476
    71   1 H        0.926     0.036     2.506     2.475
    72   1 H        0.926     0.037     2.484     2.464

molecular dipole:
                 x           y           z       tot (Debye)
 q only:       -2.163      -0.019       0.019
   full:       -2.112      -0.018       0.015       5.369

 projected vibrational frequencies (cm⁻¹)
eigval :       -0.00    -0.00    -0.00    -0.00     0.00     0.00
eigval :       10.43    14.99    15.74    34.79    37.91    46.37
eigval :       51.54    56.67    62.34    75.85    76.83    85.36
eigval :       99.93   127.03   141.06   144.78   165.93   174.67
eigval :      186.02   194.23   195.95   229.60   233.24   240.52
eigval :      291.91   294.55   315.58   319.17   341.39   349.90
eigval :      368.78   376.25   377.58   379.92   383.24   390.68
eigval :      400.58   409.73   414.85   428.00   430.80   450.99
eigval :      471.90   482.38   486.06   494.01   495.68   513.28
eigval :      542.03   563.50   570.47   576.36   579.84   584.71
eigval :      587.87   594.19   599.35   605.04   619.15   640.92
eigval :      643.91   659.90   664.79   675.77   686.49   688.02
eigval :      716.40   720.99   725.68   750.01   753.62   756.20
eigval :      759.53   761.14   791.67   813.10   818.97   833.38
eigval :      843.59   850.76   866.39   869.43   871.67   873.51
eigval :      880.14   883.85   888.42   890.27   893.62   894.01
eigval :      896.54   897.43   903.31   907.84   909.10   909.66
eigval :      924.34   926.04   927.15   929.16   929.53   930.33
eigval :      930.82   937.85   939.27   945.23   984.11   992.02
eigval :     1003.14  1019.69  1077.84  1080.58  1081.73  1102.99
eigval :     1106.09  1117.31  1120.59  1122.48  1124.44  1140.83
eigval :     1141.71  1172.79  1176.81  1177.33  1178.32  1178.93
eigval :     1181.00  1181.52  1182.85  1190.17  1192.91  1200.38
eigval :     1216.59  1222.24  1228.21  1234.41  1254.86  1259.50
eigval :     1267.94  1275.36  1278.75  1287.65  1295.26  1301.56
eigval :     1307.67  1312.89  1314.39  1322.29  1323.97  1328.86
eigval :     1337.96  1355.85  1361.27  1370.11  1378.72  1390.31
eigval :     1411.28  1418.29  1419.07  1423.12  1433.06  1439.29
eigval :     1443.18  1464.50  1464.98  1466.18  1477.49  1490.67
eigval :     1495.78  1513.59  1526.39  1528.14  1539.78  1548.85
eigval :     1571.10  1571.93  1576.42  1582.47  1586.10  1592.12
eigval :     1599.91  3058.60  3060.27  3061.40  3065.59  3067.39
eigval :     3067.63  3070.94  3074.43  3075.03  3075.53  3075.74
eigval :     3076.12  3076.37  3076.76  3076.99  3077.53  3082.89
eigval :     3084.24  3085.49  3086.33  3087.33  3088.68  3088.95
eigval :     3089.23  3089.72  3092.70  3093.53  3095.82  3096.92

   temp. (K)  partition function   enthalpy   heat capacity  entropy
                                   cal/mol     cal/K/mol   cal/K/mol   J/K/mol
 298.15  VIB  0.602E+15            19529.205    127.254    120.486
         ROT  0.658E+08              888.752      2.981     38.756
         INT  0.396E+23            20417.957    130.235    159.242
         TR   0.124E+29             1481.254      4.968     44.767
         TOT                       21899.2108   135.2034   204.0082   853.5702

       T/K    H(0)-H(T)+PV         H(T)/Eh          T*S/Eh         G(T)/Eh
   ------------------------------------------------------------------------
    298.15    0.348986E-01    0.593593E+00    0.969309E-01    0.496662E+00
   ------------------------------------------------------------------------

         :::::::::::::::::::::::::::::::::::::::::::::::::::::
         ::                  THERMODYNAMIC                  ::
         :::::::::::::::::::::::::::::::::::::::::::::::::::::
         :: total free energy        -107.133569445620 Eh   ::
         ::.................................................::
         :: total energy             -107.630231120046 Eh   ::
         :: zero point energy           0.558693929550 Eh   ::
         :: G(RRHO) w/o ZPVE           -0.062032255124 Eh   ::
         :: G(RRHO) contrib.            0.496661674426 Eh   ::
         :::::::::::::::::::::::::::::::::::::::::::::::::::::

           -------------------------------------------------
          | TOTAL ENERGY             -107.630231120046 Eh   |
          | TOTAL ENTHALPY           -107.036638576670 Eh   |
          | TOTAL FREE ENERGY        -107.133569445620 Eh   |
          | GRADIENT NORM               0.000039035619 Eh/α |
          | HOMO-LUMO GAP               0.760543797323 eV   |
           -------------------------------------------------

 * finished run on 2025/08/30 at 16:52:39.818
