   * xtb version 6.7.1 (edcfbbe) compiled by 'albert@albert-system' on 2024-07-22

   ID    Z sym.   atoms
    1    6 C      1-4, 6-43
    2    7 N      5
    3    1 H      44-72

          program call               : xtb data2507/toluene/TPA-AN-NA/TPA-AN-NA.xyz --gfn 2 --gbsa toluene --ohess vtight --parallel 40 --molden --ceasefiles --namespace data2507/toluene/TPA-AN-NA/TPA-AN-NA_toluene_S0_preOpt
      * Solvation model:               GBSA
        Solvent                        toluene
        Solvent mass                       9.2140E+01 g/mol
          :  Hamiltonian                  GFN2-xTB          :
 * total energy  :  -107.6736329 Eh     change       -0.1688349E-08 Eh
 * total energy  :  -107.6893673 Eh     change       -0.1573443E-01 Eh
 * total energy  :  -107.6943826 Eh     change       -0.5015260E-02 Eh
 * total energy  :  -107.6952576 Eh     change       -0.8750083E-03 Eh
 * total energy  :  -107.6956988 Eh     change       -0.4411548E-03 Eh
 * total energy  :  -107.6958356 Eh     change       -0.1368073E-03 Eh
 * total energy  :  -107.6959144 Eh     change       -0.7878551E-04 Eh
 * total energy  :  -107.6959563 Eh     change       -0.4196105E-04 Eh
 * total energy  :  -107.6959954 Eh     change       -0.3909737E-04 Eh
 * total energy  :  -107.6960156 Eh     change       -0.2014349E-04 Eh
 * total energy  :  -107.6960479 Eh     change       -0.5719928E-06 Eh
 * total energy  :  -107.6960487 Eh     change       -0.7586110E-06 Eh
 * total energy  :  -107.6960495 Eh     change       -0.8130467E-06 Eh
 * total energy  :  -107.6960502 Eh     change       -0.7056354E-06 Eh
 * total energy  :  -107.6960509 Eh     change       -0.6948775E-06 Eh
 * total energy  :  -107.6960517 Eh     change       -0.7746533E-06 Eh
 * total energy  :  -107.6960525 Eh     change       -0.7856086E-06 Eh
 * total energy  :  -107.6960530 Eh     change       -0.4810694E-06 Eh
 * total energy  :  -107.6960530 Eh     change       -0.6824607E-08 Eh
   *** GEOMETRY OPTIMIZATION CONVERGED AFTER 44 ITERATIONS ***

 final structure:
================
72
 xtb: 6.7.1 (edcfbbe)
C           -7.30316048081561        3.23039711662192       -1.30367391562523
C           -7.76049396456796        1.93997821019467       -1.51783556643384
C           -7.02973679236435        0.85510109277988       -1.07305369133028
C           -5.82611095622132        1.04790045348398       -0.39447943110176
N           -5.08533267942725       -0.04856374288075        0.06263743932954
C           -5.74222630911682       -1.17505040290579        0.57273414787384
C           -6.89656857424221       -1.03320634044209        1.34311870199777
C           -7.54303525201710       -2.14802363961870        1.84131135644288
C           -7.04847506982777       -3.41778805240419        1.58978236695043
C           -5.89972927502870       -3.56435494667934        0.82895062782233
C           -5.25111689156861       -2.45602161933892        0.31937070062675
C           -3.68661388103963       -0.01804387413639        0.01495067785966
C           -3.02562089351155        0.57984280678084       -1.05828761505575
C           -1.64610214403762        0.61165389087891       -1.09920054806714
C           -0.88969805386832        0.04106695904037       -0.08029309863152
C            0.59098733496577        0.07212876370023       -0.13167874731106
C            1.28541542413706        1.14804163189508        0.43591604034674
C            0.60728359384815        2.22295978634409        1.06933170291476
C            1.29222820598850        3.26351835486118        1.61709538117702
C            2.70124138390144        3.29454758736066        1.56525993909591
C            3.38930057367610        2.28397462040597        0.96743917448479
C            2.71390428949842        1.17979404901098        0.38305046491158
C            3.41087839299681        0.13406920367583       -0.23541791016592
C            4.89116070094575        0.17508747306940       -0.30116480306178
C            5.51821743456863        0.80578978127364       -1.39665665928840
C            6.87980959691754        0.86328752242263       -1.48099248209043
C            7.69251271676986        0.29524045807184       -0.47660298446866
C            9.10134284581878        0.34071665850684       -0.53246934715444
C            9.85797222980142       -0.21889201214644        0.45907101307982
C            9.24066574254537       -0.85035765266877        1.55110440810574
C            7.87771223794414       -0.91147189876707        1.63394400143934
C            7.06810472629406       -0.34266745945545        0.62767406309471
C            5.66007859125556       -0.38652447523017        0.68632820042036
C            2.71715010002426       -0.94272336283471       -0.80179163759409
C            3.39547936694109       -2.01733049825252       -1.43577610592696
C            2.71017454884015       -3.05770577695073       -1.98356524254443
C            1.30114948365058       -3.08868821248913       -1.93143500167495
C            0.61342042145611       -2.07818423135995       -1.33324331857844
C            1.28859897302645       -0.97407128110154       -0.74875074219647
C           -1.55015482127826       -0.55926177775747        0.98707460793127
C           -2.92936157535992       -0.58571107681049        1.03997022832085
C           -5.37228260447280        2.34943151198035       -0.17883447935169
C           -6.10568625054064        3.42777203174977       -0.63506547485886
H           -7.87574692201137        4.07558026629307       -1.65527251323335
H           -8.69004648724710        1.77564320069985       -2.04348408199456
H           -7.38464455434178       -0.15009224151431       -1.24919795855421
H           -7.27962095299602       -0.04406995206598        1.54849692858884
H           -8.43522163992158       -2.02317675128501        2.43780866212884
H           -7.55445238250969       -4.28648662660386        1.98360270136076
H           -5.50919922884416       -4.55053088662154        0.62321520855784
H           -4.36029498507948       -2.57431131865167       -0.28040769662042
H           -3.60159446447300        1.01756502708587       -1.86065484259163
H           -1.14412209827206        1.07646259731724       -1.93579351657757
H           -0.47202425050742        2.19584002219628        1.10761773437959
H            0.76297276597364        4.07485956926496        2.09587667069384
H            3.22847163591232        4.12834609870357        2.00607128616320
H            4.46879615635930        2.30514035583539        0.92778751216572
H            4.89894169510607        1.24291172563177       -2.16723237923457
H            7.35575120296781        1.34798348893021       -2.32210181341047
H            9.57177401712344        0.82768512638576       -1.37541396275006
H           10.93676329144850       -0.18002916705633        0.41056380863429
H            9.85422731992283       -1.28759720060105        2.32580929039915
H            7.39779136822549       -1.39639967742429        2.47262061147555
H            5.18594552365316       -0.87181764194516        1.52855138441213
H            4.47492920016078       -1.99175783221678       -1.47426984254548
H            3.23964187093547       -3.86880797114856       -2.46245620797474
H            0.77420722732979       -3.92266271310388       -2.37233206000350
H           -0.46595508827899       -2.09819576125233       -1.29228371598146
H           -0.97327740042512       -1.00105022100221        1.78705050034799
H           -3.43054868684851       -1.04631737438616        1.87891291615066
H           -4.44365940081124        2.50731681862893        0.35033425067540
H           -5.74308617905550        4.43031141002736       -0.45926731637786

          :  Hamiltonian                  GFN2-xTB          :
         :: gradient norm              0.000062354807 Eh/a0 ::
         :: HOMO-LUMO gap              1.935603128058 eV    ::
         :: SCC energy              -109.787873304060 Eh    ::
         :: -> dispersion             -0.100471710324 Eh    ::
         :: -> Gsolv                  -0.043665411597 Eh    ::
         :: repulsion energy           2.091820343314 Eh    ::

    * Orbital Energies and Occupations

         #    Occupation            Energy/Eh            Energy/eV
      -------------------------------------------------------------
         1        2.0000           -0.6640702             -18.0703
       ...           ...                  ...                  ...
        89        2.0000           -0.4141914             -11.2707
        90        2.0000           -0.4085371             -11.1169
        91        2.0000           -0.4071045             -11.0779
        92        2.0000           -0.4051267             -11.0241
        93        2.0000           -0.4046869             -11.0121
        94        2.0000           -0.4039068             -10.9909
        95        2.0000           -0.4012935             -10.9198
        96        2.0000           -0.4007834             -10.9059
        97        2.0000           -0.3979599             -10.8290
        98        2.0000           -0.3959183             -10.7735
        99        2.0000           -0.3775442             -10.2735
       100        2.0000           -0.3581051              -9.7445
       101        2.0000           -0.3487834              -9.4909 (HOMO)
       102                         -0.2776513              -7.5553 (LUMO)
       103                         -0.2591699              -7.0524
       104                         -0.2304419              -6.2706
       105                         -0.2302113              -6.2644
       106                         -0.2299442              -6.2571
       107                         -0.2280735              -6.2062
       108                         -0.2272155              -6.1828
       109                         -0.2220709              -6.0429
       110                         -0.2213274              -6.0226
       111                         -0.2192501              -5.9661
       112                         -0.1944944              -5.2925
       ...                                ...                  ...
       201                          0.7152263              19.4623
      -------------------------------------------------------------
                  HL-Gap            0.0711321 Eh            1.9356 eV

     #   Z          covCN         q      C6AA      α(0)
     1   6 C        2.919    -0.040    28.987     8.829
     2   6 C        2.919    -0.030    28.759     8.794
     3   6 C        2.922    -0.048    29.200     8.862
     4   6 C        2.923     0.066    26.527     8.446
     5   7 N        2.752    -0.081    22.819     7.095
     6   6 C        2.923     0.066    26.527     8.446
     7   6 C        2.922    -0.048    29.198     8.861
     8   6 C        2.919    -0.030    28.758     8.794
     9   6 C        2.919    -0.040    28.985     8.829
    10   6 C        2.919    -0.030    28.759     8.794
    11   6 C        2.922    -0.048    29.194     8.861
    12   6 C        2.923     0.064    26.573     8.453
    13   6 C        2.921    -0.049    29.206     8.862
    14   6 C        2.923    -0.033    28.821     8.804
    15   6 C        2.976     0.007    27.852     8.657
    16   6 C        2.977    -0.006    28.156     8.704
    17   6 C        2.984     0.005    27.905     8.665
    18   6 C        2.917    -0.034    28.853     8.808
    19   6 C        2.914    -0.031    28.774     8.796
    20   6 C        2.914    -0.031    28.774     8.796
    21   6 C        2.917    -0.034    28.854     8.808
    22   6 C        2.984     0.005    27.899     8.664
    23   6 C        2.978    -0.007    28.178     8.707
    24   6 C        2.973     0.015    27.678     8.630
    25   6 C        2.919    -0.033    28.821     8.804
    26   6 C        2.916    -0.037    28.911     8.817
    27   6 C        2.987     0.009    27.800     8.649
    28   6 C        2.918    -0.036    28.898     8.815
    29   6 C        2.916    -0.032    28.792     8.799
    30   6 C        2.916    -0.031    28.775     8.796
    31   6 C        2.918    -0.036    28.904     8.816
    32   6 C        2.986     0.011    27.763     8.643
    33   6 C        2.923    -0.040    29.005     8.832
    34   6 C        2.984     0.005    27.898     8.664
    35   6 C        2.917    -0.034    28.853     8.808
    36   6 C        2.914    -0.031    28.774     8.796
    37   6 C        2.914    -0.031    28.774     8.796
    38   6 C        2.917    -0.034    28.853     8.808
    39   6 C        2.984     0.005    27.905     8.665
    40   6 C        2.923    -0.033    28.821     8.804
    41   6 C        2.921    -0.049    29.206     8.862
    42   6 C        2.922    -0.048    29.198     8.861
    43   6 C        2.919    -0.030    28.759     8.794
    44   1 H        0.926     0.031     2.569     2.506
    45   1 H        0.926     0.033     2.549     2.497
    46   1 H        0.926     0.031     2.575     2.509
    47   1 H        0.926     0.031     2.574     2.509
    48   1 H        0.926     0.033     2.548     2.496
    49   1 H        0.926     0.031     2.567     2.506
    50   1 H        0.926     0.033     2.546     2.495
    51   1 H        0.926     0.030     2.580     2.512
    52   1 H        0.926     0.032     2.553     2.499
    53   1 H        0.926     0.032     2.564     2.504
    54   1 H        0.926     0.030     2.590     2.517
    55   1 H        0.926     0.030     2.588     2.516
    56   1 H        0.926     0.030     2.589     2.516
    57   1 H        0.926     0.030     2.590     2.516
    58   1 H        0.926     0.030     2.593     2.518
    59   1 H        0.926     0.033     2.543     2.494
    60   1 H        0.926     0.032     2.563     2.503
    61   1 H        0.926     0.030     2.580     2.512
    62   1 H        0.926     0.031     2.579     2.511
    63   1 H        0.926     0.031     2.566     2.505
    64   1 H        0.925     0.030     2.593     2.518
    65   1 H        0.926     0.030     2.589     2.516
    66   1 H        0.926     0.030     2.589     2.516
    67   1 H        0.926     0.030     2.588     2.516
    68   1 H        0.926     0.030     2.590     2.517
    69   1 H        0.926     0.032     2.564     2.504
    70   1 H        0.926     0.032     2.555     2.500
    71   1 H        0.926     0.030     2.581     2.512
    72   1 H        0.926     0.033     2.548     2.496

molecular dipole:
                 x           y           z       tot (Debye)
 q only:       -0.024       0.004      -0.013
   full:       -0.025       0.005      -0.011       0.070

 projected vibrational frequencies (cm⁻¹)
eigval :       -0.00     0.00     0.00     0.00     0.00     0.00
eigval :       10.98    11.64    14.63    21.28    34.63    38.50
eigval :       41.94    51.80    65.48    68.29    70.40    83.02
eigval :       95.62   105.40   129.03   133.81   161.47   163.46
eigval :      177.30   178.14   196.53   214.70   230.77   231.99
eigval :      289.86   291.27   318.89   321.68   343.97   353.15
eigval :      363.63   374.11   376.96   384.13   388.23   393.66
eigval :      402.29   410.21   417.70   445.72   449.42   451.75
eigval :      459.71   480.83   485.21   490.82   496.27   510.43
eigval :      543.96   569.85   579.98   582.15   584.47   588.65
eigval :      588.81   596.99   604.05   611.99   638.68   642.72
eigval :      650.46   659.16   664.52   685.85   692.11   693.16
eigval :      725.64   728.64   741.16   754.25   756.49   758.50
eigval :      774.29   776.64   794.32   813.15   817.74   833.45
eigval :      871.05   871.89   873.27   873.77   873.81   875.61
eigval :      881.84   885.89   888.71   889.70   896.76   897.62
eigval :      909.35   914.57   915.64   917.90   918.23   923.32
eigval :      925.57   926.07   927.17   927.96   928.70   929.01
eigval :      929.23   929.68   932.00   941.85   985.61   993.71
eigval :     1003.82  1026.34  1076.66  1077.57  1078.19  1081.81
eigval :     1083.06  1120.71  1123.36  1133.61  1134.75  1135.90
eigval :     1144.58  1171.91  1176.88  1177.66  1178.98  1179.15
eigval :     1179.55  1185.02  1187.49  1192.06  1195.14  1205.96
eigval :     1221.06  1225.25  1226.25  1231.61  1255.32  1257.26
eigval :     1263.16  1267.42  1276.94  1280.26  1305.68  1312.41
eigval :     1313.44  1320.69  1323.68  1325.75  1329.00  1348.11
eigval :     1357.15  1379.93  1384.06  1395.81  1404.49  1418.41
eigval :     1424.96  1428.44  1434.01  1440.66  1442.42  1459.04
eigval :     1470.71  1473.43  1481.87  1496.79  1500.27  1525.04
eigval :     1532.53  1543.26  1555.17  1560.08  1575.42  1579.42
eigval :     1591.65  1594.15  1600.93  1607.05  1607.31  1610.14
eigval :     1622.06  3063.00  3063.59  3065.36  3067.65  3068.22
eigval :     3068.26  3070.80  3071.32  3071.46  3072.08  3072.14
eigval :     3073.30  3073.74  3073.75  3074.06  3078.36  3081.19
eigval :     3082.01  3082.12  3082.36  3083.36  3084.27  3084.93
eigval :     3085.21  3086.72  3087.81  3089.81  3093.17  3094.07

   temp. (K)  partition function   enthalpy   heat capacity  entropy
                                   cal/mol     cal/K/mol   cal/K/mol   J/K/mol
 298.15  VIB  0.365E+16            19629.297    125.798    122.203
         ROT  0.656E+08              888.752      2.981     38.749
         INT  0.239E+24            20518.050    128.779    160.951
         TR   0.124E+29             1481.254      4.968     44.767
         TOT                       21999.3034   133.7472   205.7180   860.7240

       T/K    H(0)-H(T)+PV         H(T)/Eh          T*S/Eh         G(T)/Eh
   ------------------------------------------------------------------------
    298.15    0.350581E-01    0.595743E+00    0.977432E-01    0.498000E+00
   ------------------------------------------------------------------------

         :::::::::::::::::::::::::::::::::::::::::::::::::::::
         ::                  THERMODYNAMIC                  ::
         :::::::::::::::::::::::::::::::::::::::::::::::::::::
         :: total free energy        -107.198053185316 Eh   ::
         ::.................................................::
         :: total energy             -107.696052960312 Eh   ::
         :: zero point energy           0.560684898783 Eh   ::
         :: G(RRHO) w/o ZPVE           -0.062685123788 Eh   ::
         :: G(RRHO) contrib.            0.497999774996 Eh   ::
         :::::::::::::::::::::::::::::::::::::::::::::::::::::

           -------------------------------------------------
          | TOTAL ENERGY             -107.696052960312 Eh   |
          | TOTAL ENTHALPY           -107.100309939965 Eh   |
          | TOTAL FREE ENERGY        -107.198053185316 Eh   |
          | GRADIENT NORM               0.000062350225 Eh/α |
          | HOMO-LUMO GAP               1.935602975722 eV   |
           -------------------------------------------------

 * finished run on 2025/08/30 at 16:47:48.588
