   * xtb version 6.7.1 (edcfbbe) compiled by 'albert@albert-system' on 2024-07-22

   ID    Z sym.   atoms
    1    6 C      1-4, 6-43
    2    7 N      5
    3    1 H      44-72

          program call               : xtb data2507/toluene/TPA-AN-NA/TPA-AN-NA_toluene_T1_crest.xyz --gfn 2 --uhf 2 --gbsa toluene --ohess vtight --parallel 40 --molden --ceasefiles --namespace data2507/toluene/TPA-AN-NA/TPA-AN-NA_toluene_T1_finalOpt
      * Solvation model:               GBSA
        Solvent                        toluene
        Solvent mass                       9.2140E+01 g/mol
          :  Hamiltonian                  GFN2-xTB          :
 * total energy  :  -107.6301880 Eh     change       -0.1043630E-07 Eh
 * total energy  :  -107.6302208 Eh     change       -0.3279770E-04 Eh
 * total energy  :  -107.6302355 Eh     change       -0.1464331E-04 Eh
 * total energy  :  -107.6302414 Eh     change       -0.5915204E-05 Eh
 * total energy  :  -107.6302470 Eh     change       -0.5571006E-05 Eh
 * total energy  :  -107.6302507 Eh     change       -0.3724693E-05 Eh
 * total energy  :  -107.6302550 Eh     change       -0.4351129E-05 Eh
 * total energy  :  -107.6302580 Eh     change       -0.2946180E-05 Eh
 * total energy  :  -107.6302589 Eh     change       -0.9322516E-06 Eh
 * total energy  :  -107.6302595 Eh     change       -0.5590814E-06 Eh
 * total energy  :  -107.6302602 Eh     change       -0.6839970E-06 Eh
 * total energy  :  -107.6302606 Eh     change       -0.4827506E-06 Eh
 * total energy  :  -107.6302610 Eh     change       -0.3750849E-06 Eh
 * total energy  :  -107.6302614 Eh     change       -0.3996933E-06 Eh
 * total energy  :  -107.6302617 Eh     change       -0.3279104E-06 Eh
 * total energy  :  -107.6302619 Eh     change       -0.1696306E-06 Eh
 * total energy  :  -107.6302620 Eh     change       -0.1205805E-06 Eh
 * total energy  :  -107.6302621 Eh     change       -0.8791908E-07 Eh
   *** GEOMETRY OPTIMIZATION CONVERGED AFTER 18 ITERATIONS ***

 final structure:
================
72
 xtb: 6.7.1 (edcfbbe)
C           -7.21809478134506       -3.66635030058186       -0.55344131385768
C           -7.73391329751963       -2.48134822325633       -1.05430970800082
C           -7.06066862610980       -1.28994797967665       -0.86543856185140
C           -5.85623518036607       -1.26817993345826       -0.16102290339029
N           -5.17469489220165       -0.06186873109739        0.03965453032089
C           -5.89703331560125        1.11448604996697        0.27974233084456
C           -7.04520730636993        1.09080797037846        1.07193412289899
C           -7.75335329570324        2.25436658411138        1.30293161812335
C           -7.32890789769277        3.45493877679202        0.75554644577453
C           -6.18847555093710        3.48350422914340       -0.03158262129426
C           -5.47616224104433        2.32470720881660       -0.27276570598164
C           -3.78331707712788       -0.02827860940478        0.00871347523013
C           -3.06419968694392       -0.84965907093409       -0.86779908645138
C           -1.69055112604685       -0.81998630490201       -0.88754766948330
C           -0.96305974448123        0.04298611745831       -0.05100857506726
C            0.48598923920441        0.07882614622060       -0.08243420208835
C            1.16979869164362        1.32890338821782       -0.21183780018644
C            0.48660673907384        2.53249178643797       -0.41702470139583
C            1.15284158698271        3.75301537182804       -0.45221488294580
C            2.52217860452056        3.79399684601498       -0.28232586985376
C            3.23593884331708        2.60738587305659       -0.15985939108242
C            2.59633113104442        1.36197614290307       -0.18593479695170
C            3.33693676909906        0.14226523976820       -0.17145334062434
C            4.79325286298200        0.18541094188705       -0.25769291920804
C            5.41541643813495        0.85411094860626       -1.34197096918740
C            6.77226391272301        0.89440659868139       -1.46102426078462
C            7.60824949548227        0.29049612600426       -0.49373404070791
C            9.01235527503661        0.32581636588784       -0.58110264378537
C            9.78856354534656       -0.26608958384678        0.37976668038883
C            9.19054518508322       -0.92014848814563        1.46767208057801
C            7.82874046311059       -0.97552792013600        1.57847843521488
C            7.00004460247268       -0.37526624443406        0.60449273763875
C            5.59738267723706       -0.41748133947390        0.69131735495032
C            2.65748290363673       -1.10985871130924       -0.08936574352566
C            3.34678831584255       -2.32809192645866       -0.13086022342838
C            2.69302423512537       -3.54127414648230        0.04843303405069
C            1.33339651855753       -3.55697861636782        0.28683250125085
C            0.61518775306428       -2.36597027448304        0.27290475179723
C            1.23417566323234       -1.13742861149882        0.01933563358619
C           -1.69685209201857        0.86876939524006        0.81680201496856
C           -3.06981938714485        0.82888796254010        0.85507312821671
C           -5.34310939349917       -2.46337407853183        0.34481515361600
C           -6.02040444065374       -3.65047468900332        0.14395490098292
H           -7.74599974803858       -4.59576411083915       -0.70478548715381
H           -8.66396020835280       -2.48531812486171       -1.60363132678679
H           -7.45857665165158       -0.36915258548788       -1.26617390283545
H           -7.37180633719095        0.15769393207974        1.50711533948250
H           -8.63833079902925        2.22464580574705        1.92151144687688
H           -7.88386063572203        4.36232100321833        0.94025064284185
H           -5.85475761572394        4.41366955416055       -0.46768448035365
H           -4.59420181873889        2.34558170931430       -0.89616994890439
H           -3.60084406183103       -1.49646817160521       -1.54674019904317
H           -1.15560659349874       -1.43270449034682       -1.59844157245977
H           -0.58316540005586        2.51897527335915       -0.55893528988651
H            0.59056386276357        4.66405667659483       -0.59758616624355
H            3.04643043234271        4.73841751042013       -0.26314019691666
H            4.30816378324118        2.64928859336928       -0.04131393952463
H            4.78732651548217        1.30470680291231       -2.09770973661858
H            7.23141888806841        1.38897111302171       -2.30607476701560
H            9.46873924970458        0.83171837070593       -1.42079358983797
H           10.86619867063519       -0.23313755979486        0.30719250718637
H            9.81713735591079       -1.38038885977604        2.21850766440763
H            7.36381068602760       -1.48030996899626        2.41403162007971
H            5.14460595355733       -0.90765113087668        1.54243225829670
H            4.41168090837659       -2.32746032187164       -0.30734274566819
H            3.25661107440340       -4.46241586519725        0.01633490141643
H            0.81919861021695       -4.48888441290708        0.47226592729025
H           -0.44549901127431       -2.39522231726618        0.47015731818836
H           -1.16395378304912        1.50643312244120        1.50692432765013
H           -3.60918657844373        1.44807373642871        1.55720112628363
H           -4.41760806386580       -2.45096928975569        0.90167855999587
H           -5.61468247530992       -4.56834554876831        0.54355347095376

          :  Hamiltonian                  GFN2-xTB          :
         :: gradient norm              0.000047779093 Eh/a0 ::
         :: HOMO-LUMO gap              0.759684748552 eV    ::
         :: SCC energy              -109.702958298921 Eh    ::
         :: -> dispersion             -0.101058451405 Eh    ::
         :: -> Gsolv                  -0.043700656245 Eh    ::
         :: repulsion energy           2.072696182305 Eh    ::

    * Orbital Energies and Occupations

         #    Occupation            Energy/Eh            Energy/eV
      -------------------------------------------------------------
         1        2.0000           -0.6720832             -18.2883
       ...           ...                  ...                  ...
        90        2.0000           -0.4120446             -11.2123
        91        2.0000           -0.4108478             -11.1797
        92        2.0000           -0.4092369             -11.1359
        93        2.0000           -0.4087418             -11.1224
        94        2.0000           -0.4017429             -10.9320
        95        2.0000           -0.4014817             -10.9249
        96        2.0000           -0.3949381             -10.7468
        97        2.0000           -0.3940005             -10.7213
        98        2.0000           -0.3912218             -10.6457
        99        2.0000           -0.3743867             -10.1876
       100        1.9999           -0.3582999              -9.7498
       101        1.0001           -0.3415524              -9.2941
       102        1.0000           -0.2829045              -7.6982 (HOMO)
       103        0.0000           -0.2549864              -6.9385 (LUMO)
       104                         -0.2357541              -6.4152
       105                         -0.2349886              -6.3944
       106                         -0.2314065              -6.2969
       107                         -0.2264979              -6.1633
       108                         -0.2256026              -6.1390
       109                         -0.2243032              -6.1036
       110                         -0.2217711              -6.0347
       111                         -0.2164287              -5.8893
       112                         -0.2022849              -5.5045
       113                         -0.1866207              -5.0782
       ...                                ...                  ...
       201                          0.7163355              19.4925
      -------------------------------------------------------------
                  HL-Gap            0.0279181 Eh            0.7597 eV

     #   Z          covCN         q      C6AA      α(0)
     1   6 C        2.919    -0.036    28.889     8.814
     2   6 C        2.919    -0.028    28.710     8.787
     3   6 C        2.922    -0.045    29.126     8.850
     4   6 C        2.924     0.064    26.558     8.451
     5   7 N        2.752    -0.058    22.370     7.025
     6   6 C        2.925     0.064    26.559     8.451
     7   6 C        2.922    -0.045    29.114     8.848
     8   6 C        2.919    -0.028    28.709     8.786
     9   6 C        2.919    -0.035    28.881     8.813
    10   6 C        2.919    -0.028    28.709     8.787
    11   6 C        2.922    -0.044    29.100     8.846
    12   6 C        2.924     0.061    26.623     8.462
    13   6 C        2.918    -0.047    29.167     8.856
    14   6 C        2.922    -0.032    28.808     8.802
    15   6 C        2.972     0.011    27.757     8.642
    16   6 C        2.971    -0.019    28.480     8.754
    17   6 C        2.977     0.006    27.880     8.661
    18   6 C        2.921    -0.044    29.087     8.844
    19   6 C        2.914    -0.035    28.865     8.810
    20   6 C        2.913    -0.036    28.894     8.814
    21   6 C        2.921    -0.041    29.021     8.834
    22   6 C        2.978     0.006    27.892     8.663
    23   6 C        2.973    -0.015    28.377     8.738
    24   6 C        2.970     0.012    27.740     8.639
    25   6 C        2.919    -0.033    28.816     8.803
    26   6 C        2.915    -0.039    28.979     8.827
    27   6 C        2.986     0.008    27.828     8.653
    28   6 C        2.917    -0.038    28.934     8.821
    29   6 C        2.916    -0.034    28.844     8.807
    30   6 C        2.915    -0.032    28.802     8.801
    31   6 C        2.918    -0.038    28.955     8.824
    32   6 C        2.984     0.010    27.796     8.648
    33   6 C        2.923    -0.043    29.070     8.842
    34   6 C        2.977     0.005    27.895     8.663
    35   6 C        2.921    -0.042    29.034     8.836
    36   6 C        2.914    -0.035    28.881     8.812
    37   6 C        2.914    -0.035    28.868     8.810
    38   6 C        2.921    -0.043    29.072     8.842
    39   6 C        2.977     0.006    27.881     8.661
    40   6 C        2.922    -0.032    28.809     8.802
    41   6 C        2.918    -0.047    29.168     8.856
    42   6 C        2.922    -0.045    29.112     8.848
    43   6 C        2.919    -0.028    28.712     8.787
    44   1 H        0.926     0.036     2.502     2.473
    45   1 H        0.926     0.038     2.481     2.463
    46   1 H        0.926     0.036     2.502     2.474
    47   1 H        0.926     0.036     2.498     2.471
    48   1 H        0.926     0.038     2.477     2.461
    49   1 H        0.926     0.036     2.497     2.471
    50   1 H        0.926     0.038     2.481     2.463
    51   1 H        0.926     0.036     2.505     2.475
    52   1 H        0.926     0.036     2.503     2.474
    53   1 H        0.926     0.038     2.475     2.460
    54   1 H        0.926     0.030     2.592     2.518
    55   1 H        0.926     0.025     2.659     2.550
    56   1 H        0.926     0.024     2.678     2.559
    57   1 H        0.926     0.027     2.631     2.536
    58   1 H        0.926     0.030     2.591     2.517
    59   1 H        0.925     0.030     2.590     2.516
    60   1 H        0.925     0.029     2.603     2.523
    61   1 H        0.926     0.028     2.617     2.530
    62   1 H        0.926     0.028     2.613     2.528
    63   1 H        0.925     0.029     2.608     2.525
    64   1 H        0.925     0.029     2.601     2.522
    65   1 H        0.926     0.028     2.617     2.530
    66   1 H        0.926     0.024     2.673     2.557
    67   1 H        0.926     0.025     2.655     2.548
    68   1 H        0.926     0.030     2.592     2.518
    69   1 H        0.926     0.038     2.472     2.459
    70   1 H        0.926     0.036     2.508     2.476
    71   1 H        0.926     0.036     2.507     2.476
    72   1 H        0.926     0.037     2.485     2.465

molecular dipole:
                 x           y           z       tot (Debye)
 q only:       -2.159      -0.019       0.010
   full:       -2.108      -0.017       0.006       5.358

 projected vibrational frequencies (cm⁻¹)
eigval :       -0.00    -0.00    -0.00    -0.00    -0.00     0.00
eigval :       13.22    15.13    16.74    33.85    40.38    44.99
eigval :       51.33    57.19    61.21    75.73    79.35    84.49
eigval :      101.66   128.33   141.77   146.71   168.35   174.61
eigval :      184.66   194.70   195.82   229.54   232.77   241.12
eigval :      291.93   295.38   315.80   319.38   341.50   350.79
eigval :      368.70   377.25   377.81   380.11   383.52   391.52
eigval :      400.63   409.80   415.10   428.13   431.19   449.12
eigval :      472.45   482.36   485.69   493.72   495.79   513.08
eigval :      542.39   563.87   571.51   576.45   580.91   585.27
eigval :      588.03   594.53   599.47   605.45   619.84   640.78
eigval :      644.15   659.83   664.77   676.14   686.84   688.11
eigval :      718.77   720.15   725.82   749.05   753.05   756.96
eigval :      760.53   760.91   792.21   813.20   819.75   832.55
eigval :      845.35   851.21   867.00   869.62   871.71   875.62
eigval :      880.94   884.16   888.17   889.99   893.67   894.28
eigval :      895.95   898.00   902.27   906.76   909.21   909.62
eigval :      923.40   928.29   928.96   929.30   930.28   930.55
eigval :      932.52   938.18   940.27   945.44   984.18   992.87
eigval :     1003.30  1019.61  1078.14  1080.72  1081.90  1103.33
eigval :     1106.46  1117.11  1120.93  1122.81  1125.01  1140.50
eigval :     1142.58  1175.32  1177.10  1177.66  1177.92  1178.76
eigval :     1180.91  1181.93  1182.76  1190.27  1193.51  1200.51
eigval :     1216.59  1223.24  1228.84  1234.81  1255.42  1260.79
eigval :     1267.64  1275.44  1279.07  1288.04  1295.45  1302.03
eigval :     1308.21  1312.95  1314.47  1322.40  1324.18  1329.66
eigval :     1337.75  1356.06  1361.53  1370.56  1378.84  1390.57
eigval :     1411.27  1418.53  1419.32  1423.28  1433.01  1439.33
eigval :     1444.09  1464.30  1464.95  1466.31  1477.56  1490.81
eigval :     1495.74  1512.81  1526.46  1528.17  1540.23  1548.97
eigval :     1570.91  1571.92  1576.40  1582.77  1586.19  1592.23
eigval :     1600.27  3059.37  3061.21  3062.45  3066.12  3067.36
eigval :     3067.60  3071.52  3074.35  3075.13  3075.64  3076.14
eigval :     3076.29  3076.42  3076.76  3076.89  3077.35  3083.23
eigval :     3084.75  3085.48  3086.13  3087.90  3088.41  3088.93
eigval :     3089.16  3090.12  3092.82  3093.67  3096.10  3096.69

   temp. (K)  partition function   enthalpy   heat capacity  entropy
                                   cal/mol     cal/K/mol   cal/K/mol   J/K/mol
 298.15  VIB  0.422E+15            19507.147    127.213    120.040
         ROT  0.658E+08              888.752      2.981     38.755
         INT  0.277E+23            20395.900    130.194    158.795
         TR   0.124E+29             1481.254      4.968     44.767
         TOT                       21877.1535   135.1624   203.5615   851.7014

       T/K    H(0)-H(T)+PV         H(T)/Eh          T*S/Eh         G(T)/Eh
   ------------------------------------------------------------------------
    298.15    0.348635E-01    0.593691E+00    0.967186E-01    0.496972E+00
   ------------------------------------------------------------------------

         :::::::::::::::::::::::::::::::::::::::::::::::::::::
         ::                  THERMODYNAMIC                  ::
         :::::::::::::::::::::::::::::::::::::::::::::::::::::
         :: total free energy        -107.133290026279 Eh   ::
         ::.................................................::
         :: total energy             -107.630262120783 Eh   ::
         :: zero point energy           0.558827279245 Eh   ::
         :: G(RRHO) w/o ZPVE           -0.061855184740 Eh   ::
         :: G(RRHO) contrib.            0.496972094504 Eh   ::
         :::::::::::::::::::::::::::::::::::::::::::::::::::::

           -------------------------------------------------
          | TOTAL ENERGY             -107.630262120783 Eh   |
          | TOTAL ENTHALPY           -107.036571378263 Eh   |
          | TOTAL FREE ENERGY        -107.133290026279 Eh   |
          | GRADIENT NORM               0.000047873845 Eh/α |
          | HOMO-LUMO GAP               0.759690784409 eV   |
           -------------------------------------------------

 * finished run on 2025/08/30 at 16:57:26.554
