   * xtb version 6.7.1 (edcfbbe) compiled by 'albert@albert-system' on 2024-07-22

   ID    Z sym.   atoms
    1    8 O      1, 5, 12, 24
    2    6 C      2-4, 6-11, 13-16, 18-23, 25-32
    3    7 N      17
    4    1 H      33-51

          program call               : xtb data2507/gas/BZC-PXZ/BZC-PXZ_gas_T1_crest.xyz --gfn 2 --spinpol --tblite --uhf 2 --ohess vtight --parallel 40 --molden --ceasefiles --namespace data2507/gas/BZC-PXZ/BZC-PXZ_gas_T1_finalOpt
 * total energy  :   -86.6248436 Eh     change       -0.6646630E-08 Eh
 * total energy  :   -86.6248815 Eh     change       -0.3788713E-04 Eh
 * total energy  :   -86.6249034 Eh     change       -0.2192838E-04 Eh
 * total energy  :   -86.6249079 Eh     change       -0.4472440E-05 Eh
 * total energy  :   -86.6249111 Eh     change       -0.3171532E-05 Eh
 * total energy  :   -86.6249125 Eh     change       -0.1425943E-05 Eh
 * total energy  :   -86.6249141 Eh     change       -0.1640583E-05 Eh
 * total energy  :   -86.6249160 Eh     change       -0.1892384E-05 Eh
 * total energy  :   -86.6249188 Eh     change       -0.2732628E-05 Eh
 * total energy  :   -86.6249219 Eh     change       -0.3130325E-05 Eh
 * total energy  :   -86.6249265 Eh     change       -0.9746450E-06 Eh
 * total energy  :   -86.6249275 Eh     change       -0.9661509E-06 Eh
 * total energy  :   -86.6249281 Eh     change       -0.5771770E-06 Eh
 * total energy  :   -86.6249283 Eh     change       -0.2156652E-06 Eh
 * total energy  :   -86.6249284 Eh     change       -0.1603909E-06 Eh
 * total energy  :   -86.6249286 Eh     change       -0.1279900E-06 Eh
 * total energy  :   -86.6249287 Eh     change       -0.1237015E-06 Eh
 * total energy  :   -86.6249289 Eh     change       -0.2354409E-06 Eh
 * total energy  :   -86.6249289 Eh     change       -0.6819221E-08 Eh
   *** GEOMETRY OPTIMIZATION CONVERGED AFTER 22 ITERATIONS ***

 final structure:
================
51
 xtb: 6.7.1 (edcfbbe)
O            3.14010631520795        2.64918481778255       -0.59015976706989
C            2.63035678229896        2.04738686120659        0.37549625250569
C            3.51239630079785        1.73140751658531        1.57916863606844
C            3.76208816373347        0.27889745327637        1.24980751061525
O            3.07746976770502       -0.58759027814913        1.83777179490631
C            4.71952511264390       -0.06665706024959        0.21434337090632
C            5.51658459612815        0.87667263996058       -0.44835946072293
C            6.40307288992303        0.49442881086479       -1.43347041443653
C            6.53500426882063       -0.84535824553250       -1.78009640743184
C            5.76877258256231       -1.79928502580241       -1.14474184141854
C            4.86174433020131       -1.43524895967370       -0.14835067462528
O            4.14655885660157       -2.40080679988937        0.43504369747044
C            1.28274468845891        1.54702144630826        0.35567645369621
C            0.54079620474786        1.72647365452012       -0.83643213546308
C           -0.73522172783222        1.24829179263572       -0.95988944520720
C           -1.33106263505447        0.57284335042183        0.11179450554660
N           -2.63856108227928        0.03918105272002       -0.01451179584353
C           -3.73142328151777        0.87767175947020       -0.13378746212077
C           -3.60555209459425        2.26704131957727       -0.10338310584645
C           -4.71928642541395        3.07406094560116       -0.23024024043132
C           -5.98004632388315        2.51665405921185       -0.38202089095828
C           -6.12879995529194        1.14067285861635       -0.39235322601923
C           -5.01815099645328        0.32185339656363       -0.26465756285649
O           -5.22759938625817       -1.02569010202136       -0.25964086974202
C           -4.14069954938318       -1.84121498680688       -0.13226150745951
C           -4.36559514672129       -3.20865860840259       -0.13227814585268
C           -3.29989225548021       -4.08547668228229       -0.02902768732241
C           -2.00626181376255       -3.59322677547063        0.06092427195172
C           -1.77128782190701       -2.23220382998482        0.06319543322529
C           -2.83383631772635       -1.33131875532676       -0.01774657436471
C           -0.62929764365422        0.41589342730479        1.30870268774490
C            0.64798259240271        0.90291419304902        1.43837377060889
H            2.98844547664284        1.83026570023635        2.52735755345659
H            4.40621287532396        2.34914635251450        1.57053118730998
H            5.42605888964893        1.92300522742609       -0.21305237489072
H            6.99336630347470        1.24303338001350       -1.93972288207654
H            7.23438817675034       -1.14161414120282       -2.54753265451268
H            5.85272746997241       -2.84647034338488       -1.39085258022187
H            3.56999805158994       -1.95650138164685        1.12010872095006
H            1.02837879547469        2.23115892429829       -1.65645964220069
H           -1.28295019826416        1.36386564579317       -1.88418924360383
H           -2.62809409700166        2.70299335482172        0.02611109595300
H           -4.60084239084819        4.14587059890561       -0.20684634470162
H           -6.84731916080111        3.14920569873813       -0.48315389744888
H           -7.09718447369294        0.67801208522279       -0.49370414070468
H           -5.38093637052022       -3.56058936531107       -0.21824892103707
H           -3.48018959461999       -5.14850944150973       -0.02774618676951
H           -1.17118841619100       -4.27236791177555        0.12708913381396
H           -0.76304113631471       -1.85567302357808        0.12373370088057
H           -1.10743094605272       -0.08710304133563        2.13723095046296
H            1.15689649241186        0.76428715038993        2.37610566858817

 projected vibrational frequencies (cm⁻¹)
eigval :       -0.00    -0.00     0.00     0.00     0.00     0.00
eigval :        6.83    15.00    26.38    30.46    41.14    49.57
eigval :       63.49    75.69   108.71   117.94   135.32   137.66
eigval :      158.03   172.74   205.80   236.39   243.05   254.74
eigval :      278.94   292.59   303.62   363.51   380.28   384.07
eigval :      388.62   393.39   405.71   414.87   423.78   432.51
eigval :      448.25   462.42   472.29   484.25   486.85   496.68
eigval :      522.36   530.24   535.91   539.51   557.50   583.89
eigval :      587.55   604.38   611.77   621.72   661.03   668.27
eigval :      674.11   674.39   695.76   727.55   747.75   760.42
eigval :      777.15   779.61   785.50   803.94   823.27   827.61
eigval :      834.53   845.57   856.65   868.28   869.70   892.43
eigval :      894.16   902.24   902.60   905.04   908.76   911.95
eigval :      914.61   919.28   920.96   932.96   986.26  1002.46
eigval :     1020.44  1060.04  1082.29  1083.60  1086.53  1115.44
eigval :     1121.82  1122.85  1131.74  1139.87  1169.10  1172.32
eigval :     1176.94  1178.71  1191.51  1195.73  1210.20  1216.12
eigval :     1234.97  1236.92  1252.13  1253.49  1259.12  1272.70
eigval :     1279.22  1304.53  1306.31  1319.81  1333.98  1344.76
eigval :     1347.32  1395.12  1412.90  1417.57  1432.59  1433.54
eigval :     1435.43  1440.46  1446.06  1454.31  1475.23  1480.54
eigval :     1528.95  1532.63  1551.29  1559.30  1560.37  1570.89
eigval :     1581.31  1583.59  2794.84  3012.18  3029.03  3073.83
eigval :     3075.86  3080.89  3092.44  3098.37  3099.70  3101.37
eigval :     3103.50  3107.44  3108.57  3115.73  3116.95  3118.16
eigval :     3119.30  3128.99  3130.20

   temp. (K)  partition function   enthalpy   heat capacity  entropy
                                   cal/mol     cal/K/mol   cal/K/mol   J/K/mol
 298.15  VIB  0.261E+12            14583.326     93.668     90.009
         ROT  0.250E+08              888.752      2.981     36.836
         INT  0.652E+19            15472.078     96.649    126.845
         TR   0.837E+28             1481.254      4.968     43.986
         TOT                       16953.3320   101.6174   170.8305   714.7550

       T/K    H(0)-H(T)+PV         H(T)/Eh          T*S/Eh         G(T)/Eh
   ------------------------------------------------------------------------
    298.15    0.270169E-01    0.404694E+00    0.811671E-01    0.323527E+00
   ------------------------------------------------------------------------

         :::::::::::::::::::::::::::::::::::::::::::::::::::::
         ::                  THERMODYNAMIC                  ::
         :::::::::::::::::::::::::::::::::::::::::::::::::::::
         :: total free energy         -86.301402013736 Eh   ::
         ::.................................................::
         :: total energy              -86.624928935416 Eh   ::
         :: zero point energy           0.377677172895 Eh   ::
         :: G(RRHO) w/o ZPVE           -0.054150251215 Eh   ::
         :: G(RRHO) contrib.            0.323526921680 Eh   ::
         :::::::::::::::::::::::::::::::::::::::::::::::::::::

           -------------------------------------------------
          | TOTAL ENERGY              -86.624928935416 Eh   |
          | TOTAL ENTHALPY            -86.220234908294 Eh   |
          | TOTAL FREE ENERGY         -86.301402013736 Eh   |
          | GRADIENT NORM               0.000065765365 Eh/α |
           -------------------------------------------------

 * finished run on 2025/08/22 at 09:36:51.905
