   * xtb version 6.7.1 (edcfbbe) compiled by 'albert@albert-system' on 2024-07-22

   ID    Z sym.   atoms
    1    8 O      1, 5, 12, 24
    2    6 C      2-4, 6-11, 13-16, 18-23, 25-32
    3    7 N      17
    4    1 H      33-51

          program call               : xtb data2507/gas/BZC-PXZ/BZC-PXZ_gas_S0_crest.xyz --gfn 2 --ohess vtight --parallel 40 --molden --ceasefiles --namespace data2507/gas/BZC-PXZ/BZC-PXZ_gas_S0_finalOpt
          :  Hamiltonian                  GFN2-xTB          :
 * total energy  :   -86.7024397 Eh     change       -0.2172783E-08 Eh
 * total energy  :   -86.7024403 Eh     change       -0.6067010E-06 Eh
 * total energy  :   -86.7024409 Eh     change       -0.6555388E-06 Eh
 * total energy  :   -86.7024422 Eh     change       -0.1226612E-05 Eh
 * total energy  :   -86.7024429 Eh     change       -0.7470190E-06 Eh
 * total energy  :   -86.7024430 Eh     change       -0.1006336E-06 Eh
 * total energy  :   -86.7024434 Eh     change       -0.4231350E-06 Eh
 * total energy  :   -86.7024441 Eh     change       -0.7012696E-06 Eh
 * total energy  :   -86.7024447 Eh     change       -0.5137362E-06 Eh
 * total energy  :   -86.7024451 Eh     change       -0.4626370E-06 Eh
 * total energy  :   -86.7024471 Eh     change       -0.5096690E-06 Eh
 * total energy  :   -86.7024476 Eh     change       -0.5142115E-06 Eh
 * total energy  :   -86.7024480 Eh     change       -0.3880980E-06 Eh
 * total energy  :   -86.7024483 Eh     change       -0.2303833E-06 Eh
 * total energy  :   -86.7024485 Eh     change       -0.1948918E-06 Eh
 * total energy  :   -86.7024487 Eh     change       -0.2057618E-06 Eh
 * total energy  :   -86.7024489 Eh     change       -0.2666514E-06 Eh
 * total energy  :   -86.7024492 Eh     change       -0.2341556E-06 Eh
 * total energy  :   -86.7024492 Eh     change       -0.1156920E-08 Eh
   *** GEOMETRY OPTIMIZATION CONVERGED AFTER 22 ITERATIONS ***

 final structure:
================
51
 xtb: 6.7.1 (edcfbbe)
O            3.66738073107036       -3.33214370202044        0.25165964565239
C            3.32812421029033       -2.33659157709891       -0.34407881799471
C            4.34268397160983       -1.44373824658820       -1.05083567905138
C            3.99548499009616        0.02885236695812       -1.01578425481616
O            4.04088123493065        0.69539386757965       -2.04375804814116
C            3.54388785662213        0.59064663815399        0.25757632711392
C            3.73439189138916       -0.06843697001590        1.47881307803446
C            3.19857483509371        0.42743570774271        2.64410462068428
C            2.43978591847988        1.59384074844037        2.61617626814065
C            2.25436270162436        2.27528428459705        1.43592040031506
C            2.82056578236428        1.80540919099773        0.24714199992941
O            2.62149888541636        2.51637577967434       -0.86555133958334
C            1.92752403773047       -1.86730634939041       -0.39312244914277
C            1.11527600046011       -2.11809532155735        0.71368701668819
C           -0.15592853335865       -1.59299797789912        0.78823188832050
C           -0.65360662718725       -0.82055467964390       -0.26086072569672
N           -1.92917511963739       -0.24123839249265       -0.17667522872348
C           -3.06918663956373       -1.03332835071495       -0.00035975427537
C           -3.01501611954487       -2.42161745930035        0.00811841642757
C           -4.16515310428299       -3.17694817071226        0.17777396422943
C           -5.39023527481342       -2.55916115167846        0.32796014562939
C           -5.46679422044881       -1.17554712912382        0.28272892408411
C           -4.32284837207122       -0.41748943804409        0.11109328543116
O           -4.48629898922749        0.94210758165153        0.03724894277133
C           -3.36229254642963        1.70617918876523       -0.15205170960395
C           -3.54282215477664        3.07573826089360       -0.22168897701033
C           -2.45318629142862        3.91954552221398       -0.37413855657043
C           -1.18260513889968        3.38356499022977       -0.43273474872448
C           -0.99724833272759        2.01169066830495       -0.36380666340073
C           -2.08060527266962        1.14975956285489       -0.25108081262589
C            0.13206726591127       -0.62150886578914       -1.39675779923224
C            1.40985866301694       -1.13387105138581       -1.46144301044534
H            4.41536374548369       -1.75014630029072       -2.09868101298130
H            5.32209095873358       -1.61037293911123       -0.59519874253398
H            4.32493216926856       -0.97001642816046        1.51280496853197
H            3.36235052132351       -0.08952215668998        3.57657752896460
H            2.00258845459489        1.97394573573230        3.52701256048242
H            1.68146137140297        3.18813421676746        1.39693766125935
H            3.11285500794573        2.08451787002405       -1.60412202761059
H            1.51894831598967       -2.69989554623399        1.52834195471864
H           -0.76486661601472       -1.75628626646780        1.66464731146107
H           -2.06828502085285       -2.91978671104908       -0.12959319594583
H           -4.09122326163948       -4.25338287237848        0.18601197926231
H           -6.28719781656612       -3.14182918852204        0.46563822645561
H           -6.41009356657091       -0.66105035879975        0.37232985644397
H           -4.54731133119444        3.46099698297478       -0.14915465335304
H           -2.60494515445427        4.98566795860656       -0.43331260475740
H           -0.31918635223555        4.02223601663987       -0.53431753170659
H            0.00417059278717        1.61461417857874       -0.39029546387636
H           -0.27106590112824       -0.06043045337678       -2.22648941762614
H            1.99018636448787       -0.98576609794741       -2.35880819150116

          :  Hamiltonian                  GFN2-xTB          :
         :: gradient norm              0.000028317503 Eh/a0 ::
         :: HOMO-LUMO gap              1.346176162332 eV    ::
         :: SCC energy               -88.071780350446 Eh    ::
         :: -> dispersion             -0.071179636024 Eh    ::
         :: repulsion energy           1.369331192462 Eh    ::

    * Orbital Energies and Occupations

         #    Occupation            Energy/Eh            Energy/eV
      -------------------------------------------------------------
         1        2.0000           -0.7311847             -19.8965
       ...           ...                  ...                  ...
        66        2.0000           -0.4405023             -11.9867
        67        2.0000           -0.4373862             -11.9019
        68        2.0000           -0.4345348             -11.8243
        69        2.0000           -0.4315131             -11.7421
        70        2.0000           -0.4253550             -11.5745
        71        2.0000           -0.4228240             -11.5056
        72        2.0000           -0.4185798             -11.3901
        73        2.0000           -0.4158576             -11.3161
        74        2.0000           -0.4138524             -11.2615
        75        2.0000           -0.4050557             -11.0221
        76        2.0000           -0.4024191             -10.9504
        77        2.0000           -0.3930904             -10.6965
        78        2.0000           -0.3478306              -9.4650 (HOMO)
        79                         -0.2983595              -8.1188 (LUMO)
        80                         -0.2906518              -7.9090
        81                         -0.2476345              -6.7385
        82                         -0.2412709              -6.5653
        83                         -0.2358458              -6.4177
        84                         -0.2323748              -6.3232
        85                         -0.2264414              -6.1618
        86                         -0.2159691              -5.8768
        87                         -0.2111334              -5.7452
        88                         -0.1974319              -5.3724
        89                         -0.1164668              -3.1692
       ...                                ...                  ...
       147                          0.6710040              18.2589
      -------------------------------------------------------------
                  HL-Gap            0.0494711 Eh            1.3462 eV

     #   Z          covCN         q      C6AA      α(0)
     1   8 O        0.857    -0.359    20.884     6.127
     2   6 C        2.820     0.236    23.076     7.871
     3   6 C        3.805    -0.110    22.593     6.767
     4   6 C        2.821     0.232    23.149     7.884
     5   8 O        0.858    -0.406    21.797     6.260
     6   6 C        2.967    -0.062    29.531     8.914
     7   6 C        2.920    -0.030    28.748     8.793
     8   6 C        2.916    -0.040    28.986     8.829
     9   6 C        2.919    -0.020    28.514     8.757
    10   6 C        2.916    -0.055    29.366     8.886
    11   6 C        2.847     0.166    24.428     8.100
    12   8 O        1.658    -0.382    20.498     6.112
    13   6 C        2.972    -0.021    28.527     8.761
    14   6 C        2.925    -0.020    28.499     8.755
    15   6 C        2.919    -0.041    29.017     8.834
    16   6 C        2.921     0.072    26.382     8.423
    17   7 N        2.751    -0.067    22.547     7.052
    18   6 C        2.921     0.041    27.072     8.532
    19   6 C        2.924    -0.059    29.477     8.904
    20   6 C        2.919    -0.038    28.951     8.823
    21   6 C        2.919    -0.039    28.970     8.826
    22   6 C        2.920    -0.056    29.385     8.889
    23   6 C        2.884     0.126    25.243     8.237
    24   8 O        1.709    -0.253    18.188     5.758
    25   6 C        2.885     0.125    25.253     8.239
    26   6 C        2.920    -0.056    29.387     8.890
    27   6 C        2.919    -0.039    28.971     8.826
    28   6 C        2.919    -0.038    28.934     8.821
    29   6 C        2.924    -0.059    29.461     8.901
    30   6 C        2.922     0.040    27.097     8.536
    31   6 C        2.921    -0.040    28.989     8.829
    32   6 C        2.919    -0.030    28.746     8.792
    33   1 H        0.924     0.088     1.900     2.156
    34   1 H        0.924     0.087     1.909     2.161
    35   1 H        0.926     0.050     2.323     2.383
    36   1 H        0.926     0.045     2.387     2.416
    37   1 H        0.926     0.048     2.341     2.393
    38   1 H        0.926     0.061     2.188     2.313
    39   1 H        0.802     0.348     0.594     1.211
    40   1 H        0.926     0.060     2.202     2.321
    41   1 H        0.926     0.050     2.323     2.384
    42   1 H        0.926     0.036     2.497     2.471
    43   1 H        0.926     0.038     2.472     2.459
    44   1 H        0.926     0.040     2.447     2.446
    45   1 H        0.926     0.052     2.293     2.368
    46   1 H        0.926     0.052     2.298     2.370
    47   1 H        0.926     0.040     2.444     2.445
    48   1 H        0.926     0.045     2.386     2.415
    49   1 H        0.926     0.039     2.468     2.457
    50   1 H        0.926     0.052     2.297     2.370
    51   1 H        0.926     0.051     2.307     2.375

molecular dipole:
                 x           y           z       tot (Debye)
 q only:       -0.447       0.317       0.533
   full:       -0.230       0.146       0.469       1.378

 projected vibrational frequencies (cm⁻¹)
eigval :       -0.00    -0.00     0.00     0.00     0.00     0.00
eigval :       16.53    20.93    28.93    33.10    42.29    52.92
eigval :       61.72    77.85    98.29   122.27   136.32   146.70
eigval :      166.45   175.06   209.52   226.66   240.70   249.88
eigval :      270.34   275.66   290.52   343.77   373.55   379.16
eigval :      385.81   396.62   401.80   417.97   431.58   439.37
eigval :      440.64   447.38   471.75   492.88   505.21   510.02
eigval :      523.25   532.95   540.24   544.53   573.51   589.59
eigval :      600.55   609.05   635.94   652.35   660.20   662.08
eigval :      674.75   694.85   717.18   733.06   748.66   762.08
eigval :      779.70   780.34   783.13   806.96   824.39   833.81
eigval :      856.19   863.72   868.32   877.00   878.28   899.19
eigval :      900.71   908.72   915.16   916.01   917.13   918.77
eigval :      919.13   927.97   929.51   936.61  1001.84  1021.80
eigval :     1054.40  1084.85  1090.67  1091.96  1095.40  1109.48
eigval :     1122.22  1136.29  1138.05  1170.51  1174.00  1176.05
eigval :     1183.51  1189.76  1191.60  1202.80  1218.26  1231.84
eigval :     1243.35  1251.56  1262.15  1264.27  1269.92  1276.33
eigval :     1278.93  1310.11  1315.57  1319.36  1337.15  1351.36
eigval :     1354.42  1405.70  1417.25  1423.95  1440.46  1442.12
eigval :     1454.53  1474.27  1485.64  1503.77  1551.38  1555.72
eigval :     1568.88  1579.57  1580.18  1591.20  1602.07  1602.64
eigval :     1658.91  1726.72  2960.63  2975.75  3081.89  3089.37
eigval :     3090.16  3091.09  3091.79  3094.31  3099.70  3100.17
eigval :     3101.33  3103.01  3104.33  3107.29  3111.66  3113.06
eigval :     3113.60  3114.21  3121.32

   temp. (K)  partition function   enthalpy   heat capacity  entropy
                                   cal/mol     cal/K/mol   cal/K/mol   J/K/mol
 298.15  VIB  0.632E+11            14487.605     92.956     88.568
         ROT  0.187E+08              888.752      2.981     36.253
         INT  0.118E+19            15376.357     95.937    124.821
         TR   0.837E+28             1481.254      4.968     43.986
         TOT                       16857.6110   100.9053   168.8070   706.2885

       T/K    H(0)-H(T)+PV         H(T)/Eh          T*S/Eh         G(T)/Eh
   ------------------------------------------------------------------------
    298.15    0.268643E-01    0.408059E+00    0.802057E-01    0.327853E+00
   ------------------------------------------------------------------------

         :::::::::::::::::::::::::::::::::::::::::::::::::::::
         ::                  THERMODYNAMIC                  ::
         :::::::::::::::::::::::::::::::::::::::::::::::::::::
         :: total free energy         -86.374595914592 Eh   ::
         ::.................................................::
         :: total energy              -86.702449157985 Eh   ::
         :: zero point energy           0.381194588873 Eh   ::
         :: G(RRHO) w/o ZPVE           -0.053341345481 Eh   ::
         :: G(RRHO) contrib.            0.327853243393 Eh   ::
         :::::::::::::::::::::::::::::::::::::::::::::::::::::

           -------------------------------------------------
          | TOTAL ENERGY              -86.702449157985 Eh   |
          | TOTAL ENTHALPY            -86.294390256067 Eh   |
          | TOTAL FREE ENERGY         -86.374595914592 Eh   |
          | GRADIENT NORM               0.000028315058 Eh/α |
          | HOMO-LUMO GAP               1.346177563963 eV   |
           -------------------------------------------------

 * finished run on 2025/08/22 at 09:32:49.268
