   * xtb version 6.7.1 (edcfbbe) compiled by 'albert@albert-system' on 2024-07-22

   ID    Z sym.   atoms
    1    8 O      1, 5, 12, 24
    2    6 C      2-4, 6-11, 13-16, 18-23, 25-32
    3    7 N      17
    4    1 H      33-51

          program call               : xtb data2507/gas/BZC-PXZ/BZC-PXZ_gas_S0_finalOpt.xtbopt.xyz --gfn 2 --spinpol --tblite --uhf 2 --ohess vtight --parallel 40 --molden --ceasefiles --namespace data2507/gas/BZC-PXZ/BZC-PXZ_gas_T1_preOpt
 * total energy  :   -86.6148355 Eh     change        0.1713748E-07 Eh
 * total energy  :   -86.6182162 Eh     change       -0.3380704E-02 Eh
 * total energy  :   -86.6192727 Eh     change       -0.1056471E-02 Eh
 * total energy  :   -86.6194597 Eh     change       -0.1869898E-03 Eh
 * total energy  :   -86.6197860 Eh     change       -0.3263636E-03 Eh
 * total energy  :   -86.6200588 Eh     change       -0.2728011E-03 Eh
 * total energy  :   -86.6202639 Eh     change       -0.2050741E-03 Eh
 * total energy  :   -86.6204209 Eh     change       -0.1570290E-03 Eh
 * total energy  :   -86.6204694 Eh     change       -0.4843088E-04 Eh
 * total energy  :   -86.6205082 Eh     change       -0.3887755E-04 Eh
 * total energy  :   -86.6215787 Eh     change       -0.8643101E-06 Eh
 * total energy  :   -86.6215795 Eh     change       -0.8353633E-06 Eh
 * total energy  :   -86.6215803 Eh     change       -0.7797416E-06 Eh
 * total energy  :   -86.6215811 Eh     change       -0.7821488E-06 Eh
 * total energy  :   -86.6215818 Eh     change       -0.7847351E-06 Eh
 * total energy  :   -86.6215826 Eh     change       -0.7787909E-06 Eh
 * total energy  :   -86.6215833 Eh     change       -0.7274641E-06 Eh
 * total energy  :   -86.6215833 Eh     change        0.1328304E-07 Eh
 * total energy  :   -86.6215833 Eh     change       -0.1122898E-07 Eh
   *** GEOMETRY OPTIMIZATION CONVERGED AFTER 301 ITERATIONS ***

 final structure:
================
51
 xtb: 6.7.1 (edcfbbe)
O            3.52150386879205       -3.26738231300090        1.13643608483313
C            3.20972431985197       -2.39609002076925        0.29872464568191
C            4.33711167303837       -1.76020310939519       -0.52316829307459
C            4.19083969016666       -0.27348760610463       -0.78797965589577
O            4.51143955405619        0.16317762269694       -1.89877424438417
C            3.66168695581342        0.57342829089897        0.26471813046622
C            3.51699443566669        0.12756651175160        1.58776225045562
C            2.85631757911942        0.89487240270624        2.52304287785149
C            2.33916288900901        2.13313313381918        2.16731967057701
C            2.51058693957581        2.61738177670062        0.88496421572048
C            3.17911390189868        1.86185657810527       -0.07526087432621
O            3.31670461409289        2.37247912429952       -1.30431616818448
C            1.87595392762474       -1.96185123452762        0.06253298642312
C            0.87058475507825       -2.29690883944658        1.01021359541860
C           -0.37434340433606       -1.74831325622035        0.93780056469318
C           -0.69343614140106       -0.85550458251290       -0.10556804285521
N           -1.97058031942107       -0.25587277347326       -0.16664529485751
C           -3.10611376256842       -1.03243382583057       -0.31347363206071
C           -3.04299290858987       -2.42033105527110       -0.46002717319449
C           -4.19868200109913       -3.16505889257089       -0.58577998945996
C           -5.44094804527498       -2.54735096295309       -0.58117253362444
C           -5.52455014321433       -1.17028129330588       -0.47319321788000
C           -4.37034316874278       -0.41293414892606       -0.34781749168102
O           -4.51327402649297        0.93996927838272       -0.27808076223389
C           -3.38540472127603        1.69675674551308       -0.16028620353638
C           -3.54698724009853        3.07204141364644       -0.09732741105552
C           -2.44303742416715        3.89140960685221        0.05731269592517
C           -1.17885767626725        3.33109271897109        0.17090185356229
C           -1.00555512358463        1.96312328149261        0.10762156527267
C           -2.10275250452006        1.12021258516052       -0.08321647597469
C            0.25590084948097       -0.58377719175621       -1.09814341302317
C            1.50525467183146       -1.14010776166219       -1.03579862125127
H            4.42400498737809       -2.26441038137813       -1.49191812812286
H            5.26995950769386       -1.93566425860940        0.02270845877701
H            3.95439461827506       -0.80822533115830        1.89060974115320
H            2.74851602865643        0.53418593097393        3.53432787473728
H            1.81803201659041        2.73274023974848        2.89904091503579
H            2.15062002024163        3.59326039602878        0.59884389225846
H            3.82822112421730        1.71917967009295       -1.84411209798626
H            1.14572973225252       -2.95955290124515        1.81593404309811
H           -1.11810687732867       -1.96028805057554        1.69236558272637
H           -2.07974315113506       -2.90329506473057       -0.48224918682518
H           -4.12794503426922       -4.23590920740090       -0.69328197741502
H           -6.34149304542691       -3.13257775648631       -0.67566191720469
H           -6.47309245725930       -0.65843971882710       -0.49043916910239
H           -4.54501163345037        3.47368762509152       -0.16626220844801
H           -2.57216715536325        4.96095802549489        0.10117513572521
H           -0.31770327548537        3.96369177651327        0.31219930530565
H           -0.01999568168344        1.53873290574088        0.21350184332321
H           -0.02175266670503        0.04551121209418       -1.93209073384538
H            2.18664561254834       -0.98130570886017       -1.85417315201319

 projected vibrational frequencies (cm⁻¹)
eigval :       -0.00    -0.00    -0.00    -0.00     0.00     0.00
eigval :       10.62    27.64    31.53    39.42    41.83    61.72
eigval :       69.67    79.13   107.65   124.40   133.14   154.12
eigval :      168.36   175.13   212.91   222.90   238.57   242.82
eigval :      269.10   278.86   294.07   333.36   369.48   378.86
eigval :      384.87   395.89   398.16   404.23   430.08   432.54
eigval :      434.79   446.20   473.85   492.00   494.89   498.04
eigval :      506.55   524.69   533.57   541.33   543.57   578.90
eigval :      592.00   600.77   619.75   623.04   648.06   668.12
eigval :      674.30   675.12   698.81   724.06   757.63   765.23
eigval :      770.49   775.65   779.16   783.93   803.53   822.27
eigval :      829.00   856.32   861.31   868.26   871.20   886.62
eigval :      892.63   898.00   898.69   902.55   905.41   907.98
eigval :      912.57   916.51   920.13   920.51   968.45   993.39
eigval :     1031.14  1081.67  1082.13  1083.24  1099.99  1115.45
eigval :     1120.17  1128.52  1132.82  1161.52  1167.10  1171.15
eigval :     1176.90  1184.78  1191.19  1210.73  1213.89  1219.33
eigval :     1235.19  1249.36  1249.98  1252.92  1265.37  1269.77
eigval :     1276.88  1295.98  1306.89  1321.21  1334.41  1344.84
eigval :     1346.65  1387.85  1408.85  1424.68  1427.73  1429.54
eigval :     1432.01  1433.99  1438.50  1449.86  1455.95  1471.11
eigval :     1528.68  1544.57  1545.78  1547.02  1563.60  1577.57
eigval :     1579.53  1612.90  2930.24  2948.54  3011.01  3071.39
eigval :     3073.29  3079.35  3094.83  3100.45  3100.80  3102.75
eigval :     3103.60  3108.34  3108.99  3115.65  3117.24  3119.54
eigval :     3120.05  3122.73  3131.35

   temp. (K)  partition function   enthalpy   heat capacity  entropy
                                   cal/mol     cal/K/mol   cal/K/mol   J/K/mol
 298.15  VIB  0.478E+11            14597.410     94.660     89.096
         ROT  0.192E+08              888.752      2.981     36.313
         INT  0.920E+18            15486.162     97.641    125.409
         TR   0.837E+28             1481.254      4.968     43.986
         TOT                       16967.4160   102.6090   169.3953   708.7500

       T/K    H(0)-H(T)+PV         H(T)/Eh          T*S/Eh         G(T)/Eh
   ------------------------------------------------------------------------
    298.15    0.270393E-01    0.404559E+00    0.804852E-01    0.324074E+00
   ------------------------------------------------------------------------

         :::::::::::::::::::::::::::::::::::::::::::::::::::::
         ::                  THERMODYNAMIC                  ::
         :::::::::::::::::::::::::::::::::::::::::::::::::::::
         :: total free energy         -86.297509749063 Eh   ::
         ::.................................................::
         :: total energy              -86.621583363632 Eh   ::
         :: zero point energy           0.377519493657 Eh   ::
         :: G(RRHO) w/o ZPVE           -0.053445879088 Eh   ::
         :: G(RRHO) contrib.            0.324073614569 Eh   ::
         :::::::::::::::::::::::::::::::::::::::::::::::::::::

           -------------------------------------------------
          | TOTAL ENERGY              -86.621583363632 Eh   |
          | TOTAL ENTHALPY            -86.217024571408 Eh   |
          | TOTAL FREE ENERGY         -86.297509749063 Eh   |
          | GRADIENT NORM               0.000117029328 Eh/α |
           -------------------------------------------------

 * finished run on 2025/08/22 at 09:33:09.700
