   * xtb version 6.7.1 (edcfbbe) compiled by 'albert@albert-system' on 2024-07-22

   ID    Z sym.   atoms
    1    8 O      1, 5, 12, 24
    2    6 C      2-4, 6-11, 13-16, 18-23, 25-32
    3    7 N      17
    4    1 H      33-51

          program call               : xtb data2507/gas/BZC-PXZ/BZC-PXZ.xyz --gfn 2 --ohess vtight --parallel 40 --molden --ceasefiles --namespace data2507/gas/BZC-PXZ/BZC-PXZ_gas_S0_preOpt
          :  Hamiltonian                  GFN2-xTB          :
 * total energy  :   -86.6817919 Eh     change       -0.1335565E-08 Eh
 * total energy  :   -86.6902517 Eh     change       -0.8459749E-02 Eh
 * total energy  :   -86.6928480 Eh     change       -0.2596346E-02 Eh
 * total energy  :   -86.6935257 Eh     change       -0.6776836E-03 Eh
 * total energy  :   -86.6940600 Eh     change       -0.5343342E-03 Eh
 * total energy  :   -86.6942659 Eh     change       -0.2058336E-03 Eh
 * total energy  :   -86.6943676 Eh     change       -0.1016835E-03 Eh
 * total energy  :   -86.6944295 Eh     change       -0.6191910E-04 Eh
 * total energy  :   -86.6945022 Eh     change       -0.7274156E-04 Eh
 * total energy  :   -86.6946095 Eh     change       -0.1072789E-03 Eh
 * total energy  :   -86.6967566 Eh     change       -0.1131035E-06 Eh
 * total energy  :   -86.6967567 Eh     change       -0.1426001E-06 Eh
 * total energy  :   -86.6967569 Eh     change       -0.1851050E-06 Eh
 * total energy  :   -86.6967570 Eh     change       -0.1570897E-06 Eh
 * total energy  :   -86.6967571 Eh     change       -0.1069812E-06 Eh
 * total energy  :   -86.6967573 Eh     change       -0.1235383E-06 Eh
 * total energy  :   -86.6967574 Eh     change       -0.1635987E-06 Eh
 * total energy  :   -86.6967576 Eh     change       -0.1388068E-06 Eh
 * total energy  :   -86.6967577 Eh     change       -0.9249626E-07 Eh
   *** GEOMETRY OPTIMIZATION CONVERGED AFTER 86 ITERATIONS ***

 final structure:
================
51
 xtb: 6.7.1 (edcfbbe)
O            3.07605932078487        0.59436663044794        1.09673161852703
C            2.49618808516086       -0.11631571948159        0.30890837783465
C            3.22750861358926       -1.08391601533251       -0.61940324635790
C            4.60380536681415       -1.43520498588530       -0.09309925583470
O            4.78437764434427       -2.56418379998702        0.35481719198374
C            5.65209728675788       -0.42282808467256       -0.11566956215787
C            5.46127493702382        0.84952478618703       -0.67355352342204
C            6.46017760881363        1.79326706061901       -0.65616589725071
C            7.68990608941317        1.49258261810954       -0.07709337906946
C            7.91236276004012        0.25272384130054        0.47348133437134
C            6.90940483486192       -0.72205752979473        0.46436164092510
O            7.18918801953602       -1.90522182803693        1.01002396694079
C            1.02117951610712       -0.10413514867814        0.19066265475643
C            0.32746442346527       -0.61261493488627       -0.90861428347243
C           -1.04903376605184       -0.54977880309733       -0.95507377233831
C           -1.76920184953849        0.01477684940149        0.09844361990569
N           -3.17090791885297        0.06742726772555        0.04727976758291
C           -3.84321770552295        1.29434909589958        0.10946036416584
C           -3.17175857857327        2.50984713562742        0.15673033409229
C           -3.86971053126210        3.70648332866310        0.21178086991330
C           -5.24990080433443        3.71088805879000        0.20661816734363
C           -5.93508051730133        2.50894168258783        0.11923043966542
C           -5.24332687627199        1.31270809106211        0.06090676146791
O           -5.99253191757904        0.17121334480735       -0.06760814217356
C           -5.32165358781338       -1.02296376075826       -0.13265597827959
C           -6.09199923486403       -2.16600277980780       -0.24641486736019
C           -5.49171046522692       -3.41523720683628       -0.27700678143411
C           -4.11908701201248       -3.51160076598826       -0.16929432610762
C           -3.34242852236465       -2.36858127674727       -0.05816601831677
C           -3.92472106749249       -1.10707012648849       -0.06687439650534
C           -1.08070178187202        0.52899269700363        1.19751362670966
C            0.29463550601445        0.47417176923856        1.23512463030360
H            3.29757265590152       -0.62868759462641       -1.60880286478169
H            2.65725165111257       -2.01206397692445       -0.69066067520556
H            4.51472241770102        1.10435611105734       -1.12168762051305
H            6.29081400098459        2.76731920426526       -1.08855379268499
H            8.47356280229124        2.23530600179096       -0.06116724534596
H            8.85726072044578       -0.00308344631762        0.92645489466671
H            6.38688964321098       -2.47761944452423        0.93332928091105
H            0.85764247534667       -1.03400833313740       -1.74857916156225
H           -1.58149121253152       -0.92716048925652       -1.81562024235783
H           -2.09348082844978        2.52639123887655        0.14037171966736
H           -3.32029223044380        4.63413067379325        0.25436600644237
H           -5.79759671855148        4.63854942561515        0.25549000310098
H           -7.01230093074939        2.47607641205419        0.08760759549008
H           -7.16294518185420       -2.05466863710245       -0.30249482396701
H           -6.10001295949037       -4.30085295976115       -0.36947852651303
H           -3.63762881593482       -4.47721128021200       -0.16530840965225
H           -2.27327701460788       -2.46294882320511        0.04814780316923
H           -1.63453795419187        0.95784361557754        2.01917577271711
H            0.83918860402051        0.86377881105055        2.08202635001320

          :  Hamiltonian                  GFN2-xTB          :
         :: gradient norm              0.000030496114 Eh/a0 ::
         :: HOMO-LUMO gap              1.546039496540 eV    ::
         :: SCC energy               -88.064695029316 Eh    ::
         :: -> dispersion             -0.063259691632 Eh    ::
         :: repulsion energy           1.367937365897 Eh    ::

    * Orbital Energies and Occupations

         #    Occupation            Energy/Eh            Energy/eV
      -------------------------------------------------------------
         1        2.0000           -0.7342944             -19.9812
       ...           ...                  ...                  ...
        66        2.0000           -0.4404869             -11.9863
        67        2.0000           -0.4378259             -11.9138
        68        2.0000           -0.4365061             -11.8779
        69        2.0000           -0.4284707             -11.6593
        70        2.0000           -0.4277231             -11.6389
        71        2.0000           -0.4218287             -11.4785
        72        2.0000           -0.4189198             -11.3994
        73        2.0000           -0.4178305             -11.3697
        74        2.0000           -0.4105492             -11.1716
        75        2.0000           -0.3964347             -10.7875
        76        2.0000           -0.3962396             -10.7822
        77        2.0000           -0.3897028             -10.6044
        78        2.0000           -0.3509164              -9.5489 (HOMO)
        79                         -0.2941008              -8.0029 (LUMO)
        80                         -0.2874385              -7.8216
        81                         -0.2498943              -6.8000
        82                         -0.2445044              -6.6533
        83                         -0.2356488              -6.4123
        84                         -0.2258649              -6.1461
        85                         -0.2230209              -6.0687
        86                         -0.2138305              -5.8186
        87                         -0.2004765              -5.4552
        88                         -0.1982577              -5.3949
        89                         -0.1128653              -3.0712
       ...                                ...                  ...
       147                          0.6680828              18.1795
      -------------------------------------------------------------
                  HL-Gap            0.0568156 Eh            1.5460 eV

     #   Z          covCN         q      C6AA      α(0)
     1   8 O        0.857    -0.361    20.911     6.131
     2   6 C        2.821     0.236    23.067     7.870
     3   6 C        3.804    -0.106    22.524     6.756
     4   6 C        2.822     0.237    23.043     7.866
     5   8 O        0.858    -0.409    21.867     6.270
     6   6 C        2.965    -0.051    29.257     8.872
     7   6 C        2.920    -0.019    28.473     8.750
     8   6 C        2.916    -0.040    28.986     8.829
     9   6 C        2.919    -0.018    28.467     8.749
    10   6 C        2.916    -0.054    29.346     8.883
    11   6 C        2.847     0.170    24.340     8.086
    12   8 O        1.658    -0.379    20.452     6.105
    13   6 C        2.970    -0.020    28.494     8.756
    14   6 C        2.919    -0.029    28.731     8.790
    15   6 C        2.920    -0.041    29.009     8.832
    16   6 C        2.921     0.073    26.359     8.419
    17   7 N        2.751    -0.067    22.529     7.049
    18   6 C        2.921     0.041    27.072     8.532
    19   6 C        2.924    -0.059    29.472     8.903
    20   6 C        2.919    -0.038    28.945     8.822
    21   6 C        2.919    -0.038    28.957     8.824
    22   6 C        2.920    -0.055    29.374     8.888
    23   6 C        2.885     0.126    25.240     8.236
    24   8 O        1.709    -0.252    18.170     5.755
    25   6 C        2.885     0.126    25.239     8.236
    26   6 C        2.920    -0.055    29.375     8.888
    27   6 C        2.919    -0.039    28.957     8.824
    28   6 C        2.919    -0.038    28.948     8.823
    29   6 C        2.924    -0.059    29.471     8.903
    30   6 C        2.921     0.041    27.073     8.533
    31   6 C        2.919    -0.040    28.985     8.829
    32   6 C        2.926    -0.017    28.434     8.745
    33   1 H        0.924     0.074     2.037     2.232
    34   1 H        0.924     0.076     2.024     2.225
    35   1 H        0.926     0.043     2.415     2.430
    36   1 H        0.926     0.040     2.451     2.448
    37   1 H        0.926     0.045     2.378     2.411
    38   1 H        0.926     0.058     2.221     2.331
    39   1 H        0.802     0.349     0.591     1.208
    40   1 H        0.926     0.044     2.390     2.418
    41   1 H        0.926     0.048     2.347     2.396
    42   1 H        0.926     0.037     2.492     2.469
    43   1 H        0.926     0.039     2.465     2.455
    44   1 H        0.926     0.041     2.438     2.442
    45   1 H        0.926     0.053     2.286     2.364
    46   1 H        0.926     0.053     2.285     2.364
    47   1 H        0.926     0.041     2.437     2.441
    48   1 H        0.926     0.039     2.466     2.456
    49   1 H        0.926     0.036     2.503     2.474
    50   1 H        0.926     0.051     2.310     2.377
    51   1 H        0.926     0.067     2.123     2.278

molecular dipole:
                 x           y           z       tot (Debye)
 q only:       -0.843       0.563      -0.972
   full:       -1.061       0.579      -1.197       4.323

 projected vibrational frequencies (cm⁻¹)
eigval :       -0.00    -0.00    -0.00     0.00     0.00     0.00
eigval :        4.53    15.98    21.27    29.43    33.22    51.22
eigval :       66.21    76.61   100.97   109.03   123.14   131.66
eigval :      135.07   182.22   206.54   235.53   249.37   256.44
eigval :      264.76   279.01   290.69   328.59   376.19   378.34
eigval :      389.42   397.58   404.90   417.03   431.57   434.97
eigval :      447.30   453.93   466.72   490.54   494.11   509.55
eigval :      523.12   534.52   542.77   563.52   582.32   595.41
eigval :      604.56   610.21   623.82   656.69   662.30   662.69
eigval :      686.38   696.42   717.02   742.94   757.14   772.34
eigval :      779.61   779.87   800.10   818.52   829.38   837.02
eigval :      856.35   863.81   868.07   872.93   877.03   898.95
eigval :      900.08   907.47   914.32   915.42   916.02   917.37
eigval :      927.25   928.46   934.44   937.45   988.52  1021.80
eigval :     1035.94  1079.03  1090.73  1091.04  1092.13  1109.26
eigval :     1121.90  1137.45  1139.21  1170.90  1175.39  1177.33
eigval :     1183.98  1190.09  1195.38  1203.10  1209.83  1229.31
eigval :     1243.33  1249.15  1262.16  1264.93  1278.07  1279.42
eigval :     1292.19  1310.30  1315.49  1321.34  1337.43  1354.14
eigval :     1356.38  1406.50  1423.29  1424.16  1440.44  1442.33
eigval :     1458.37  1473.51  1485.67  1503.65  1551.78  1554.76
eigval :     1568.66  1579.31  1580.22  1591.02  1602.18  1604.55
eigval :     1654.25  1718.67  2972.72  2993.86  3045.22  3084.41
eigval :     3086.80  3090.24  3091.42  3091.66  3094.96  3099.80
eigval :     3100.84  3100.86  3101.10  3107.61  3108.24  3109.10
eigval :     3111.50  3114.45  3114.97

   temp. (K)  partition function   enthalpy   heat capacity  entropy
                                   cal/mol     cal/K/mol   cal/K/mol   J/K/mol
 298.15  VIB  0.703E+12            14572.413     92.484     90.945
         ROT  0.309E+08              888.752      2.981     37.252
         INT  0.217E+20            15461.165     95.465    128.197
         TR   0.837E+28             1481.254      4.968     43.986
         TOT                       16942.4193   100.4330   172.1830   720.4137

       T/K    H(0)-H(T)+PV         H(T)/Eh          T*S/Eh         G(T)/Eh
   ------------------------------------------------------------------------
    298.15    0.269995E-01    0.408108E+00    0.818097E-01    0.326299E+00
   ------------------------------------------------------------------------

         :::::::::::::::::::::::::::::::::::::::::::::::::::::
         ::                  THERMODYNAMIC                  ::
         :::::::::::::::::::::::::::::::::::::::::::::::::::::
         :: total free energy         -86.370458987021 Eh   ::
         ::.................................................::
         :: total energy              -86.696757663429 Eh   ::
         :: zero point energy           0.381108918964 Eh   ::
         :: G(RRHO) w/o ZPVE           -0.054810242557 Eh   ::
         :: G(RRHO) contrib.            0.326298676408 Eh   ::
         :::::::::::::::::::::::::::::::::::::::::::::::::::::

           -------------------------------------------------
          | TOTAL ENERGY              -86.696757663429 Eh   |
          | TOTAL ENTHALPY            -86.288649280692 Eh   |
          | TOTAL FREE ENERGY         -86.370458987021 Eh   |
          | GRADIENT NORM               0.000030502301 Eh/α |
          | HOMO-LUMO GAP               1.546030936444 eV   |
           -------------------------------------------------

 * finished run on 2025/08/22 at 09:30:28.574
