   * xtb version 6.7.1 (edcfbbe) compiled by 'albert@albert-system' on 2024-07-22

   ID    Z sym.   atoms
    1    6 C      1-9, 11-22, 24, 25, 27-32, 34-44
    2    7 N      10, 23, 26, 33
    3    1 H      45-72

          program call               : xtb data2507/toluene/PyDCN–DMAC/PyDCN–DMAC.xyz --gfn 2 --gbsa toluene --ohess vtight --parallel 40 --molden --ceasefiles --namespace data2507/toluene/PyDCN–DMAC/PyDCN–DMAC_toluene_S0_preOpt
      * Solvation model:               GBSA
        Solvent                        toluene
        Solvent mass                       9.2140E+01 g/mol
          :  Hamiltonian                  GFN2-xTB          :
 * total energy  :  -111.6085186 Eh     change       -0.2322992E-08 Eh
 * total energy  :  -111.6222552 Eh     change       -0.1373660E-01 Eh
 * total energy  :  -111.6262752 Eh     change       -0.4020006E-02 Eh
 * total energy  :  -111.6272001 Eh     change       -0.9248951E-03 Eh
 * total energy  :  -111.6276295 Eh     change       -0.4293685E-03 Eh
 * total energy  :  -111.6278950 Eh     change       -0.2655588E-03 Eh
 * total energy  :  -111.6280652 Eh     change       -0.1701405E-03 Eh
 * total energy  :  -111.6281567 Eh     change       -0.9156652E-04 Eh
 * total energy  :  -111.6282480 Eh     change       -0.9129718E-04 Eh
 * total energy  :  -111.6282814 Eh     change       -0.3337673E-04 Eh
 * total energy  :  -111.6287150 Eh     change       -0.1677977E-06 Eh
 * total energy  :  -111.6287151 Eh     change       -0.1725620E-06 Eh
 * total energy  :  -111.6287153 Eh     change       -0.1346577E-06 Eh
 * total energy  :  -111.6287154 Eh     change       -0.1392801E-06 Eh
 * total energy  :  -111.6287156 Eh     change       -0.1390717E-06 Eh
 * total energy  :  -111.6287157 Eh     change       -0.1416736E-06 Eh
 * total energy  :  -111.6287158 Eh     change       -0.1388747E-06 Eh
 * total energy  :  -111.6287158 Eh     change        0.2499434E-08 Eh
 * total energy  :  -111.6287159 Eh     change       -0.9674739E-07 Eh
   *** GEOMETRY OPTIMIZATION CONVERGED AFTER 45 ITERATIONS ***

 final structure:
================
72
 xtb: 6.7.1 (edcfbbe)
C           -7.35442463224015       -0.59120839979552        1.11631500179892
C           -6.47297325846937       -0.00008571982109       -0.00016301275144
C           -7.35403069348347        0.59099930257281       -1.11697355851034
C           -5.62295361345196        1.10954097843108        0.59061983417395
C           -6.24185315328496        2.20508308179421        1.17738763829406
C           -5.52221147741745        3.23711047485534        1.75162847687807
C           -4.14031414059106        3.17612608085117        1.75510654896233
C           -3.49943795734688        2.10007875572064        1.17742715840608
C           -4.22446298809889        1.06463322747300        0.57943370199154
N           -3.55062880266694        0.00006238358376        0.00021854542516
C           -2.12903739571238        0.00017685115364        0.00031948232423
C           -1.43035328273538        0.77540153569336       -0.91854560114741
C           -0.04904021073768        0.77947198151671       -0.91245162994283
C            0.65904980475926        0.00024623976932        0.00036123687766
C            2.12931866773784        0.00018342713335        0.00027855024440
C            2.84590217568862        1.18213824149237       -0.16933780150416
C            4.23934969249530        1.13551424250511       -0.17834536147565
C            5.06425481857003        2.33933295806761       -0.36613387936088
C            6.35840076560839        2.36271210352410        0.15778259616790
C            7.16384264547356        3.47021490517606        0.00221817917839
C            6.68227721500613        4.58305172241833       -0.69213184951028
C            7.49868409313264        5.72330353705929       -0.85556561677567
N            8.16112024570163        6.65160903944430       -0.98829543365959
C            5.39350946661244        4.56562922425734       -1.22978815835896
C            4.59608040014142        3.45170802126887       -1.06608745298131
N            4.90624979412592        0.00003791495968        0.00004202538406
C            4.23926132946746       -1.13537046653350        0.17854105509423
C            5.06405991838745       -2.33928929280478        0.36613185236044
C            4.59585860984225       -3.45167484961002        1.06605646930049
C            5.39315258300466       -4.56571931548239        1.22949920401298
C            6.68184957241710       -4.58329535921266        0.69162813522365
C            7.49806293900163       -5.72362341553876        0.85475764186940
N            8.16036788488657       -6.65206295606391        0.98726715210029
C            7.16344004238789       -3.47040960356057       -0.00267082309606
C            6.35812725333656       -2.36278956509801       -0.15798361752035
C            2.84580776511087       -1.18184588841841        0.16977633362157
C           -0.04902828712950       -0.77897680670949        0.91318587315386
C           -1.43034218743973       -0.77497373378605        0.91923956066121
C           -4.22420226012688       -1.06460596320955       -0.57912288109052
C           -3.49892263072787       -2.09999676678793       -1.17690275266787
C           -4.13954247356583       -3.17613768835188       -1.75469241558196
C           -5.52143373032571       -3.23727192548477       -1.75154794803980
C           -6.24132472502711       -2.20529590535771       -1.17752727422622
C           -5.62268589002741       -1.10966588387230       -0.59064853519493
H           -6.72735933671468       -1.00784332657026        1.90303129785557
H           -7.99044333927371        0.17310755380961        1.55422503027806
H           -7.99067228864474       -1.38268541191810        0.73000016015206
H           -7.98986718889092       -0.17334207455220       -1.55510551125106
H           -6.72668620721717        1.00763591144031       -1.90346650071441
H           -7.99043348653580        1.38247036507037       -0.73090071801453
H           -7.31991832527024        2.26025319816058        1.19123620488930
H           -6.03684860065423        4.07514728290762        2.19747637640666
H           -3.55753020996653        3.96471440770403        2.20856781531903
H           -2.42122638433169        2.05669626549074        1.19237011625471
H           -1.97783907258375        1.37356195640021       -1.63201222499195
H            0.48556755216254        1.37187739746866       -1.63995021602468
H            2.32469343378463        2.12163285693789       -0.25708023859494
H            6.71548130852227        1.49502883191497        0.69017511370155
H            8.16316216044100        3.48737394287654        0.41163218961338
H            5.03120015912748        5.42540979860917       -1.77427101241015
H            3.61076850832563        3.44359670202798       -1.50588472095309
H            3.61062159842560       -3.44347305336498        1.50602207288736
H            5.03081881641595       -5.42551441504120        1.77394533477601
H            8.16269611887533       -3.48766424426220       -0.41223743108278
H            6.71523808640141       -1.49509663559709       -0.69034265721156
H            2.32451365956021       -2.12128585081739        0.25759479343788
H            0.48558706585032       -1.37136346179302        1.64069473618998
H           -1.97782017062231       -1.37316955484723        1.63268256277982
H           -2.42071298821935       -2.05650010429416       -1.19159485585020
H           -3.55656240627809       -3.96467945880589       -2.20798246313633
H           -6.03587169057124       -4.07538333608681       -2.19748649210876
H           -7.31938066440785       -2.26057126808761       -1.19165141230818

          :  Hamiltonian                  GFN2-xTB          :
         :: gradient norm              0.000122259018 Eh/a0 ::
         :: HOMO-LUMO gap              1.512751280432 eV    ::
         :: SCC energy              -113.754866981263 Eh    ::
         :: -> dispersion             -0.095979037407 Eh    ::
         :: -> Gsolv                  -0.054160423514 Eh    ::
         :: repulsion energy           2.126151043301 Eh    ::

    * Orbital Energies and Occupations

         #    Occupation            Energy/Eh            Energy/eV
      -------------------------------------------------------------
         1        2.0000           -0.6775038             -18.4358
       ...           ...                  ...                  ...
        92        2.0000           -0.4281214             -11.6498
        93        2.0000           -0.4276741             -11.6376
        94        2.0000           -0.4241761             -11.5424
        95        2.0000           -0.4206348             -11.4461
        96        2.0000           -0.4142960             -11.2736
        97        2.0000           -0.4079540             -11.1010
        98        2.0000           -0.4063504             -11.0574
        99        2.0000           -0.4050915             -11.0231
       100        2.0000           -0.4043293             -11.0024
       101        2.0000           -0.3988977             -10.8546
       102        2.0000           -0.3935695             -10.7096
       103        2.0000           -0.3812278             -10.3737
       104        2.0000           -0.3475082              -9.4562 (HOMO)
       105                         -0.2919157              -7.9434 (LUMO)
       106                         -0.2916912              -7.9373
       107                         -0.2662260              -7.2444
       108                         -0.2454265              -6.6784
       109                         -0.2452301              -6.6731
       110                         -0.2417197              -6.5775
       111                         -0.2377926              -6.4707
       112                         -0.2262818              -6.1574
       113                         -0.2252659              -6.1298
       114                         -0.2201296              -5.9900
       115                         -0.2191821              -5.9642
       ...                                ...                  ...
       204                          1.1566956              31.4753
      -------------------------------------------------------------
                  HL-Gap            0.0555926 Eh            1.5128 eV

     #   Z          covCN         q      C6AA      α(0)
     1   6 C        3.761    -0.103    22.510     6.764
     2   6 C        3.908     0.021    20.165     6.383
     3   6 C        3.761    -0.103    22.510     6.764
     4   6 C        2.979    -0.015    28.369     8.737
     5   6 C        2.928    -0.038    28.938     8.822
     6   6 C        2.917    -0.047    29.160     8.855
     7   6 C        2.919    -0.035    28.878     8.812
     8   6 C        2.924    -0.061    29.505     8.908
     9   6 C        2.927     0.059    26.684     8.471
    10   7 N        2.754    -0.075    22.701     7.076
    11   6 C        2.927     0.071    26.411     8.428
    12   6 C        2.920    -0.037    28.926     8.820
    13   6 C        2.924    -0.031    28.766     8.796
    14   6 C        2.977     0.008    27.835     8.654
    15   6 C        2.981     0.028    27.370     8.582
    16   6 C        2.922    -0.051    29.278     8.873
    17   6 C        2.950     0.093    25.928     8.352
    18   6 C        2.980     0.016    27.658     8.627
    19   6 C        2.924    -0.022    28.564     8.765
    20   6 C        2.924    -0.017    28.433     8.744
    21   6 C        2.974     0.018    27.597     8.617
    22   6 C        1.912     0.119    28.171     8.572
    23   7 N        0.911    -0.269    26.966     7.510
    24   6 C        2.924    -0.018    28.464     8.749
    25   6 C        2.921    -0.028    28.712     8.787
    26   7 N        1.855    -0.252    27.423     7.762
    27   6 C        2.950     0.093    25.928     8.352
    28   6 C        2.980     0.016    27.658     8.627
    29   6 C        2.921    -0.028    28.712     8.787
    30   6 C        2.924    -0.018    28.464     8.749
    31   6 C        2.974     0.018    27.597     8.617
    32   6 C        1.912     0.119    28.171     8.572
    33   7 N        0.911    -0.269    26.966     7.511
    34   6 C        2.924    -0.017    28.433     8.744
    35   6 C        2.924    -0.022    28.564     8.765
    36   6 C        2.922    -0.051    29.278     8.873
    37   6 C        2.924    -0.031    28.766     8.796
    38   6 C        2.920    -0.037    28.926     8.820
    39   6 C        2.927     0.059    26.684     8.471
    40   6 C        2.924    -0.061    29.505     8.908
    41   6 C        2.919    -0.035    28.878     8.812
    42   6 C        2.917    -0.047    29.160     8.855
    43   6 C        2.928    -0.038    28.938     8.822
    44   6 C        2.979    -0.015    28.369     8.737
    45   1 H        0.925     0.029     2.595     2.519
    46   1 H        0.925     0.041     2.438     2.442
    47   1 H        0.925     0.041     2.437     2.441
    48   1 H        0.925     0.041     2.438     2.442
    49   1 H        0.925     0.029     2.595     2.519
    50   1 H        0.925     0.041     2.437     2.441
    51   1 H        0.926     0.031     2.570     2.507
    52   1 H        0.926     0.024     2.666     2.553
    53   1 H        0.926     0.026     2.647     2.544
    54   1 H        0.926     0.024     2.675     2.557
    55   1 H        0.926     0.046     2.376     2.411
    56   1 H        0.926     0.046     2.371     2.408
    57   1 H        0.926     0.048     2.349     2.397
    58   1 H        0.926     0.064     2.151     2.294
    59   1 H        0.926     0.049     2.338     2.391
    60   1 H        0.926     0.048     2.351     2.398
    61   1 H        0.926     0.051     2.303     2.373
    62   1 H        0.926     0.051     2.303     2.373
    63   1 H        0.926     0.048     2.351     2.398
    64   1 H        0.926     0.049     2.338     2.391
    65   1 H        0.926     0.064     2.151     2.294
    66   1 H        0.926     0.048     2.349     2.397
    67   1 H        0.926     0.046     2.371     2.408
    68   1 H        0.926     0.046     2.376     2.411
    69   1 H        0.926     0.024     2.675     2.557
    70   1 H        0.926     0.026     2.647     2.544
    71   1 H        0.926     0.024     2.666     2.553
    72   1 H        0.926     0.031     2.570     2.507

molecular dipole:
                 x           y           z       tot (Debye)
 q only:       -2.000       0.000       0.000
   full:       -2.835       0.000       0.000       7.207

 projected vibrational frequencies (cm⁻¹)
eigval :       -0.00    -0.00     0.00     0.00     0.00     0.00
eigval :       11.58    14.43    17.49    29.56    31.86    38.45
eigval :       46.14    48.70    54.26    57.54    64.03    81.16
eigval :       97.27   100.27   109.60   113.92   130.82   132.50
eigval :      135.36   145.27   168.23   197.24   198.64   208.12
eigval :      220.07   224.45   233.58   244.22   250.16   263.36
eigval :      289.04   301.89   321.78   331.89   346.00   347.22
eigval :      363.22   363.89   374.41   376.12   378.26   403.00
eigval :      409.46   410.43   427.45   429.46   453.25   488.53
eigval :      493.39   510.71   515.50   524.19   529.11   534.30
eigval :      538.26   539.13   547.45   549.81   554.67   577.92
eigval :      589.75   600.19   600.83   613.71   619.01   620.79
eigval :      627.02   665.83   683.09   684.26   693.65   702.09
eigval :      706.47   716.93   728.89   737.08   775.94   776.80
eigval :      777.99   805.33   819.39   820.79   826.33   841.34
eigval :      841.78   863.61   864.16   866.50   867.98   868.44
eigval :      868.99   881.74   912.82   913.72   913.72   916.30
eigval :      916.36   919.81   921.29   921.44   923.04   925.93
eigval :      928.03   928.41   938.81   956.63   986.64  1010.63
eigval :     1012.80  1013.31  1016.36  1076.21  1079.21  1085.75
eigval :     1107.15  1113.01  1119.27  1124.41  1132.70  1134.37
eigval :     1139.00  1144.37  1158.20  1170.46  1184.60  1186.18
eigval :     1186.67  1186.71  1186.89  1205.48  1216.18  1222.97
eigval :     1238.66  1244.22  1247.15  1249.59  1261.22  1262.02
eigval :     1263.26  1267.60  1289.87  1293.56  1305.91  1314.62
eigval :     1316.08  1318.52  1324.32  1333.46  1337.50  1358.39
eigval :     1380.86  1384.61  1396.36  1400.12  1405.76  1418.81
eigval :     1425.18  1435.71  1440.17  1475.62  1475.94  1477.13
eigval :     1486.64  1487.40  1487.95  1497.11  1497.72  1502.67
eigval :     1529.47  1547.90  1550.75  1559.05  1560.85  1573.60
eigval :     1585.33  1585.59  1588.06  1590.53  1592.76  1601.22
eigval :     2361.02  2361.70  3019.60  3022.15  3037.84  3039.84
eigval :     3046.51  3050.59  3070.90  3071.00  3078.48  3078.55
eigval :     3080.87  3082.42  3085.08  3085.12  3088.11  3088.19
eigval :     3089.15  3089.59  3091.84  3094.06  3097.32  3097.59
eigval :     3097.67  3098.43  3104.16  3104.23  3107.12  3108.00

   temp. (K)  partition function   enthalpy   heat capacity  entropy
                                   cal/mol     cal/K/mol   cal/K/mol   J/K/mol
 298.15  VIB  0.749E+17            21593.286    133.260    135.057
         ROT  0.512E+08              888.752      2.981     38.256
         INT  0.383E+25            22482.039    136.241    173.313
         TR   0.130E+29             1481.254      4.968     44.858
         TOT                       23963.2924   141.2093   218.1708   912.8268

       T/K    H(0)-H(T)+PV         H(T)/Eh          T*S/Eh         G(T)/Eh
   ------------------------------------------------------------------------
    298.15    0.381879E-01    0.589697E+00    0.103660E+00    0.486037E+00
   ------------------------------------------------------------------------

         :::::::::::::::::::::::::::::::::::::::::::::::::::::
         ::                  THERMODYNAMIC                  ::
         :::::::::::::::::::::::::::::::::::::::::::::::::::::
         :: total free energy        -111.142678782574 Eh   ::
         ::.................................................::
         :: total energy             -111.628715935220 Eh   ::
         :: zero point energy           0.551509217726 Eh   ::
         :: G(RRHO) w/o ZPVE           -0.065472065079 Eh   ::
         :: G(RRHO) contrib.            0.486037152647 Eh   ::
         :::::::::::::::::::::::::::::::::::::::::::::::::::::

           -------------------------------------------------
          | TOTAL ENERGY             -111.628715935220 Eh   |
          | TOTAL ENTHALPY           -111.039018780221 Eh   |
          | TOTAL FREE ENERGY        -111.142678782574 Eh   |
          | GRADIENT NORM               0.000122115855 Eh/α |
          | HOMO-LUMO GAP               1.512751098835 eV   |
           -------------------------------------------------

 * finished run on 2025/09/05 at 01:48:16.988
