   * xtb version 6.7.1 (edcfbbe) compiled by 'albert@albert-system' on 2024-07-22

   ID    Z sym.   atoms
    1    6 C      1-9, 11-22, 24, 25, 27-32, 34-44
    2    7 N      10, 23, 26, 33
    3    1 H      45-72

          program call               : xtb data2507/toluene/PyDCN–DMAC/PyDCN–DMAC_toluene_S0_crest.xyz --gfn 2 --gbsa toluene --ohess vtight --parallel 40 --molden --ceasefiles --namespace data2507/toluene/PyDCN–DMAC/PyDCN–DMAC_toluene_S0_finalOpt
      * Solvation model:               GBSA
        Solvent                        toluene
        Solvent mass                       9.2140E+01 g/mol
          :  Hamiltonian                  GFN2-xTB          :
 * total energy  :  -111.6286446 Eh     change       -0.2151225E-08 Eh
 * total energy  :  -111.6286717 Eh     change       -0.2712872E-04 Eh
 * total energy  :  -111.6286737 Eh     change       -0.1970296E-05 Eh
 * total energy  :  -111.6286647 Eh     change        0.9013825E-05 Eh
 * total energy  :  -111.6286811 Eh     change       -0.1642370E-04 Eh
 * total energy  :  -111.6286844 Eh     change       -0.3303726E-05 Eh
 * total energy  :  -111.6286850 Eh     change       -0.6401466E-06 Eh
 * total energy  :  -111.6286884 Eh     change       -0.3315850E-05 Eh
 * total energy  :  -111.6286912 Eh     change       -0.2848609E-05 Eh
 * total energy  :  -111.6286955 Eh     change       -0.4288327E-05 Eh
 * total energy  :  -111.6287507 Eh     change       -0.9708007E-06 Eh
 * total energy  :  -111.6287520 Eh     change       -0.1264921E-05 Eh
 * total energy  :  -111.6287535 Eh     change       -0.1539849E-05 Eh
 * total energy  :  -111.6287552 Eh     change       -0.1721922E-05 Eh
 * total energy  :  -111.6287568 Eh     change       -0.1599519E-05 Eh
 * total energy  :  -111.6287583 Eh     change       -0.1484062E-05 Eh
 * total energy  :  -111.6287596 Eh     change       -0.1309099E-05 Eh
 * total energy  :  -111.6287607 Eh     change       -0.1101365E-05 Eh
 * total energy  :  -111.6287607 Eh     change       -0.3528811E-08 Eh
   *** GEOMETRY OPTIMIZATION CONVERGED AFTER 44 ITERATIONS ***

 final structure:
================
72
 xtb: 6.7.1 (edcfbbe)
C           -8.10249332643683       -0.58899830541402        1.11305437213283
C           -7.22246416972508       -0.00444257762749       -0.00801623773360
C           -8.10501034974184        0.57787217834019       -1.12825571290040
C           -6.37335572168821        1.11004667501193        0.57485955919940
C           -6.99319380865521        2.20947245300675        1.15331578947708
C           -6.27447687212841        3.24584882656592        1.72081493558887
C           -4.89256593771541        3.18550142944455        1.72576459770943
C           -4.25075803648844        2.10572261478298        1.15616329803955
C           -4.97481941247023        1.06565176816923        0.56509039885314
N           -4.30003674292981       -0.00256298067456       -0.00616609709224
C           -2.87832047081116       -0.00238118966353       -0.00390449898329
C           -2.17821623628411        0.76562266706245       -0.92778284370520
C           -0.79684902534214        0.77070081871901       -0.91903394685396
C           -0.09054750691276       -0.00114251036248        0.00139692336619
C            1.38010009197847        0.00007278842429        0.00410473082948
C            2.09581240500034        1.18279076550630       -0.16263698573348
C            3.48905430427959        1.14237855065158       -0.13428630440549
C            4.31074981122449        2.35449517792723       -0.27806107275906
C            5.59777788550815        2.24310123645584       -0.80779246485266
C            6.39814829345142        3.35500616348319       -0.95881374646533
C            5.91863363531876        4.60940782177155       -0.57261190463907
C            6.72975285655181        5.75520908662253       -0.72353709293572
N            7.38766232935854        6.68819722715019       -0.84526326334664
C            4.63756415153035        4.72942409912925       -0.02946646379185
C            3.84458237855818        3.60954653329349        0.11422767451948
N            4.15786724938136        0.00285867042503        0.00713252891279
C            3.49102573734970       -1.13800728200753        0.14737947679405
C            4.31529735939519       -2.34838993220474        0.29110445403840
C            3.85182682419759       -3.60447463361130       -0.10109799797021
C            4.64795272955793       -4.72235808549814        0.04073803109449
C            5.92958023901920       -4.59931959997669        0.58187868215472
C            6.74431831058406       -5.74293791593833        0.72980435829416
N            7.40529146651862       -6.67414434226593        0.84862922050543
C            6.40620829064140       -3.34394895875187        0.96850710793299
C            5.60267213136968       -2.23407193285980        0.81943092783661
C            2.09777345726023       -1.18116623848057        0.17287657492642
C           -0.79960119933129       -0.77385493856179        0.91893698129045
C           -2.18102886274250       -0.77001056544342        0.92240542271358
C           -4.97274503414795       -1.07085138021751       -0.57968497804611
C           -4.24652465822728       -2.10922977448517       -1.17107021320410
C           -4.88618164321096       -3.18912084255495       -1.74287585545649
C           -6.26802163055276       -3.25135360014204       -1.73964786040463
C           -6.98885502352788       -2.21663018467993       -1.17180118711634
C           -6.37120157176501       -1.11697576450808       -0.59146599139354
H           -7.47444615290131       -1.00046477264635        1.90170903530255
H           -8.73835427234247        0.17780326563220        1.54685175199944
H           -8.73879704668622       -1.38312460466427        0.73229245901565
H           -8.74125472469166       -0.18994289300916       -1.55966818454530
H           -7.47874834142650        0.98857351415399       -1.91872526415071
H           -8.74118555612453        1.37210713826714       -0.74754987383785
H           -8.07129774709008        2.26424873003827        1.16599347983574
H           -6.78985042375606        4.08679760377935        2.16028197538531
H           -4.31058468779857        3.97758248199867        2.17411677071580
H           -3.17255045370158        2.06288218129387        1.17193046957123
H           -2.72439632743876        1.35790805176386       -1.64712108096709
H           -0.26100104878425        1.35832590500665       -1.64965499433004
H            1.57438647702963        2.11503672235204       -0.30722684874713
H            5.95364894615068        1.26729713860138       -1.09939457230015
H            7.39195376521991        3.26693717703663       -1.37252973766386
H            4.27720249989701        5.70023862917097        0.27798038109637
H            2.86547290523114        3.71295225743847        0.55618590500307
H            2.87239999365926       -3.71028297235953       -0.54175904694075
H            4.28968771659406       -5.69390579567289       -0.26685959124476
H            7.40037712074329       -3.25351486896052        1.38084243194030
H            5.95640815464929       -1.25754096597136        1.11119804437068
H            1.57780465273617       -2.11440801636655        0.31627599510540
H           -0.26598314819665       -1.36105067988943        1.65153403243722
H           -2.72942826978342       -1.36280757290225        1.63963169144540
H           -3.16834884880403       -2.06487662419119       -1.18528608738440
H           -4.30260517819317       -3.97984622922334       -2.19154918743648
H           -6.78170865025387       -4.09252141569489       -2.18067723428931
H           -8.06685946523767       -2.27296716519258       -1.18555162650910

          :  Hamiltonian                  GFN2-xTB          :
         :: gradient norm              0.000144141839 Eh/a0 ::
         :: HOMO-LUMO gap              1.519225711134 eV    ::
         :: SCC energy              -113.754845671208 Eh    ::
         :: -> dispersion             -0.095859291081 Eh    ::
         :: -> Gsolv                  -0.054085337043 Eh    ::
         :: repulsion energy           2.126084925967 Eh    ::

    * Orbital Energies and Occupations

         #    Occupation            Energy/Eh            Energy/eV
      -------------------------------------------------------------
         1        2.0000           -0.6775491             -18.4371
       ...           ...                  ...                  ...
        92        2.0000           -0.4282230             -11.6525
        93        2.0000           -0.4276891             -11.6380
        94        2.0000           -0.4240677             -11.5395
        95        2.0000           -0.4203834             -11.4392
        96        2.0000           -0.4143093             -11.2739
        97        2.0000           -0.4079915             -11.1020
        98        2.0000           -0.4063009             -11.0560
        99        2.0000           -0.4051291             -11.0241
       100        2.0000           -0.4043284             -11.0023
       101        2.0000           -0.3989127             -10.8550
       102        2.0000           -0.3935827             -10.7099
       103        2.0000           -0.3812511             -10.3744
       104        2.0000           -0.3474951              -9.4558 (HOMO)
       105                         -0.2916646              -7.9366 (LUMO)
       106                         -0.2916279              -7.9356
       107                         -0.2655050              -7.2248
       108                         -0.2453981              -6.6776
       109                         -0.2452260              -6.6729
       110                         -0.2416307              -6.5751
       111                         -0.2378288              -6.4717
       112                         -0.2264632              -6.1624
       113                         -0.2252734              -6.1300
       114                         -0.2201427              -5.9904
       115                         -0.2191918              -5.9645
       ...                                ...                  ...
       204                          1.1567094              31.4757
      -------------------------------------------------------------
                  HL-Gap            0.0558305 Eh            1.5192 eV

     #   Z          covCN         q      C6AA      α(0)
     1   6 C        3.761    -0.103    22.510     6.763
     2   6 C        3.908     0.021    20.165     6.383
     3   6 C        3.761    -0.103    22.510     6.764
     4   6 C        2.979    -0.015    28.369     8.737
     5   6 C        2.928    -0.038    28.938     8.822
     6   6 C        2.917    -0.047    29.161     8.855
     7   6 C        2.919    -0.035    28.878     8.812
     8   6 C        2.924    -0.061    29.506     8.908
     9   6 C        2.927     0.059    26.684     8.471
    10   7 N        2.754    -0.075    22.701     7.076
    11   6 C        2.927     0.071    26.412     8.428
    12   6 C        2.920    -0.037    28.925     8.820
    13   6 C        2.924    -0.031    28.770     8.796
    14   6 C        2.977     0.008    27.833     8.654
    15   6 C        2.981     0.028    27.367     8.581
    16   6 C        2.922    -0.052    29.283     8.874
    17   6 C        2.951     0.093    25.927     8.351
    18   6 C        2.980     0.016    27.656     8.626
    19   6 C        2.924    -0.022    28.563     8.764
    20   6 C        2.923    -0.017    28.433     8.744
    21   6 C        2.973     0.018    27.597     8.617
    22   6 C        1.912     0.119    28.170     8.572
    23   7 N        0.911    -0.269    26.966     7.510
    24   6 C        2.924    -0.018    28.462     8.749
    25   6 C        2.921    -0.029    28.714     8.787
    26   7 N        1.855    -0.252    27.427     7.762
    27   6 C        2.951     0.093    25.927     8.352
    28   6 C        2.980     0.016    27.656     8.626
    29   6 C        2.921    -0.029    28.714     8.787
    30   6 C        2.924    -0.018    28.462     8.749
    31   6 C        2.973     0.018    27.597     8.617
    32   6 C        1.912     0.119    28.170     8.572
    33   7 N        0.911    -0.269    26.966     7.510
    34   6 C        2.923    -0.017    28.433     8.744
    35   6 C        2.924    -0.022    28.563     8.764
    36   6 C        2.922    -0.052    29.282     8.874
    37   6 C        2.924    -0.031    28.770     8.796
    38   6 C        2.920    -0.037    28.925     8.820
    39   6 C        2.927     0.059    26.684     8.471
    40   6 C        2.924    -0.061    29.506     8.908
    41   6 C        2.919    -0.035    28.878     8.812
    42   6 C        2.917    -0.047    29.161     8.855
    43   6 C        2.928    -0.038    28.938     8.822
    44   6 C        2.979    -0.015    28.369     8.737
    45   1 H        0.925     0.029     2.595     2.519
    46   1 H        0.925     0.041     2.439     2.442
    47   1 H        0.925     0.041     2.437     2.441
    48   1 H        0.925     0.041     2.439     2.442
    49   1 H        0.925     0.029     2.595     2.519
    50   1 H        0.925     0.041     2.437     2.441
    51   1 H        0.926     0.031     2.571     2.507
    52   1 H        0.926     0.024     2.666     2.553
    53   1 H        0.926     0.026     2.647     2.544
    54   1 H        0.926     0.024     2.675     2.557
    55   1 H        0.926     0.045     2.377     2.411
    56   1 H        0.926     0.046     2.365     2.405
    57   1 H        0.926     0.048     2.349     2.397
    58   1 H        0.926     0.064     2.155     2.296
    59   1 H        0.926     0.049     2.337     2.391
    60   1 H        0.926     0.047     2.352     2.398
    61   1 H        0.926     0.051     2.302     2.372
    62   1 H        0.926     0.051     2.301     2.372
    63   1 H        0.926     0.047     2.352     2.398
    64   1 H        0.926     0.049     2.337     2.391
    65   1 H        0.926     0.064     2.155     2.296
    66   1 H        0.926     0.048     2.349     2.397
    67   1 H        0.926     0.046     2.365     2.405
    68   1 H        0.926     0.045     2.377     2.411
    69   1 H        0.926     0.024     2.675     2.558
    70   1 H        0.926     0.026     2.647     2.544
    71   1 H        0.926     0.024     2.666     2.553
    72   1 H        0.926     0.031     2.571     2.507

molecular dipole:
                 x           y           z       tot (Debye)
 q only:       -1.992      -0.003       0.003
   full:       -2.827      -0.004       0.003       7.185

 projected vibrational frequencies (cm⁻¹)
eigval :       -0.00    -0.00     0.00     0.00     0.00     0.00
eigval :       11.18    12.67    16.22    26.47    29.35    39.11
eigval :       42.22    46.91    50.85    52.76    63.73    78.53
eigval :       97.20   102.25   105.39   110.85   132.58   134.83
eigval :      137.93   142.22   162.17   198.37   199.55   209.56
eigval :      219.99   224.06   232.99   246.07   258.10   263.80
eigval :      290.07   299.69   312.81   331.80   343.66   345.59
eigval :      362.59   363.69   375.31   378.35   382.30   394.16
eigval :      409.19   412.00   430.89   431.84   453.17   485.69
eigval :      492.60   510.62   515.32   523.61   527.40   532.86
eigval :      536.62   537.25   547.27   549.76   554.84   578.71
eigval :      589.98   600.49   600.56   613.31   619.46   620.76
eigval :      625.89   665.86   683.14   686.24   693.74   701.31
eigval :      704.25   717.20   728.78   736.65   775.73   776.54
eigval :      777.71   806.99   819.50   823.66   825.98   840.94
eigval :      845.07   862.88   863.43   867.99   869.65   870.83
eigval :      871.99   882.79   912.95   913.80   914.20   920.22
eigval :      920.62   921.10   921.45   921.67   922.95   928.27
eigval :      928.87   930.00   938.77   956.78   986.52  1010.63
eigval :     1012.58  1013.07  1016.37  1076.13  1079.39  1085.71
eigval :     1108.34  1112.92  1119.32  1125.47  1132.16  1134.77
eigval :     1138.86  1146.05  1158.22  1170.43  1184.71  1186.18
eigval :     1186.59  1186.87  1187.03  1206.14  1218.00  1223.91
eigval :     1238.60  1244.27  1247.23  1249.40  1261.99  1262.84
eigval :     1263.68  1267.38  1289.58  1293.55  1305.54  1314.28
eigval :     1316.01  1317.90  1324.37  1333.52  1337.54  1358.74
eigval :     1380.82  1384.85  1396.20  1400.19  1405.93  1418.72
eigval :     1425.50  1435.81  1440.21  1476.16  1476.40  1477.08
eigval :     1486.43  1487.20  1488.73  1497.01  1498.46  1502.52
eigval :     1529.92  1547.95  1550.73  1559.08  1561.62  1573.61
eigval :     1585.35  1585.64  1588.03  1590.57  1592.56  1601.23
eigval :     2360.93  2361.60  3019.53  3022.13  3037.94  3039.94
eigval :     3046.62  3050.72  3071.07  3071.17  3078.46  3078.53
eigval :     3080.11  3081.67  3085.29  3085.33  3087.84  3087.93
eigval :     3089.10  3089.54  3091.40  3093.53  3097.07  3097.12
eigval :     3097.32  3098.44  3105.13  3105.26  3107.32  3108.06

   temp. (K)  partition function   enthalpy   heat capacity  entropy
                                   cal/mol     cal/K/mol   cal/K/mol   J/K/mol
 298.15  VIB  0.151E+18            21632.587    132.898    135.556
         ROT  0.512E+08              888.752      2.981     38.256
         INT  0.773E+25            22521.339    135.879    173.812
         TR   0.130E+29             1481.254      4.968     44.858
         TOT                       24002.5933   140.8471   218.6699   914.9150

       T/K    H(0)-H(T)+PV         H(T)/Eh          T*S/Eh         G(T)/Eh
   ------------------------------------------------------------------------
    298.15    0.382506E-01    0.589754E+00    0.103897E+00    0.485857E+00
   ------------------------------------------------------------------------

         :::::::::::::::::::::::::::::::::::::::::::::::::::::
         ::                  THERMODYNAMIC                  ::
         :::::::::::::::::::::::::::::::::::::::::::::::::::::
         :: total free energy        -111.142904066765 Eh   ::
         ::.................................................::
         :: total energy             -111.628760743695 Eh   ::
         :: zero point energy           0.551503245639 Eh   ::
         :: G(RRHO) w/o ZPVE           -0.065646568709 Eh   ::
         :: G(RRHO) contrib.            0.485856676930 Eh   ::
         :::::::::::::::::::::::::::::::::::::::::::::::::::::

           -------------------------------------------------
          | TOTAL ENERGY             -111.628760743695 Eh   |
          | TOTAL ENTHALPY           -111.039006930904 Eh   |
          | TOTAL FREE ENERGY        -111.142904066765 Eh   |
          | GRADIENT NORM               0.000144114964 Eh/α |
          | HOMO-LUMO GAP               1.519225985773 eV   |
           -------------------------------------------------

 * finished run on 2025/09/05 at 01:53:04.343
