   * xtb version 6.7.1 (edcfbbe) compiled by 'albert@albert-system' on 2024-07-22

   ID    Z sym.   atoms
    1    6 C      1-9, 11-22, 24, 25, 27-32, 34-44
    2    7 N      10, 23, 26, 33
    3    1 H      45-72

          program call               : xtb data2507/toluene/PyDCN–DMAC/PyDCN–DMAC_toluene_S0_finalOpt.xtbopt.xyz --gfn 2 --uhf 2 --gbsa toluene --ohess vtight --parallel 40 --molden --ceasefiles --namespace data2507/toluene/PyDCN–DMAC/PyDCN–DMAC_toluene_T1_preOpt
      * Solvation model:               GBSA
        Solvent                        toluene
        Solvent mass                       9.2140E+01 g/mol
          :  Hamiltonian                  GFN2-xTB          :
 * total energy  :  -111.5442008 Eh     change       -0.3687860E-07 Eh
 * total energy  :  -111.5467093 Eh     change       -0.2508490E-02 Eh
 * total energy  :  -111.5472261 Eh     change       -0.5168092E-03 Eh
 * total energy  :  -111.5468874 Eh     change        0.3387378E-03 Eh
 * total energy  :  -111.5474899 Eh     change       -0.6024947E-03 Eh
 * total energy  :  -111.5475314 Eh     change       -0.4147904E-04 Eh
 * total energy  :  -111.5476711 Eh     change       -0.1397414E-03 Eh
 * total energy  :  -111.5478331 Eh     change       -0.1620452E-03 Eh
 * total energy  :  -111.5480104 Eh     change       -0.1772284E-03 Eh
 * total energy  :  -111.5481855 Eh     change       -0.1751076E-03 Eh
 * total energy  :  -111.5487404 Eh     change       -0.5543728E-06 Eh
 * total energy  :  -111.5487409 Eh     change       -0.5463314E-06 Eh
 * total energy  :  -111.5487415 Eh     change       -0.5632544E-06 Eh
 * total energy  :  -111.5487421 Eh     change       -0.5890944E-06 Eh
 * total energy  :  -111.5487427 Eh     change       -0.6500022E-06 Eh
 * total energy  :  -111.5487434 Eh     change       -0.6481101E-06 Eh
 * total energy  :  -111.5487440 Eh     change       -0.6498997E-06 Eh
 * total energy  :  -111.5487447 Eh     change       -0.6266533E-06 Eh
 * total energy  :  -111.5487447 Eh     change       -0.3837457E-08 Eh
   *** GEOMETRY OPTIMIZATION CONVERGED AFTER 68 ITERATIONS ***

 final structure:
================
72
 xtb: 6.7.1 (edcfbbe)
C           -8.11771100656017       -0.64614713322542        1.08104943975119
C           -7.23305503511529       -0.00479281728223       -0.00786620560371
C           -8.11734242485670        0.63521424264778       -1.09786387160599
C           -6.38965147585228        1.07371980317984        0.63278074376776
C           -7.00505828117457        2.14489728716914        1.26662263294994
C           -6.27743425474276        3.14186528529258        1.89046629457507
C           -4.89046345804321        3.07239239920287        1.90587768819235
C           -4.25113859147098        2.02489355355377        1.28501350565412
C           -4.98385223191575        1.02361782568704        0.62555218296398
N           -4.31674456016171       -0.00299062324557       -0.00537059887862
C           -2.89235717926492       -0.00214746705113       -0.00400375980508
C           -2.19223267734592        0.86126811803892       -0.84469530129537
C           -0.81510822390849        0.86140339484442       -0.83960182908654
C           -0.09346053811157       -0.00014250865797       -0.00107377596176
C            1.36301098020759        0.00103295113390        0.00040862170809
C            2.08498791559861        1.18446564254069       -0.20298509909773
C            3.47530991657774        1.16583107881584       -0.17873994086452
C            4.29114675084831        2.35255359133937       -0.35784614303036
C            5.67070642573828        2.19858399785280       -0.59147548471833
C            6.49256653489591        3.28091432947426       -0.76847793539586
C            5.96410547768514        4.58189250041346       -0.71342142544908
C            6.79394928849306        5.69613733807640       -0.88635458565145
N            7.47465024922401        6.61649182647419       -1.02867041123151
C            4.58963043743822        4.74989457023472       -0.47495564267656
C            3.77602217960162        3.65817958293152       -0.30219026950822
N            4.11773889226804        0.00339267268670        0.00287247844464
C            3.47696971375918       -1.16010978494732        0.18358739137128
C            4.29451368932856       -2.34530676600954        0.36491245419095
C            3.78174105639535       -3.65187297253394        0.30950599507095
C            4.59679263982473       -4.74200436581514        0.48541972662691
C            5.97043670837450       -4.57140136429523        0.72682084575196
C            6.80162391300771       -5.68399955659872        0.90378655741604
N            7.48339394545387       -6.60300122585652        1.04971823531937
C            6.49664227517333       -3.26947818591893        0.78117971342315
C            5.67336291836196       -2.18875417387196        0.60104375799583
C            2.08662938178584       -1.18113316931126        0.20526726995174
C           -0.81561401130741       -0.86274953139103        0.83592360685001
C           -2.19275786280956       -0.86460399842024        0.83810490419370
C           -4.98149989145278       -1.03025208713114       -0.63769926294141
C           -4.24640434079737       -2.03044578349184       -1.29614730371763
C           -4.88336207227383       -3.07855485234661       -1.91841400184599
C           -6.27027073209879       -3.14975082122806       -1.90539507638299
C           -7.00021048571165       -2.15386329641854       -1.28253117572013
C           -6.38722432008387       -1.08206266245395       -0.64740132871115
H           -7.49435487567112       -1.09860300559588        1.84989593115626
H           -8.75314331552578        0.09975364537074        1.54834102855885
H           -8.75308357336311       -1.41658137239466        0.65536573532836
H           -8.75119846674419       -0.11160361470603       -1.56582559655398
H           -7.49373127407693        1.08848192893070       -1.86602448896244
H           -8.75430670583030        1.40478281553554       -0.67300261588327
H           -8.08151405390354        2.20749033042001        1.27887723984615
H           -6.78704283174036        3.96247565865330        2.37132817698548
H           -4.31081275680009        3.83383959480465        2.40461375730302
H           -3.17490876141573        1.96714186157757        1.30794718974734
H           -2.73742828745518        1.52038826664793       -1.50422918618781
H           -0.28455782483169        1.51468543924467       -1.51524313175634
H            1.56541872485758        2.11576912630624       -0.35383932583439
H            6.07000288917799        1.19643222360340       -0.63744810929263
H            7.54973585664061        3.14725184393518       -0.95060853062242
H            4.18410931166354        5.75067706192382       -0.42379314884881
H            2.72842675800617        3.82190383028884       -0.10122039405543
H            2.73487670771564       -3.81760483631632        0.10637286043210
H            4.19306565315052       -5.74353252978586        0.43461719729448
H            7.55320134880803       -3.13382457977119        0.96537413835494
H            6.07089043026591       -1.18587598874905        0.64655248058977
H            1.56838726730003       -2.11329515578136        0.35538850156575
H           -0.28555893434732       -1.51529318955690        1.51266841597185
H           -2.73838969380900       -1.52449528179657        1.49650730764872
H           -3.17020785601302       -1.97133792272624       -1.31721057795076
H           -4.30192028175659       -3.83913198866801       -2.41639273381982
H           -6.77804219589688       -3.97086373066849       -2.38733630605818
H           -8.07656466037109       -2.21783390360241       -1.29660613772464

          :  Hamiltonian                  GFN2-xTB          :
         :: gradient norm              0.000051217642 Eh/a0 ::
         :: HOMO-LUMO gap              0.105630922600 eV    ::
         :: SCC energy              -113.660386852212 Eh    ::
         :: -> dispersion             -0.095795061635 Eh    ::
         :: -> Gsolv                  -0.066533562965 Eh    ::
         :: repulsion energy           2.111642177686 Eh    ::

    * Orbital Energies and Occupations

         #    Occupation            Energy/Eh            Energy/eV
      -------------------------------------------------------------
         1        2.0000           -0.6986953             -19.0125
       ...           ...                  ...                  ...
        93        2.0000           -0.4220251             -11.4839
        94        2.0000           -0.4214849             -11.4692
        95        2.0000           -0.4173657             -11.3571
        96        2.0000           -0.4126656             -11.2292
        97        2.0000           -0.4126542             -11.2289
        98        2.0000           -0.4120971             -11.2137
        99        2.0000           -0.4114275             -11.1955
       100        2.0000           -0.4045082             -11.0072
       101        2.0000           -0.3988118             -10.8522
       102        2.0000           -0.3853323             -10.4854
       103        1.5971           -0.3754686             -10.2170
       104        1.4029           -0.3747210             -10.1967
       105        0.8852           -0.2827287              -7.6934 (HOMO)
       106        0.1148           -0.2788468              -7.5878 (LUMO)
       107                         -0.2595094              -7.0616
       108                         -0.2535177              -6.8986
       109                         -0.2438304              -6.6350
       110                         -0.2437194              -6.6319
       111                         -0.2388712              -6.5000
       112                         -0.2266251              -6.1668
       113                         -0.2262870              -6.1576
       114                         -0.2203294              -5.9955
       115                         -0.2195855              -5.9752
       116                         -0.2140263              -5.8240
       ...                                ...                  ...
       204                          1.1649624              31.7002
      -------------------------------------------------------------
                  HL-Gap            0.0038819 Eh            0.1056 eV

     #   Z          covCN         q      C6AA      α(0)
     1   6 C        3.761    -0.109    22.628     6.781
     2   6 C        3.909     0.026    20.081     6.369
     3   6 C        3.761    -0.109    22.628     6.781
     4   6 C        2.978     0.004    27.936     8.670
     5   6 C        2.924    -0.030    28.751     8.793
     6   6 C        2.917    -0.025    28.637     8.775
     7   6 C        2.917    -0.025    28.616     8.772
     8   6 C        2.922    -0.044    29.097     8.846
     9   6 C        2.930     0.061    26.627     8.462
    10   7 N        2.754     0.001    21.254     6.847
    11   6 C        2.930     0.044    27.011     8.523
    12   6 C        2.916    -0.038    28.933     8.821
    13   6 C        2.923    -0.035    28.875     8.812
    14   6 C        2.974     0.008    27.830     8.653
    15   6 C        2.974     0.004    27.920     8.667
    16   6 C        2.923    -0.055    29.362     8.886
    17   6 C        2.922     0.084    26.136     8.384
    18   6 C        2.976    -0.001    28.044     8.687
    19   6 C        2.924    -0.031    28.769     8.796
    20   6 C        2.921    -0.026    28.650     8.777
    21   6 C        2.971    -0.003    28.095     8.694
    22   6 C        1.911     0.109    28.412     8.608
    23   7 N        0.911    -0.318    28.170     7.676
    24   6 C        2.922    -0.027    28.678     8.782
    25   6 C        2.919    -0.038    28.938     8.821
    26   7 N        1.858    -0.233    26.956     7.695
    27   6 C        2.922     0.084    26.136     8.384
    28   6 C        2.976    -0.001    28.044     8.687
    29   6 C        2.919    -0.038    28.938     8.821
    30   6 C        2.922    -0.027    28.678     8.782
    31   6 C        2.971    -0.003    28.095     8.694
    32   6 C        1.911     0.109    28.412     8.608
    33   7 N        0.911    -0.318    28.171     7.676
    34   6 C        2.921    -0.026    28.650     8.778
    35   6 C        2.924    -0.031    28.769     8.796
    36   6 C        2.922    -0.055    29.362     8.886
    37   6 C        2.923    -0.035    28.874     8.812
    38   6 C        2.916    -0.038    28.933     8.821
    39   6 C        2.930     0.061    26.627     8.462
    40   6 C        2.922    -0.044    29.097     8.846
    41   6 C        2.917    -0.025    28.616     8.772
    42   6 C        2.917    -0.025    28.637     8.775
    43   6 C        2.924    -0.030    28.751     8.793
    44   6 C        2.978     0.004    27.936     8.670
    45   1 H        0.925     0.040     2.447     2.446
    46   1 H        0.925     0.055     2.258     2.350
    47   1 H        0.925     0.055     2.255     2.348
    48   1 H        0.925     0.055     2.258     2.350
    49   1 H        0.925     0.040     2.447     2.446
    50   1 H        0.925     0.055     2.255     2.348
    51   1 H        0.926     0.056     2.244     2.343
    52   1 H        0.926     0.050     2.322     2.383
    53   1 H        0.926     0.048     2.348     2.396
    54   1 H        0.926     0.049     2.334     2.389
    55   1 H        0.926     0.045     2.377     2.411
    56   1 H        0.926     0.043     2.411     2.428
    57   1 H        0.926     0.043     2.415     2.430
    58   1 H        0.926     0.043     2.415     2.430
    59   1 H        0.926     0.028     2.613     2.528
    60   1 H        0.926     0.029     2.594     2.519
    61   1 H        0.926     0.037     2.490     2.467
    62   1 H        0.926     0.037     2.490     2.468
    63   1 H        0.926     0.029     2.594     2.519
    64   1 H        0.926     0.028     2.613     2.528
    65   1 H        0.926     0.043     2.415     2.430
    66   1 H        0.926     0.043     2.415     2.430
    67   1 H        0.926     0.043     2.411     2.428
    68   1 H        0.926     0.045     2.377     2.411
    69   1 H        0.926     0.049     2.334     2.389
    70   1 H        0.926     0.048     2.348     2.396
    71   1 H        0.926     0.050     2.322     2.383
    72   1 H        0.926     0.056     2.244     2.343

molecular dipole:
                 x           y           z       tot (Debye)
 q only:      -12.012      -0.009      -0.016
   full:      -12.509      -0.010      -0.017      31.796

 projected vibrational frequencies (cm⁻¹)
eigval :       -0.00    -0.00    -0.00     0.00     0.00     0.00
eigval :        8.38    11.63    16.02    24.09    32.35    33.18
eigval :       41.09    43.19    50.30    59.02    61.86    79.42
eigval :       91.71   100.86   106.91   113.40   123.08   134.07
eigval :      138.02   142.21   166.39   194.07   200.39   212.62
eigval :      214.12   221.19   228.99   231.10   243.37   263.16
eigval :      293.52   299.98   318.77   323.88   338.96   351.15
eigval :      364.01   365.73   374.27   379.34   379.50   390.49
eigval :      391.47   410.36   413.03   422.13   446.32   476.56
eigval :      497.72   503.99   504.22   507.65   516.23   521.11
eigval :      529.57   536.91   539.60   544.85   546.70   555.09
eigval :      562.32   580.91   592.76   609.31   614.07   614.54
eigval :      616.00   636.64   661.92   666.49   667.45   687.13
eigval :      689.31   704.56   723.99   730.73   766.63   772.58
eigval :      774.89   781.10   791.21   799.86   806.52   812.55
eigval :      826.65   835.04   845.31   846.01   856.79   858.40
eigval :      871.24   871.52   899.17   899.57   905.60   912.84
eigval :      912.99   913.18   914.39   917.81   918.13   920.31
eigval :      925.27   926.01   936.00   952.91   958.79   990.66
eigval :      996.71  1006.56  1010.94  1057.07  1070.76  1082.71
eigval :     1087.90  1102.52  1103.62  1107.81  1121.42  1132.81
eigval :     1135.00  1136.32  1139.28  1152.91  1164.82  1177.83
eigval :     1179.91  1180.62  1187.89  1201.84  1205.05  1222.82
eigval :     1234.56  1236.48  1240.50  1240.92  1252.82  1262.00
eigval :     1264.44  1266.71  1289.10  1291.34  1300.60  1305.13
eigval :     1310.54  1316.13  1323.12  1328.52  1329.69  1336.00
eigval :     1341.97  1372.41  1384.06  1396.77  1397.43  1407.20
eigval :     1412.42  1415.02  1419.59  1422.51  1425.28  1448.82
eigval :     1458.27  1467.55  1467.85  1472.94  1478.83  1479.81
eigval :     1488.03  1489.73  1491.22  1493.99  1508.67  1541.84
eigval :     1553.28  1560.28  1563.79  1572.75  1583.94  1593.26
eigval :     2285.66  2308.03  3029.84  3031.56  3052.84  3054.81
eigval :     3059.73  3063.74  3070.59  3070.78  3072.53  3072.73
eigval :     3081.59  3083.29  3088.59  3088.75  3089.05  3089.33
eigval :     3090.84  3090.90  3094.75  3096.29  3096.45  3096.95
eigval :     3105.97  3106.29  3107.46  3107.81  3114.41  3114.81

   temp. (K)  partition function   enthalpy   heat capacity  entropy
                                   cal/mol     cal/K/mol   cal/K/mol   J/K/mol
 298.15  VIB  0.370E+18            21930.884    134.741    137.566
         ROT  0.512E+08              888.752      2.981     38.259
         INT  0.190E+26            22819.636    137.722    175.824
         TR   0.130E+29             1481.254      4.968     44.858
         TOT                       24300.8902   142.6904   220.6820   923.3335

       T/K    H(0)-H(T)+PV         H(T)/Eh          T*S/Eh         G(T)/Eh
   ------------------------------------------------------------------------
    298.15    0.387259E-01    0.585548E+00    0.104853E+00    0.480694E+00
   ------------------------------------------------------------------------

         :::::::::::::::::::::::::::::::::::::::::::::::::::::
         ::                  THERMODYNAMIC                  ::
         :::::::::::::::::::::::::::::::::::::::::::::::::::::
         :: total free energy        -111.068050268699 Eh   ::
         ::.................................................::
         :: total energy             -111.548744674914 Eh   ::
         :: zero point energy           0.546821608489 Eh   ::
         :: G(RRHO) w/o ZPVE           -0.066127202273 Eh   ::
         :: G(RRHO) contrib.            0.480694406216 Eh   ::
         :::::::::::::::::::::::::::::::::::::::::::::::::::::

           -------------------------------------------------
          | TOTAL ENERGY             -111.548744674914 Eh   |
          | TOTAL ENTHALPY           -110.963197132938 Eh   |
          | TOTAL FREE ENERGY        -111.068050268699 Eh   |
          | GRADIENT NORM               0.000052443161 Eh/α |
          | HOMO-LUMO GAP               0.105631802006 eV   |
           -------------------------------------------------

 * finished run on 2025/09/05 at 01:53:12.540
