   * xtb version 6.7.1 (edcfbbe) compiled by 'albert@albert-system' on 2024-07-22

   ID    Z sym.   atoms
    1    6 C      1-9, 11-22, 24, 25, 27-32, 34-44
    2    7 N      10, 23, 26, 33
    3    1 H      45-72

          program call               : xtb data2507/toluene/PyDCN–DMAC/PyDCN–DMAC_toluene_T1_crest.xyz --gfn 2 --uhf 2 --gbsa toluene --ohess vtight --parallel 40 --molden --ceasefiles --namespace data2507/toluene/PyDCN–DMAC/PyDCN–DMAC_toluene_T1_finalOpt
      * Solvation model:               GBSA
        Solvent                        toluene
        Solvent mass                       9.2140E+01 g/mol
          :  Hamiltonian                  GFN2-xTB          :
 * total energy  :  -111.5484190 Eh     change       -0.2761431E-07 Eh
 * total energy  :  -111.5485970 Eh     change       -0.1780200E-03 Eh
 * total energy  :  -111.5486366 Eh     change       -0.3959453E-04 Eh
 * total energy  :  -111.5486497 Eh     change       -0.1306719E-04 Eh
 * total energy  :  -111.5486560 Eh     change       -0.6332324E-05 Eh
 * total energy  :  -111.5486608 Eh     change       -0.4758250E-05 Eh
 * total energy  :  -111.5486683 Eh     change       -0.7525694E-05 Eh
 * total energy  :  -111.5486696 Eh     change       -0.1282701E-05 Eh
 * total energy  :  -111.5486769 Eh     change       -0.7299602E-05 Eh
 * total energy  :  -111.5486803 Eh     change       -0.3462034E-05 Eh
 * total energy  :  -111.5487260 Eh     change       -0.4265634E-05 Eh
 * total energy  :  -111.5487246 Eh     change        0.1402234E-05 Eh
 * total energy  :  -111.5487270 Eh     change       -0.2385532E-05 Eh
 * total energy  :  -111.5487269 Eh     change        0.1185831E-06 Eh
 * total energy  :  -111.5487274 Eh     change       -0.5534279E-06 Eh
 * total energy  :  -111.5487273 Eh     change        0.8048583E-07 Eh
 * total energy  :  -111.5487276 Eh     change       -0.2145503E-06 Eh
 * total energy  :  -111.5487275 Eh     change        0.3868379E-07 Eh
 * total energy  :  -111.5487276 Eh     change       -0.6361817E-07 Eh
   *** GEOMETRY OPTIMIZATION CONVERGED AFTER 53 ITERATIONS ***

 final structure:
================
72
 xtb: 6.7.1 (edcfbbe)
C           -8.12070174874859       -1.06105109018035        0.69411000276307
C           -7.23589190217579        0.00003097133377        0.00794291770562
C           -8.12027302274561        1.06203925499748       -0.67734953981794
C           -6.39044641051285        0.68207759985003        1.05947089577331
C           -7.00207453124791        1.36030961637796        2.10525634454335
C           -6.27022573095383        2.00925037091549        3.08311372295022
C           -4.88257586690336        1.99802292055892        3.02482107198363
C           -4.24673685193519        1.33489171057389        2.00142150770346
C           -4.98466066463997        0.66181466017204        1.01335841153598
N           -4.32098809419045       -0.00138353668527        0.00645003501225
C           -2.89471326227696       -0.00142033244991        0.00516260787178
C           -2.19699095431485        0.90752406282435       -0.78673899348167
C           -0.81958555544718        0.90779060460435       -0.78313355875470
C           -0.09607511219986       -0.00122842525913        0.00177704010508
C            1.36034502120252       -0.00118288296004       -0.00009379001209
C            2.08348617014180        1.18599179236371       -0.17810912116656
C            3.47409034658224        1.16478816071079       -0.17037553880663
C            4.28948957175719        2.35803739912949       -0.29982300071764
C            5.66776811649471        2.27112033867468       -0.02649444255860
C            6.48836565282266        3.36426410451607       -0.12532588440997
C            5.96032346961057        4.60759973070819       -0.51293945791878
C            6.78726594646658        5.73272515613390       -0.61528080205673
N            7.46498719458024        6.66240879769929       -0.69870345546504
C            4.58823584956850        4.70609373995920       -0.79923523014994
C            3.77589072481823        3.60492814611549       -0.69363045262464
N            4.11585911120895       -0.00059631483085       -0.00491542945887
C            3.47512400189449       -1.16601594998080        0.16315071768404
C            4.29163773633972       -2.35898614585706        0.28995694438103
C            3.78117087789005       -3.60412654525611        0.69302081834687
C            4.59430124027260       -4.70498975845135        0.79630323835674
C            5.96391149997576       -4.60776357650634        0.49808445752631
C            6.79172466196234       -5.73252379565128        0.59804534996457
N            7.47010185531843       -6.66186440419593        0.67968109963659
C            6.48882207221889       -3.36609565230514        0.10108877438230
C            5.66751594301622       -2.27320893393541        0.00479454623791
C            2.08460452104522       -1.18815583758405        0.17578873861230
C           -0.81763718611460       -0.91021335541439        0.78846063657152
C           -2.19506238637941       -0.91038065103497        0.79534489180755
C           -4.98635095860694       -0.66396884435510       -0.99976520110584
C           -4.25009654763874       -1.33769610912042       -1.98864018820267
C           -4.88762047227668       -2.00025067233552       -3.01135479507100
C           -6.27533891728940       -2.01021432101269       -3.06816819307392
C           -7.00555314166851       -1.36057421648586       -2.08955385128251
C           -6.39219943635594       -0.68290760957183       -1.04441269990756
H           -7.49744400843786       -1.81270916887854        1.17465966227727
H           -8.75284153412442       -0.60409025151247        1.44914339078149
H           -8.75929381647252       -1.55584662623910       -0.03104256748924
H           -8.75357460599161        0.60574057341392       -1.43181211162252
H           -7.49672857754706        1.81310344624990       -1.15845741367290
H           -8.75769326802486        1.55744190616960        0.04842154437149
H           -8.07853960863953        1.38760189503962        2.16338242919489
H           -6.77716727278247        2.52569311252884        3.88350840624387
H           -4.29998971531405        2.50829827159253        3.77632154664747
H           -3.16964561933633        1.33139051006773        1.95259729282271
H           -2.74333324811718        1.60675116046352       -1.40250113740137
H           -0.29135000971835        1.60255855016354       -1.41776438647375
H            1.56521940198980        2.12669972828584       -0.25886833819090
H            6.06691076561309        1.31455229507674        0.27593201935700
H            7.54403989476098        3.28337293990230        0.09273767730023
H            4.18304591066193        5.66011438815287       -1.10631264219560
H            2.72921969078901        3.71177392929201       -0.93336007364672
H            2.73659603804151       -3.70954118532599        0.94239531179458
H            4.19165374009452       -5.65770925826779        1.11068191176031
H            7.54263454901050       -3.28620512027299       -0.12615878955500
H            6.06425717379011       -1.31789518920853       -0.30467242767219
H            1.56724429303325       -2.12924821806492        0.25806369456586
H           -0.28772756364468       -1.60491116781584        1.42178283698425
H           -2.73981261389659       -1.60981148332416        1.41226680490645
H           -3.17295564284450       -1.33516713011652       -1.94100993263689
H           -4.30627435141166       -2.51102354481301       -3.76347535931826
H           -6.78358984169174       -2.52622161669845       -3.86801263403502
H           -8.08210204315428       -1.38682499135876       -2.14656039131261

          :  Hamiltonian                  GFN2-xTB          :
         :: gradient norm              0.000079146662 Eh/a0 ::
         :: HOMO-LUMO gap              0.105803674728 eV    ::
         :: SCC energy              -113.660465156687 Eh    ::
         :: -> dispersion             -0.095779393124 Eh    ::
         :: -> Gsolv                  -0.066272955783 Eh    ::
         :: repulsion energy           2.111737524242 Eh    ::

    * Orbital Energies and Occupations

         #    Occupation            Energy/Eh            Energy/eV
      -------------------------------------------------------------
         1        2.0000           -0.6984986             -19.0071
       ...           ...                  ...                  ...
        93        2.0000           -0.4224881             -11.4965
        94        2.0000           -0.4217582             -11.4766
        95        2.0000           -0.4172687             -11.3545
        96        2.0000           -0.4128744             -11.2349
        97        2.0000           -0.4128054             -11.2330
        98        2.0000           -0.4123319             -11.2201
        99        2.0000           -0.4115329             -11.1984
       100        2.0000           -0.4043919             -11.0041
       101        2.0000           -0.3987154             -10.8496
       102        2.0000           -0.3855561             -10.4915
       103        1.5881           -0.3754400             -10.2162
       104        1.4119           -0.3747632             -10.1978
       105        0.8856           -0.2830705              -7.7027 (HOMO)
       106        0.1144           -0.2791822              -7.5969 (LUMO)
       107                         -0.2599932              -7.0748
       108                         -0.2533147              -6.8930
       109                         -0.2435878              -6.6284
       110                         -0.2435828              -6.6282
       111                         -0.2388175              -6.4986
       112                         -0.2268694              -6.1734
       113                         -0.2265020              -6.1634
       114                         -0.2198047              -5.9812
       115                         -0.2185999              -5.9484
       116                         -0.2149908              -5.8502
       ...                                ...                  ...
       204                          1.1648815              31.6980
      -------------------------------------------------------------
                  HL-Gap            0.0038883 Eh            0.1058 eV

     #   Z          covCN         q      C6AA      α(0)
     1   6 C        3.761    -0.109    22.628     6.781
     2   6 C        3.909     0.026    20.080     6.369
     3   6 C        3.761    -0.109    22.628     6.781
     4   6 C        2.978     0.004    27.939     8.670
     5   6 C        2.924    -0.030    28.751     8.793
     6   6 C        2.917    -0.025    28.638     8.776
     7   6 C        2.917    -0.024    28.614     8.772
     8   6 C        2.922    -0.044    29.096     8.846
     9   6 C        2.930     0.062    26.619     8.461
    10   7 N        2.755    -0.000    21.273     6.850
    11   6 C        2.931     0.044    27.011     8.523
    12   6 C        2.916    -0.038    28.939     8.821
    13   6 C        2.924    -0.035    28.874     8.812
    14   6 C        2.974     0.008    27.844     8.655
    15   6 C        2.974     0.004    27.927     8.668
    16   6 C        2.923    -0.055    29.356     8.885
    17   6 C        2.922     0.084    26.136     8.384
    18   6 C        2.976    -0.001    28.042     8.686
    19   6 C        2.924    -0.031    28.767     8.796
    20   6 C        2.920    -0.026    28.648     8.777
    21   6 C        2.971    -0.003    28.090     8.694
    22   6 C        1.911     0.109    28.410     8.608
    23   7 N        0.911    -0.317    28.159     7.675
    24   6 C        2.922    -0.027    28.676     8.782
    25   6 C        2.919    -0.038    28.933     8.821
    26   7 N        1.858    -0.233    26.953     7.695
    27   6 C        2.922     0.084    26.135     8.383
    28   6 C        2.976    -0.001    28.040     8.686
    29   6 C        2.919    -0.037    28.932     8.821
    30   6 C        2.922    -0.027    28.676     8.782
    31   6 C        2.971    -0.003    28.088     8.693
    32   6 C        1.911     0.109    28.409     8.608
    33   7 N        0.911    -0.317    28.154     7.674
    34   6 C        2.920    -0.026    28.647     8.777
    35   6 C        2.924    -0.031    28.766     8.796
    36   6 C        2.922    -0.055    29.358     8.886
    37   6 C        2.924    -0.035    28.874     8.812
    38   6 C        2.916    -0.038    28.939     8.821
    39   6 C        2.930     0.062    26.619     8.461
    40   6 C        2.922    -0.044    29.096     8.846
    41   6 C        2.917    -0.024    28.614     8.772
    42   6 C        2.917    -0.025    28.638     8.775
    43   6 C        2.924    -0.030    28.751     8.793
    44   6 C        2.978     0.004    27.939     8.670
    45   1 H        0.925     0.040     2.447     2.446
    46   1 H        0.925     0.055     2.256     2.349
    47   1 H        0.925     0.055     2.257     2.349
    48   1 H        0.925     0.055     2.256     2.349
    49   1 H        0.925     0.040     2.447     2.446
    50   1 H        0.925     0.055     2.257     2.349
    51   1 H        0.926     0.056     2.245     2.343
    52   1 H        0.926     0.050     2.322     2.383
    53   1 H        0.926     0.048     2.348     2.396
    54   1 H        0.926     0.048     2.341     2.392
    55   1 H        0.926     0.045     2.386     2.415
    56   1 H        0.926     0.042     2.418     2.432
    57   1 H        0.926     0.043     2.411     2.428
    58   1 H        0.926     0.043     2.411     2.428
    59   1 H        0.926     0.028     2.610     2.526
    60   1 H        0.926     0.030     2.592     2.518
    61   1 H        0.926     0.037     2.491     2.468
    62   1 H        0.926     0.037     2.490     2.468
    63   1 H        0.926     0.030     2.591     2.517
    64   1 H        0.926     0.028     2.609     2.526
    65   1 H        0.926     0.043     2.411     2.428
    66   1 H        0.926     0.043     2.412     2.429
    67   1 H        0.926     0.042     2.418     2.432
    68   1 H        0.926     0.045     2.385     2.415
    69   1 H        0.926     0.048     2.341     2.392
    70   1 H        0.926     0.048     2.348     2.396
    71   1 H        0.926     0.050     2.322     2.383
    72   1 H        0.926     0.056     2.245     2.343

molecular dipole:
                 x           y           z       tot (Debye)
 q only:      -11.924      -0.007       0.016
   full:      -12.419      -0.007       0.016      31.566

 projected vibrational frequencies (cm⁻¹)
eigval :       -0.00    -0.00    -0.00     0.00     0.00     0.00
eigval :       10.94    13.53    19.00    28.54    31.59    32.13
eigval :       38.59    41.35    41.91    62.81    67.14    76.99
eigval :       92.52    99.93   112.68   114.71   123.46   136.45
eigval :      136.88   145.79   169.15   193.40   201.86   210.56
eigval :      216.62   223.39   229.96   235.67   241.93   256.12
eigval :      292.48   301.47   324.13   327.22   338.34   355.15
eigval :      367.29   369.82   371.13   376.15   380.42   389.02
eigval :      398.00   407.43   412.37   421.68   446.31   476.48
eigval :      498.44   503.63   508.21   514.13   516.04   521.75
eigval :      527.21   537.65   540.39   545.37   546.73   559.56
eigval :      562.48   580.53   592.64   611.50   613.97   615.00
eigval :      616.26   631.63   662.08   668.77   669.49   686.05
eigval :      689.35   704.56   724.19   730.81   767.34   772.23
eigval :      774.45   781.42   792.88   803.92   808.38   810.09
eigval :      826.34   835.00   848.44   850.42   856.77   858.44
eigval :      871.62   871.80   903.74   904.63   906.75   913.01
eigval :      913.30   915.78   917.22   917.56   918.46   919.76
eigval :      924.49   925.08   936.24   953.35   959.34   990.58
eigval :      996.60  1006.81  1011.22  1056.87  1070.77  1082.92
eigval :     1087.63  1096.93  1102.92  1107.11  1120.60  1132.02
eigval :     1134.84  1136.63  1139.38  1152.47  1165.02  1178.07
eigval :     1179.87  1180.25  1188.05  1201.30  1205.79  1221.12
eigval :     1234.10  1236.45  1240.19  1240.52  1253.87  1261.95
eigval :     1264.75  1266.52  1288.19  1291.04  1301.37  1308.00
eigval :     1311.30  1314.70  1323.23  1328.71  1330.67  1336.09
eigval :     1341.76  1371.75  1382.66  1396.48  1396.86  1407.92
eigval :     1411.75  1414.98  1419.90  1422.93  1425.54  1448.86
eigval :     1458.09  1467.19  1468.17  1474.24  1478.96  1480.37
eigval :     1487.95  1489.81  1491.18  1494.45  1511.63  1541.82
eigval :     1553.89  1559.66  1565.93  1572.69  1584.01  1593.27
eigval :     2286.36  2308.65  3030.75  3032.44  3052.62  3054.57
eigval :     3059.28  3063.10  3071.35  3071.55  3073.26  3073.46
eigval :     3081.90  3083.58  3088.95  3088.99  3089.62  3089.85
eigval :     3091.41  3091.54  3095.57  3095.96  3096.00  3097.85
eigval :     3105.59  3105.82  3107.39  3107.72  3112.88  3113.24

   temp. (K)  partition function   enthalpy   heat capacity  entropy
                                   cal/mol     cal/K/mol   cal/K/mol   J/K/mol
 298.15  VIB  0.196E+18            21885.404    134.505    136.521
         ROT  0.514E+08              888.752      2.981     38.264
         INT  0.101E+26            22774.156    137.486    174.785
         TR   0.130E+29             1481.254      4.968     44.858
         TOT                       24255.4100   142.4538   219.6423   918.9833

       T/K    H(0)-H(T)+PV         H(T)/Eh          T*S/Eh         G(T)/Eh
   ------------------------------------------------------------------------
    298.15    0.386535E-01    0.585666E+00    0.104359E+00    0.481306E+00
   ------------------------------------------------------------------------

         :::::::::::::::::::::::::::::::::::::::::::::::::::::
         ::                  THERMODYNAMIC                  ::
         :::::::::::::::::::::::::::::::::::::::::::::::::::::
         :: total free energy        -111.067421234338 Eh   ::
         ::.................................................::
         :: total energy             -111.548727629592 Eh   ::
         :: zero point energy           0.547012075808 Eh   ::
         :: G(RRHO) w/o ZPVE           -0.065705680555 Eh   ::
         :: G(RRHO) contrib.            0.481306395253 Eh   ::
         :::::::::::::::::::::::::::::::::::::::::::::::::::::

           -------------------------------------------------
          | TOTAL ENERGY             -111.548727629592 Eh   |
          | TOTAL ENTHALPY           -110.963062097507 Eh   |
          | TOTAL FREE ENERGY        -111.067421234338 Eh   |
          | GRADIENT NORM               0.000080143793 Eh/α |
          | HOMO-LUMO GAP               0.105805083766 eV   |
           -------------------------------------------------

 * finished run on 2025/09/05 at 01:58:41.205
