   * xtb version 6.7.1 (edcfbbe) compiled by 'albert@albert-system' on 2024-07-22

   ID    Z sym.   atoms
    1    6 C      1-12, 14-27, 29-37, 39-44, 46-80
    2    7 N      13, 28, 38, 45
    3    1 H      81-130

          program call               : xtb data2507/toluene/TPBPPI-PBI/TPBPPI-PBI_toluene_S0_finalOpt.xtbopt.xyz --gfn 2 --uhf 2 --gbsa toluene --ohess vtight --parallel 40 --molden --ceasefiles --namespace data2507/toluene/TPBPPI-PBI/TPBPPI-PBI_toluene_T1_preOpt
      * Solvation model:               GBSA
        Solvent                        toluene
        Solvent mass                       9.2140E+01 g/mol
          :  Hamiltonian                  GFN2-xTB          :
 * total energy  :  -199.9948622 Eh     change       -0.7386620E-07 Eh
 * total energy  :  -199.9992188 Eh     change       -0.4356586E-02 Eh
 * total energy  :  -200.0015662 Eh     change       -0.2347423E-02 Eh
 * total energy  :  -200.0022565 Eh     change       -0.6902997E-03 Eh
 * total energy  :  -200.0029344 Eh     change       -0.6778968E-03 Eh
 * total energy  :  -200.0032659 Eh     change       -0.3315344E-03 Eh
 * total energy  :  -200.0036137 Eh     change       -0.3478115E-03 Eh
 * total energy  :  -200.0038230 Eh     change       -0.2092797E-03 Eh
 * total energy  :  -200.0040402 Eh     change       -0.2171361E-03 Eh
 * total energy  :  -200.0041856 Eh     change       -0.1454292E-03 Eh
 * total energy  :  -200.0052231 Eh     change       -0.8913212E-06 Eh
 * total energy  :  -200.0052241 Eh     change       -0.9498147E-06 Eh
 * total energy  :  -200.0052251 Eh     change       -0.1044291E-05 Eh
 * total energy  :  -200.0052262 Eh     change       -0.1054661E-05 Eh
 * total energy  :  -200.0052274 Eh     change       -0.1216482E-05 Eh
 * total energy  :  -200.0052286 Eh     change       -0.1246459E-05 Eh
 * total energy  :  -200.0052300 Eh     change       -0.1334680E-05 Eh
 * total energy  :  -200.0052314 Eh     change       -0.1440624E-05 Eh
 * total energy  :  -200.0052314 Eh     change       -0.6319709E-08 Eh
   *** GEOMETRY OPTIMIZATION CONVERGED AFTER 122 ITERATIONS ***

 final structure:
================
130
 xtb: 6.7.1 (edcfbbe)
C            5.48358140592100        1.57974017698992        0.90590014342308
C            5.69287504829010        0.69071882223378       -0.13547951998780
C            4.80475730110265       -0.34618602661489       -0.35354333963563
C            3.69208837248177       -0.50945615486534        0.46799115979125
C            2.74898275067067       -1.62484793418225        0.25884846181988
C            1.38822586436358       -1.36210345626722        0.17987516415201
C            0.46063583228415       -2.37552459267413       -0.03318022882581
C           -0.96950480166129       -2.02476821945545       -0.05600308098382
C           -1.90474345943048       -2.71224297452548        0.71598615915510
C           -3.22524952186998       -2.31119682324477        0.74994774844815
C           -3.64166627521061       -1.19793756834905        0.02299197464833
C           -5.00121565105771       -0.69013205122558        0.14991324548358
N           -6.10581580221911       -1.38080851633724        0.04161043370889
C           -7.12003592934668       -0.48475072864968        0.18912461477664
C           -8.51898232954590       -0.72679646754774        0.13637635023304
C           -9.02545784265987       -2.00714850003418       -0.12137138312635
C          -10.38036103005776       -2.21634879651671       -0.19455687816615
C          -11.24871463418497       -1.14173557773209       -0.01273747503801
C          -10.76271603535720        0.12032228005923        0.24714938125230
C           -9.38651131097614        0.37410370961978        0.33772732889137
C           -8.84684800567676        1.69134812391502        0.63735155743679
C           -9.67685716913963        2.78616105757411        0.91450399330290
C           -9.16788230178159        4.02674563026842        1.22627304604578
C           -7.79204742164954        4.22605562214865        1.28604218243375
C           -6.94321705640032        3.18053908219402        1.01523211560261
C           -7.44314612806357        1.91339297167025        0.68125629637815
C           -6.60459927371455        0.79850070156328        0.40855621879009
N           -5.24297741254210        0.65285697837220        0.38151894631514
C           -4.19519727317222        1.57022943336249        0.57139247547856
C           -3.30583945148145        1.36531495015428        1.63403234677165
C           -2.15956438363757        2.10534368890465        1.73395861095477
C           -1.80386044128829        3.05149471052744        0.73877847779530
C           -0.50502617148568        3.63486336642449        0.72269112550410
C            0.09078998094081        4.09696316772018       -0.48981538816334
C            1.40307607992618        4.43295771741027       -0.56216779176501
C            2.24301004895956        4.38786949262471        0.59493815105276
C            3.62306051205757        4.60341443046914        0.58433555700136
N            4.32350989397786        4.90240703728835        1.69987927123124
C            5.57877977146958        5.14398514809609        1.30598157265521
C            6.70590196501307        5.50292381401945        2.06191535246316
C            7.90393854020491        5.64666849221116        1.40112010774023
C            8.01406105208316        5.43889001880543        0.02088228841634
C            6.91618821484790        5.09302004291498       -0.75439488123317
C            5.70141139876994        4.96459352209242       -0.10988354171883
N            4.44997328074868        4.61785015408173       -0.55034712809667
C            4.16909081639006        4.09191989192707       -1.82091071071592
C            4.50889049774123        4.81056652683221       -2.96361796216413
C            4.25575892716707        4.27408585761762       -4.21341852552064
C            3.66529911220070        3.02639504054532       -4.33221986309750
C            3.32737817378193        2.31123998765198       -3.19352663582624
C            3.57945553346050        2.83447631054177       -1.94020230011881
C            1.59835129218320        4.12022561254789        1.84625471301197
C            0.30310519371036        3.72766935434416        1.89896943115599
C           -2.76465337778416        3.30160825120111       -0.27614519667896
C           -3.93222280547922        2.58960182593940       -0.35407127785381
C           -2.72022568253890       -0.54263761786471       -0.79376426304679
C           -1.40371793791980       -0.94857127379730       -0.82749775047695
C            0.90748372704404       -3.69290995030355       -0.18770205660602
C           -0.05756482944341       -4.77721282477568       -0.46069982507134
C           -0.13762129930424       -5.89117075532696        0.36952971610015
C           -1.04521024783927       -6.89958842311199        0.10283476172251
C           -1.88119241571009       -6.81156580530986       -0.99806683439990
C           -1.80893039049025       -5.70594058395489       -1.82905082879099
C           -0.90549776887977       -4.69417151705644       -1.56143012250412
C            2.27552565776875       -3.97103009221920       -0.10233186576370
C            2.75053168660826       -5.36378522049703       -0.25719792077911
C            3.44052735585478       -5.99379394970659        0.77329581388183
C            3.88077404373547       -7.29645478321792        0.62762322376215
C            3.64211707082386       -7.98422486364337       -0.55052051107926
C            2.95848997176569       -7.36309038004718       -1.58242853891059
C            2.51243377231454       -6.06248331365117       -1.43628757869315
C            3.19790153689352       -2.94542292395880        0.12831684275154
C            4.63608833523957       -3.26054748646500        0.25313049090923
C            5.32430766499630       -2.92720861209240        1.41597834666697
C            6.66727838287025       -3.22836823534545        1.54689742315880
C            7.34231898406582       -3.86014256826740        0.51563940520766
C            6.66662644806431       -4.18973550015823       -0.64759391702293
C            5.32184162887418       -3.89567299739227       -0.77763897762182
C            3.47313086960493        0.40987084709685        1.49112890642965
C            4.36568603270326        1.44359039679563        1.71179099802145
H            6.18541434642408        2.38147634853901        1.08692458317991
H            6.55314465053782        0.80620920999347       -0.77914301245287
H            4.97002514387311       -1.03109750800100       -1.17169272204386
H            1.04007827362726       -0.34494408629974        0.29308884040693
H           -1.58760022010770       -3.55084947397129        1.31691753835156
H           -3.94119409470633       -2.83521892490194        1.36512464681900
H           -8.31801212493406       -2.80976455713573       -0.26414707674833
H          -10.77325269288917       -3.20208612334520       -0.39517212759455
H          -12.31574929480627       -1.29936684862117       -0.07495636100336
H          -11.47303189233703        0.92082548058275        0.37777510221866
H          -10.74790216033724        2.66670568889590        0.89574254138511
H           -9.84042416322422        4.84597973325365        1.43384942338073
H           -7.39280735533709        5.19532921023380        1.54553142472221
H           -5.87575395115787        3.32741921086548        1.07089441762029
H           -3.53036219076340        0.60056723576752        2.36374312123233
H           -1.47884893920339        1.90364420650196        2.54505754646881
H           -0.50434775922544        4.13073690749845       -1.38929369778935
H            1.81633709637830        4.77011169104832       -1.50004840034180
H            6.61737196064505        5.65014131329237        3.12654005127890
H            8.78894959556304        5.91968234755837        1.95730114809193
H            8.97859994281525        5.54904404452671       -0.45181160366282
H            7.01509993752517        4.92157186665380       -1.81550496790665
H            4.95110485079587        5.79122329431449       -2.86572779725468
H            4.51684554925925        4.83708453056343       -5.09729404482217
H            3.46872138292872        2.61263552276993       -5.30971418355112
H            2.87161052628120        1.33625327090268       -3.27950372448855
H            3.33177169317994        2.27931361014008       -1.04825949998037
H            2.19949497785115        4.20416843892199        2.73783025276146
H           -0.14541232550526        3.51579963434635        2.85769261051536
H           -2.57816532287115        4.07694148395172       -1.00244094216509
H           -4.64124247217738        2.77998704195187       -1.14808561361555
H           -3.03866416565826        0.28390503745480       -1.41091943369146
H           -0.70079089961179       -0.42830402648248       -1.46167865804960
H            0.50683433458188       -5.95912737606073        1.23406553339949
H           -1.09953773729998       -7.75827072975981        0.75654969544754
H           -2.58783619925090       -7.60151313577039       -1.20676588974025
H           -2.45889787148110       -5.63138765150814       -2.68907069548343
H           -0.84615745841304       -3.83506736806764       -2.21456751870156
H            3.62287261942814       -5.46097317298616        1.69568795223106
H            4.41261943169801       -7.77640438347154        1.43663503644202
H            3.98786857594248       -9.00144930006889       -0.66407120744347
H            2.77061939437625       -7.89424027558299       -2.50454590441161
H            1.98226972567481       -5.57827290573459       -2.24405634211034
H            4.79810766076605       -2.43802356871410        2.22348970672222
H            7.18899474167244       -2.96856123885824        2.45689298821611
H            8.39214215617647       -4.09381375518164        0.61786693742691
H            7.18898344704977       -4.67994130505852       -1.45660258618618
H            4.79902849252760       -4.14873965430656       -1.68883550412605
H            2.60984995174249        0.29799565934439        2.13174775185867
H            4.19144107329280        2.14936392909768        2.51070206563096

          :  Hamiltonian                  GFN2-xTB          :
         :: gradient norm              0.000069206699 Eh/a0 ::
         :: HOMO-LUMO gap              0.527469692024 eV    ::
         :: SCC energy              -203.806957348617 Eh    ::
         :: -> dispersion             -0.210803807930 Eh    ::
         :: -> Gsolv                  -0.078179674352 Eh    ::
         :: repulsion energy           3.801725928095 Eh    ::

    * Orbital Energies and Occupations

         #    Occupation            Energy/Eh            Energy/eV
      -------------------------------------------------------------
         1        2.0000           -0.6949333             -18.9101
       ...           ...                  ...                  ...
       176        2.0000           -0.3992562             -10.8643
       177        2.0000           -0.3976562             -10.8208
       178        2.0000           -0.3968559             -10.7990
       179        2.0000           -0.3932163             -10.7000
       180        2.0000           -0.3875957             -10.5470
       181        2.0000           -0.3870149             -10.5312
       182        2.0000           -0.3831921             -10.4272
       183        2.0000           -0.3827862             -10.4161
       184        2.0000           -0.3792070             -10.3187
       185        2.0000           -0.3787404             -10.3060
       186        1.9384           -0.3701125             -10.0713
       187        1.0617           -0.3649393              -9.9305
       188        1.0000           -0.2846847              -7.7467 (HOMO)
       189        0.0000           -0.2653001              -7.2192 (LUMO)
       190                         -0.2559932              -6.9659
       191                         -0.2537356              -6.9045
       192                         -0.2482580              -6.7554
       193                         -0.2443079              -6.6480
       194                         -0.2374063              -6.4602
       195                         -0.2346254              -6.3845
       196                         -0.2340973              -6.3701
       197                         -0.2324835              -6.3262
       198                         -0.2295831              -6.2473
       199                         -0.2257633              -6.1433
       ...                                ...                  ...
       370                          0.7222980              19.6547
      -------------------------------------------------------------
                  HL-Gap            0.0193846 Eh            0.5275 eV

     #   Z          covCN         q      C6AA      α(0)
     1   6 C        2.920    -0.029    28.717     8.788
     2   6 C        2.918    -0.030    28.745     8.792
     3   6 C        2.924    -0.032    28.792     8.799
     4   6 C        2.977     0.013    27.719     8.636
     5   6 C        2.976     0.004    27.934     8.670
     6   6 C        2.930    -0.042    29.036     8.837
     7   6 C        2.977     0.003    27.943     8.671
     8   6 C        2.978     0.019    27.589     8.616
     9   6 C        2.923    -0.029    28.736     8.791
    10   6 C        2.922    -0.028    28.698     8.785
    11   6 C        2.974    -0.001    28.044     8.687
    12   6 C        3.200     0.140    24.446     8.057
    13   7 N        1.888    -0.307    28.801     7.956
    14   6 C        3.211     0.063    25.971     8.295
    15   6 C        2.984    -0.001    28.044     8.687
    16   6 C        2.921    -0.031    28.765     8.795
    17   6 C        2.916    -0.030    28.748     8.792
    18   6 C        2.917    -0.031    28.765     8.795
    19   6 C        2.921    -0.034    28.859     8.809
    20   6 C        2.978    -0.002    28.063     8.690
    21   6 C        2.979     0.001    28.008     8.681
    22   6 C        2.922    -0.033    28.833     8.806
    23   6 C        2.916    -0.031    28.780     8.797
    24   6 C        2.916    -0.030    28.761     8.794
    25   6 C        2.919    -0.038    28.946     8.823
    26   6 C        2.978    -0.003    28.105     8.696
    27   6 C        3.072     0.026    27.353     8.575
    28   7 N        2.839    -0.044    22.090     6.981
    29   6 C        2.914     0.050    26.874     8.501
    30   6 C        2.915    -0.041    29.009     8.832
    31   6 C        2.921    -0.036    28.889     8.814
    32   6 C        2.969     0.009    27.811     8.650
    33   6 C        2.971     0.005    27.915     8.666
    34   6 C        2.914    -0.035    28.875     8.812
    35   6 C        2.910    -0.039    28.976     8.827
    36   6 C        2.968    -0.010    28.272     8.722
    37   6 C        3.138     0.136    24.814     8.152
    38   7 N        1.877    -0.326    29.309     8.025
    39   6 C        3.155     0.087    25.774     8.302
    40   6 C        2.908    -0.055    29.357     8.884
    41   6 C        2.918    -0.039    28.966     8.826
    42   6 C        2.924    -0.036    28.886     8.814
    43   6 C        2.905    -0.060    29.500     8.906
    44   6 C        3.063     0.051    26.800     8.489
    45   7 N        2.808    -0.070    22.604     7.061
    46   6 C        2.913     0.065    26.534     8.447
    47   6 C        2.921    -0.044    29.083     8.844
    48   6 C        2.920    -0.028    28.708     8.786
    49   6 C        2.919    -0.033    28.811     8.802
    50   6 C        2.920    -0.026    28.653     8.778
    51   6 C        2.921    -0.039    28.960     8.825
    52   6 C        2.917    -0.032    28.792     8.799
    53   6 C        2.913    -0.036    28.905     8.816
    54   6 C        2.920    -0.037    28.919     8.819
    55   6 C        2.912    -0.039    28.979     8.827
    56   6 C        2.923    -0.032    28.802     8.801
    57   6 C        2.924    -0.033    28.824     8.804
    58   6 C        2.981     0.001    28.005     8.681
    59   6 C        2.977     0.015    27.667     8.628
    60   6 C        2.924    -0.032    28.808     8.802
    61   6 C        2.919    -0.030    28.753     8.793
    62   6 C        2.920    -0.031    28.781     8.798
    63   6 C        2.919    -0.030    28.749     8.793
    64   6 C        2.925    -0.032    28.806     8.802
    65   6 C        2.982     0.001    27.990     8.678
    66   6 C        2.978     0.016    27.655     8.626
    67   6 C        2.925    -0.032    28.795     8.800
    68   6 C        2.919    -0.030    28.758     8.794
    69   6 C        2.920    -0.032    28.796     8.800
    70   6 C        2.919    -0.030    28.758     8.794
    71   6 C        2.925    -0.032    28.796     8.800
    72   6 C        2.982     0.001    28.004     8.681
    73   6 C        2.977     0.016    27.651     8.625
    74   6 C        2.925    -0.032    28.794     8.800
    75   6 C        2.919    -0.030    28.759     8.794
    76   6 C        2.920    -0.032    28.796     8.800
    77   6 C        2.919    -0.031    28.762     8.795
    78   6 C        2.924    -0.032    28.805     8.801
    79   6 C        2.925    -0.035    28.861     8.810
    80   6 C        2.918    -0.029    28.728     8.789
    81   1 H        0.926     0.018     2.763     2.600
    82   1 H        0.926     0.027     2.630     2.536
    83   1 H        0.926     0.032     2.560     2.502
    84   1 H        0.926     0.036     2.499     2.472
    85   1 H        0.926     0.043     2.415     2.430
    86   1 H        0.926     0.042     2.418     2.432
    87   1 H        0.926     0.047     2.354     2.399
    88   1 H        0.926     0.037     2.488     2.466
    89   1 H        0.926     0.037     2.487     2.466
    90   1 H        0.926     0.040     2.453     2.449
    91   1 H        0.926     0.041     2.432     2.439
    92   1 H        0.926     0.037     2.491     2.468
    93   1 H        0.926     0.036     2.507     2.476
    94   1 H        0.926     0.035     2.511     2.478
    95   1 H        0.926     0.032     2.564     2.504
    96   1 H        0.926     0.044     2.397     2.421
    97   1 H        0.926     0.037     2.486     2.465
    98   1 H        0.926     0.026     2.646     2.544
    99   1 H        0.926     0.037     2.483     2.464
   100   1 H        0.926     0.035     2.518     2.481
   101   1 H        0.926     0.037     2.495     2.470
   102   1 H        0.926     0.031     2.573     2.509
   103   1 H        0.926     0.040     2.449     2.447
   104   1 H        0.926     0.044     2.402     2.424
   105   1 H        0.926     0.044     2.402     2.424
   106   1 H        0.926     0.042     2.421     2.433
   107   1 H        0.926     0.033     2.544     2.494
   108   1 H        0.926     0.047     2.356     2.400
   109   1 H        0.926     0.038     2.472     2.458
   110   1 H        0.926     0.044     2.399     2.422
   111   1 H        0.925     0.038     2.480     2.463
   112   1 H        0.926     0.033     2.543     2.493
   113   1 H        0.926     0.042     2.425     2.435
   114   1 H        0.926     0.029     2.604     2.524
   115   1 H        0.926     0.031     2.566     2.505
   116   1 H        0.926     0.032     2.557     2.500
   117   1 H        0.926     0.031     2.565     2.505
   118   1 H        0.926     0.028     2.620     2.531
   119   1 H        0.926     0.027     2.625     2.534
   120   1 H        0.926     0.031     2.577     2.510
   121   1 H        0.926     0.031     2.569     2.506
   122   1 H        0.926     0.031     2.572     2.508
   123   1 H        0.926     0.028     2.616     2.529
   124   1 H        0.926     0.027     2.629     2.536
   125   1 H        0.926     0.030     2.583     2.513
   126   1 H        0.926     0.031     2.571     2.508
   127   1 H        0.926     0.031     2.572     2.508
   128   1 H        0.926     0.029     2.606     2.525
   129   1 H        0.926     0.033     2.547     2.496
   130   1 H        0.926     0.033     2.548     2.496

molecular dipole:
                 x           y           z       tot (Debye)
 q only:       -0.701      -0.642      -0.979
   full:       -0.412      -0.280      -1.217       3.342

 projected vibrational frequencies (cm⁻¹)
eigval :       -0.00    -0.00    -0.00    -0.00     0.00     0.00
eigval :       -2.61    12.83    15.72    18.17    19.10    21.25
eigval :       21.80    27.77    28.73    31.70    39.44    43.88
eigval :       48.39    52.76    56.80    60.86    64.00    66.88
eigval :       71.23    73.69    76.69    77.73    79.51    80.78
eigval :       83.39    88.28    91.94    95.98   101.32   108.96
eigval :      114.59   120.60   123.48   136.33   137.37   146.76
eigval :      175.36   178.88   194.44   202.19   205.89   209.49
eigval :      213.34   220.32   230.70   235.27   239.66   241.65
eigval :      249.83   251.92   256.81   265.89   266.94   276.41
eigval :      283.86   303.45   314.61   330.44   341.21   357.08
eigval :      362.05   367.72   369.39   374.80   376.30   376.88
eigval :      377.68   378.42   380.15   382.31   385.17   392.88
eigval :      399.03   403.08   409.60   412.07   425.31   436.42
eigval :      446.88   449.14   461.45   467.00   474.01   478.53
eigval :      487.13   493.17   501.64   506.34   516.21   516.86
eigval :      519.31   532.72   533.45   541.21   559.86   574.59
eigval :      579.87   581.22   583.76   584.07   586.30   587.37
eigval :      587.77   589.79   595.41   599.41   604.47   605.92
eigval :      609.75   612.17   618.25   631.39   640.10   645.78
eigval :      652.67   657.55   663.06   667.56   668.62   669.88
eigval :      673.83   674.35   677.14   680.10   685.93   686.99
eigval :      692.89   697.25   702.41   707.71   720.16   723.39
eigval :      733.95   743.50   749.56   754.21   758.22   761.29
eigval :      763.63   764.32   766.96   779.39   780.88   788.46
eigval :      792.32   800.94   811.17   819.56   829.28   837.40
eigval :      844.05   856.64   862.28   868.59   869.28   873.58
eigval :      874.15   875.04   876.61   878.16   879.12   879.79
eigval :      881.32   889.07   896.42   899.85   900.87   901.55
eigval :      901.99   902.75   906.61   911.32   911.65   912.06
eigval :      913.05   915.42   918.62   923.38   927.16   927.65
eigval :      928.35   928.71   929.18   929.21   930.19   930.78
eigval :      931.25   932.06   932.36   932.81   935.31   938.35
eigval :      939.97   946.84   954.59   968.18   980.92   986.83
eigval :      992.22   999.28  1008.13  1017.60  1024.77  1039.82
eigval :     1050.35  1066.18  1073.10  1077.23  1082.20  1083.56
eigval :     1084.21  1084.61  1085.08  1089.80  1104.94  1118.27
eigval :     1119.07  1119.77  1120.31  1120.35  1120.73  1126.02
eigval :     1128.36  1134.82  1140.39  1142.76  1148.30  1157.28
eigval :     1164.01  1171.28  1178.70  1179.75  1180.42  1181.08
eigval :     1181.36  1181.76  1182.62  1184.74  1186.64  1189.02
eigval :     1196.03  1197.63  1199.84  1200.84  1201.46  1202.77
eigval :     1203.42  1223.83  1242.56  1248.76  1249.17  1253.09
eigval :     1253.28  1254.97  1262.35  1268.56  1276.36  1277.91
eigval :     1279.13  1280.68  1281.74  1282.23  1284.34  1293.26
eigval :     1294.34  1295.34  1299.34  1303.26  1312.99  1313.96
eigval :     1315.94  1316.18  1316.84  1317.92  1323.42  1331.87
eigval :     1334.70  1338.06  1351.44  1356.97  1360.56  1361.75
eigval :     1374.77  1392.28  1393.91  1401.76  1403.44  1406.05
eigval :     1417.33  1423.16  1423.35  1428.01  1428.81  1430.02
eigval :     1431.75  1432.97  1433.33  1439.90  1449.40  1467.31
eigval :     1467.77  1472.20  1475.79  1477.01  1479.90  1488.13
eigval :     1488.88  1491.48  1504.10  1505.90  1509.70  1530.22
eigval :     1545.16  1545.70  1551.28  1553.41  1558.51  1559.69
eigval :     1567.44  1572.99  1575.46  1580.25  1580.70  1581.51
eigval :     1581.65  1582.97  1586.67  1589.03  1594.98  1597.96
eigval :     1599.26  1599.43  1599.90  1601.00  3066.36  3066.38
eigval :     3067.78  3067.92  3068.03  3068.53  3068.57  3069.38
eigval :     3071.46  3073.41  3074.40  3075.01  3075.42  3075.77
eigval :     3076.72  3076.84  3077.13  3077.29  3078.17  3078.80
eigval :     3079.06  3080.28  3080.80  3081.68  3081.71  3082.38
eigval :     3082.93  3085.99  3086.10  3086.96  3087.86  3088.18
eigval :     3088.26  3089.05  3089.82  3092.08  3092.91  3093.89
eigval :     3095.59  3097.82  3097.96  3098.93  3099.82  3100.82
eigval :     3101.61  3103.04  3103.46  3104.79  3107.25  3111.16

   temp. (K)  partition function   enthalpy   heat capacity  entropy
                                   cal/mol     cal/K/mol   cal/K/mol   J/K/mol
 298.15  VIB  0.122E+32            38377.193    239.344    242.789
         ROT  0.351E+09              888.752      2.981     42.084
         INT  0.427E+40            39265.945    242.324    284.873
         TR   0.315E+29             1481.254      4.968     46.617
         TOT                       40747.1990   247.2926   331.4902  1386.9551

       T/K    H(0)-H(T)+PV         H(T)/Eh          T*S/Eh         G(T)/Eh
   ------------------------------------------------------------------------
    298.15    0.649348E-01    0.106379E+01    0.157502E+00    0.906291E+00
   ------------------------------------------------------------------------

         :::::::::::::::::::::::::::::::::::::::::::::::::::::
         ::                  THERMODYNAMIC                  ::
         :::::::::::::::::::::::::::::::::::::::::::::::::::::
         :: total free energy        -199.098940002294 Eh   ::
         ::.................................................::
         :: total energy             -200.005231424797 Eh   ::
         :: zero point energy           0.998858333340 Eh   ::
         :: G(RRHO) w/o ZPVE           -0.092566910836 Eh   ::
         :: G(RRHO) contrib.            0.906291422504 Eh   ::
         :::::::::::::::::::::::::::::::::::::::::::::::::::::

           -------------------------------------------------
          | TOTAL ENERGY             -200.005231424797 Eh   |
          | TOTAL ENTHALPY           -198.941438296590 Eh   |
          | TOTAL FREE ENERGY        -199.098940002294 Eh   |
          | GRADIENT NORM               0.000069108841 Eh/α |
          | HOMO-LUMO GAP               0.527482439001 eV   |
           -------------------------------------------------

 * finished run on 2025/08/21 at 21:02:52.750
