   * xtb version 6.7.1 (edcfbbe) compiled by 'albert@albert-system' on 2024-07-22

   ID    Z sym.   atoms
    1    6 C      1-12, 14-27, 29-37, 39-44, 46-80
    2    7 N      13, 28, 38, 45
    3    1 H      81-130

          program call               : xtb data2507/toluene/TPBPPI-PBI/TPBPPI-PBI_toluene_S0_crest.xyz --gfn 2 --gbsa toluene --ohess vtight --parallel 40 --molden --ceasefiles --namespace data2507/toluene/TPBPPI-PBI/TPBPPI-PBI_toluene_S0_finalOpt
      * Solvation model:               GBSA
        Solvent                        toluene
        Solvent mass                       9.2140E+01 g/mol
          :  Hamiltonian                  GFN2-xTB          :
 * total energy  :  -200.0944448 Eh     change       -0.6122718E-08 Eh
 * total energy  :  -200.0945609 Eh     change       -0.1161395E-03 Eh
 * total energy  :  -200.0946855 Eh     change       -0.1245983E-03 Eh
 * total energy  :  -200.0947407 Eh     change       -0.5513436E-04 Eh
 * total energy  :  -200.0948132 Eh     change       -0.7255888E-04 Eh
 * total energy  :  -200.0948621 Eh     change       -0.4888673E-04 Eh
 * total energy  :  -200.0949025 Eh     change       -0.4039190E-04 Eh
 * total energy  :  -200.0949317 Eh     change       -0.2915852E-04 Eh
 * total energy  :  -200.0949709 Eh     change       -0.3923269E-04 Eh
 * total energy  :  -200.0949934 Eh     change       -0.2246156E-04 Eh
 * total energy  :  -200.0956541 Eh     change       -0.3122796E-06 Eh
 * total energy  :  -200.0956544 Eh     change       -0.3215593E-06 Eh
 * total energy  :  -200.0956548 Eh     change       -0.3804229E-06 Eh
 * total energy  :  -200.0956552 Eh     change       -0.4298185E-06 Eh
 * total energy  :  -200.0956556 Eh     change       -0.4506020E-06 Eh
 * total energy  :  -200.0956561 Eh     change       -0.4368576E-06 Eh
 * total energy  :  -200.0956565 Eh     change       -0.4046265E-06 Eh
 * total energy  :  -200.0956569 Eh     change       -0.3730836E-06 Eh
 * total energy  :  -200.0956569 Eh     change       -0.2221213E-08 Eh
   *** GEOMETRY OPTIMIZATION CONVERGED AFTER 122 ITERATIONS ***

 final structure:
================
130
 xtb: 6.7.1 (edcfbbe)
C            5.34903030209913        1.67077099450803        1.20236029095039
C            5.66824426799568        0.74652525381549        0.22094407515095
C            4.81767491888129       -0.31092393645064       -0.04462699098193
C            3.63298171479313       -0.46457260854754        0.67146816389194
C            2.71641970943870       -1.59087948463606        0.40912691959481
C            1.36217323888076       -1.33688648006704        0.23417270291789
C            0.45239154287907       -2.35710887742620       -0.01595620339671
C           -0.97785694558428       -2.01284367759371       -0.11230894022787
C           -1.93486758700249       -2.67853793310032        0.65066870744037
C           -3.25375806580232       -2.26958834625274        0.64260879798093
C           -3.64755360697974       -1.17507007517193       -0.12270169988983
C           -5.00479380080948       -0.64683490510736       -0.00878707974797
N           -6.11564844339137       -1.32279092633362       -0.13561203305818
C           -7.12119833844506       -0.42148926820127        0.05994305144401
C           -8.52459019669905       -0.64863453775152        0.00267165651069
C           -9.04540546531651       -1.91231294906694       -0.29909713983496
C          -10.40235265267140       -2.10606635417946       -0.37111629419519
C          -11.25993756362301       -1.03108993009890       -0.14324986692854
C          -10.76021799946105        0.21431108721666        0.15856207412811
C           -9.37950084990695        0.45204438962994        0.24765151212129
C           -8.82553468680274        1.75132470177407        0.58936971834822
C           -9.64418643697156        2.84821738758309        0.89695265778370
C           -9.12305198109493        4.07029359311254        1.25213730769217
C           -7.74475284705527        4.24856784592795        1.33060426067957
C           -6.90767030428013        3.20179833890312        1.03218475665132
C           -7.41973707425146        1.95481851863853        0.64568388592993
C           -6.59483652169124        0.84084381240745        0.32673155480253
N           -5.23015133634993        0.68509178868154        0.27143400613797
C           -4.16973954358606        1.59786150852715        0.44467934329219
C           -3.23613618695765        1.35176529582063        1.44543645738894
C           -2.06802907953868        2.08304372536139        1.49314118760625
C           -1.80643895680537        3.07523343593356        0.54846266758104
C           -0.47280906314901        3.68635510503505        0.48941571437131
C            0.11359058965352        3.96166044908299       -0.74609345723866
C            1.42608218603998        4.37697831876613       -0.83527987385407
C            2.20035577347890        4.51124393018750        0.31612564442842
C            3.61553609916566        4.83879821556156        0.28221599102215
N            4.20981423403181        5.51226888762779        1.23356232891942
C            5.52077533333565        5.62154577530972        0.86190701278670
C            6.59310486224003        6.22862341144066        1.50843889956228
C            7.82887150581453        6.15991211997458        0.90092755711528
C            8.01096543999245        5.49832105861316       -0.31617412571538
C            6.96032011846236        4.89281730920220       -0.97637571972511
C            5.71083129335749        4.97404821743357       -0.38176539246865
N            4.47424793881910        4.48292791258089       -0.73757751857632
C            4.22020957984904        3.69340391433883       -1.87544342248358
C            4.61578773093681        4.15008583031687       -3.12821072199856
C            4.39180203827320        3.36706506224857       -4.24716612575733
C            3.77317849437751        2.13436811357902       -4.12266475198981
C            3.37573427494082        1.68371415284126       -2.87391523340371
C            3.59871338095372        2.45541796928392       -1.74892043414925
C            1.59180130289899        4.32396134974448        1.55821046874955
C            0.27781651086733        3.91707933122631        1.64324527889343
C           -2.79584109859535        3.37822239037038       -0.38783825964279
C           -3.96456154387807        2.64499989569080       -0.44838112381930
C           -2.70583487338552       -0.54894594452344       -0.93692870988424
C           -1.38914292071624       -0.96021716428954       -0.92651824504120
C            0.91213684939969       -3.67486017879771       -0.11576522617058
C           -0.03330847696549       -4.76911674589433       -0.41622047175961
C           -0.14734857972269       -5.86864014922536        0.42914253265481
C           -1.03687609184356       -6.88649339059441        0.13871840963465
C           -1.82289036924388       -6.82134479898666       -0.99983596323007
C           -1.71764824968475       -5.72964474577536       -1.84554927631837
C           -0.83081542999561       -4.70942847523827       -1.55539551016258
C            2.27386968858217       -3.94428782454507        0.05746766693389
C            2.76207217394052       -5.33720975822765       -0.04642167327839
C            3.39683022861427       -5.94812728637052        1.03011225226069
C            3.84997537645962       -7.25059239810564        0.92918743557703
C            3.67875034694119       -7.95799720553366       -0.24905087158575
C            3.04881204458745       -7.35675633874711       -1.32592164771278
C            2.59085196861059       -6.05605845759615       -1.22508977894844
C            3.17681177313815       -2.91116312985739        0.32955583266178
C            4.60443780863347       -3.22117097771190        0.55326444451744
C            5.21506492189352       -2.87199888431950        1.75414546155814
C            6.54645037853154       -3.17093993420523        1.97699268969754
C            7.28743895183787       -3.81636277546151        1.00096718285750
C            6.68966785279666       -4.16097618222473       -0.19994765832218
C            5.35660095360833       -3.86865483406697       -0.42204849062221
C            3.31124048729233        0.48206542179255        1.64186253377522
C            4.16393808440339        1.53887813666757        1.90692476372045
H            6.01648966225535        2.49407377482382        1.41423660099420
H            6.58501527127560        0.85076748309209       -0.34122610980910
H            5.06957152546969       -1.01815067432322       -0.82021531424481
H            1.00356397848623       -0.31955002025088        0.30096429521229
H           -1.63696327281909       -3.50346186675851        1.27995800816959
H           -3.98674929441864       -2.77382550800643        1.25467880325933
H           -8.34714388304180       -2.71665695104953       -0.47482973059364
H          -10.80611565995996       -3.08027222408470       -0.60530038165893
H          -12.32896836477310       -1.17711670989027       -0.20365609181504
H          -11.46171349821484        1.01635362288524        0.32478331399117
H          -10.71654871219207        2.74281249560302        0.86483658735173
H           -9.78653042720924        4.89132139741676        1.48157976404437
H           -7.33556658572059        5.20296947139849        1.62783136436798
H           -5.83948065319497        3.33340216125273        1.10768481371562
H           -3.41441585063265        0.55647258801079        2.15401563516452
H           -1.32675734947983        1.84154073632234        2.23884846646698
H           -0.45262637497649        3.81321697279240       -1.65310766969363
H            1.84916034424023        4.59037040432089       -1.80508657813340
H            6.45035625620004        6.72654499592991        2.45475288787045
H            8.68204986748260        6.62084919294917        1.37699855117000
H            8.99969902698478        5.45893035078838       -0.74916052271386
H            7.10859711675737        4.37158498009374       -1.91032095445103
H            5.08351789615038        5.11941967787967       -3.22060493411271
H            4.69936323293654        3.72563188202769       -5.21821709477924
H            3.60021271045137        1.52623725071629       -4.99769399959506
H            2.89614102167203        0.72242226579766       -2.77120575167997
H            3.29653415145568        2.10873078264752       -0.77343446092789
H            2.18073625177934        4.48729697150586        2.44731885425957
H           -0.17297193704346        3.77521057915877        2.61403629681341
H           -2.64171292398709        4.18272489799216       -1.09070706206011
H           -4.70653389108459        2.85487276954212       -1.20569005202282
H           -3.00595934983737        0.26686442275599       -1.57795644453709
H           -0.66767360376257       -0.45765835094511       -1.55447555324086
H            0.45606795629981       -5.91829730900828        1.32405873628819
H           -1.11721974540782       -7.73399601204724        0.80428074619555
H           -2.51639196311248       -7.61803823284628       -1.22640283227018
H           -2.32944829758294       -5.67226760576526       -2.73441936967040
H           -0.74627788541275       -3.86161855820994       -2.22033500288602
H            3.52595406755294       -5.40095594424048        1.95310069997355
H            4.33874944362203       -7.71515907562586        1.77361898418396
H            4.03477411488576       -8.97499414469066       -0.32757839978326
H            2.91264114716939       -7.90339015990556       -2.24809476384315
H            2.10361405264032       -5.58716387081115       -2.06813795768416
H            4.63758049106595       -2.37244274974283        2.51920370868942
H            7.00743516590339       -2.89900905092070        2.91584026625574
H            8.32787507725996       -4.04932257186704        1.17532170113777
H            7.26364381075440       -4.66157834797255       -0.96655230793248
H            4.89488103944376       -4.13430215295362       -1.36218311743315
H            2.39589789779047        0.37486323301348        2.20645606512698
H            3.90592792700379        2.26271686591268        2.66621902790557

          :  Hamiltonian                  GFN2-xTB          :
         :: gradient norm              0.000034226184 Eh/a0 ::
         :: HOMO-LUMO gap              2.461376097464 eV    ::
         :: SCC energy              -203.915612481960 Eh    ::
         :: -> dispersion             -0.211398736464 Eh    ::
         :: -> Gsolv                  -0.078753734892 Eh    ::
         :: repulsion energy           3.819955618948 Eh    ::

    * Orbital Energies and Occupations

         #    Occupation            Energy/Eh            Energy/eV
      -------------------------------------------------------------
         1        2.0000           -0.6892845             -18.7564
       ...           ...                  ...                  ...
       175        2.0000           -0.4022949             -10.9470
       176        2.0000           -0.3987435             -10.8504
       177        2.0000           -0.3980860             -10.8325
       178        2.0000           -0.3970412             -10.8040
       179        2.0000           -0.3932169             -10.7000
       180        2.0000           -0.3847076             -10.4684
       181        2.0000           -0.3839872             -10.4488
       182        2.0000           -0.3825534             -10.4098
       183        2.0000           -0.3822499             -10.4015
       184        2.0000           -0.3816022             -10.3839
       185        2.0000           -0.3787036             -10.3050
       186        2.0000           -0.3781984             -10.2913
       187        2.0000           -0.3652596              -9.9392 (HOMO)
       188                         -0.2748057              -7.4778 (LUMO)
       189                         -0.2615157              -7.1162
       190                         -0.2529698              -6.8837
       191                         -0.2507924              -6.8244
       192                         -0.2477179              -6.7407
       193                         -0.2442586              -6.6466
       194                         -0.2399035              -6.5281
       195                         -0.2383415              -6.4856
       196                         -0.2359097              -6.4194
       197                         -0.2348142              -6.3896
       198                         -0.2303275              -6.2675
       ...                                ...                  ...
       370                          0.7259921              19.7553
      -------------------------------------------------------------
                  HL-Gap            0.0904539 Eh            2.4614 eV

     #   Z          covCN         q      C6AA      α(0)
     1   6 C        2.919    -0.029    28.730     8.790
     2   6 C        2.919    -0.029    28.727     8.789
     3   6 C        2.924    -0.031    28.774     8.797
     4   6 C        2.976     0.014    27.706     8.634
     5   6 C        2.976     0.003    27.955     8.673
     6   6 C        2.930    -0.043    29.058     8.840
     7   6 C        2.977     0.003    27.953     8.673
     8   6 C        2.978     0.016    27.649     8.625
     9   6 C        2.923    -0.031    28.765     8.795
    10   6 C        2.923    -0.029    28.724     8.789
    11   6 C        2.973    -0.003    28.092     8.694
    12   6 C        3.199     0.138    24.488     8.065
    13   7 N        1.890    -0.317    29.082     7.995
    14   6 C        3.212     0.059    26.062     8.309
    15   6 C        2.985    -0.003    28.089     8.694
    16   6 C        2.921    -0.034    28.839     8.807
    17   6 C        2.917    -0.032    28.795     8.799
    18   6 C        2.917    -0.035    28.860     8.809
    19   6 C        2.921    -0.037    28.909     8.817
    20   6 C        2.978    -0.005    28.144     8.702
    21   6 C        2.979    -0.002    28.062     8.689
    22   6 C        2.922    -0.035    28.872     8.812
    23   6 C        2.916    -0.034    28.850     8.808
    24   6 C        2.917    -0.032    28.808     8.802
    25   6 C        2.919    -0.041    29.014     8.833
    26   6 C        2.979    -0.005    28.143     8.702
    27   6 C        3.072     0.022    27.446     8.590
    28   7 N        2.843    -0.054    22.279     7.010
    29   6 C        2.915     0.063    26.587     8.455
    30   6 C        2.921    -0.039    28.977     8.828
    31   6 C        2.926    -0.031    28.772     8.796
    32   6 C        2.976     0.014    27.702     8.633
    33   6 C        2.976     0.014    27.698     8.633
    34   6 C        2.925    -0.034    28.835     8.806
    35   6 C        2.920    -0.033    28.830     8.805
    36   6 C        2.975    -0.002    28.063     8.690
    37   6 C        3.178     0.145    24.470     8.077
    38   7 N        1.887    -0.319    29.126     8.001
    39   6 C        3.187     0.070    25.997     8.319
    40   6 C        2.910    -0.048    29.195     8.860
    41   6 C        2.922    -0.042    29.040     8.837
    42   6 C        2.926    -0.039    28.978     8.828
    43   6 C        2.908    -0.054    29.331     8.880
    44   6 C        3.089     0.038    27.046     8.524
    45   7 N        2.823    -0.059    22.372     7.025
    46   6 C        2.913     0.064    26.557     8.450
    47   6 C        2.922    -0.041    29.026     8.835
    48   6 C        2.920    -0.027    28.684     8.783
    49   6 C        2.919    -0.030    28.750     8.793
    50   6 C        2.921    -0.025    28.622     8.773
    51   6 C        2.921    -0.038    28.955     8.824
    52   6 C        2.926    -0.027    28.677     8.782
    53   6 C        2.922    -0.032    28.800     8.801
    54   6 C        2.924    -0.032    28.795     8.800
    55   6 C        2.918    -0.038    28.950     8.823
    56   6 C        2.923    -0.034    28.853     8.809
    57   6 C        2.924    -0.034    28.853     8.809
    58   6 C        2.981     0.000    28.017     8.683
    59   6 C        2.977     0.015    27.672     8.629
    60   6 C        2.924    -0.033    28.813     8.803
    61   6 C        2.919    -0.030    28.759     8.794
    62   6 C        2.920    -0.032    28.787     8.798
    63   6 C        2.919    -0.030    28.752     8.793
    64   6 C        2.925    -0.032    28.809     8.802
    65   6 C        2.982     0.001    27.997     8.679
    66   6 C        2.978     0.016    27.656     8.626
    67   6 C        2.924    -0.032    28.797     8.800
    68   6 C        2.919    -0.030    28.761     8.794
    69   6 C        2.920    -0.032    28.798     8.800
    70   6 C        2.919    -0.030    28.760     8.794
    71   6 C        2.925    -0.032    28.797     8.800
    72   6 C        2.982     0.000    28.022     8.683
    73   6 C        2.977     0.016    27.651     8.626
    74   6 C        2.925    -0.032    28.798     8.801
    75   6 C        2.919    -0.031    28.762     8.795
    76   6 C        2.920    -0.032    28.800     8.800
    77   6 C        2.919    -0.031    28.763     8.795
    78   6 C        2.924    -0.032    28.809     8.802
    79   6 C        2.925    -0.035    28.874     8.812
    80   6 C        2.918    -0.030    28.754     8.793
    81   1 H        0.926     0.020     2.730     2.584
    82   1 H        0.926     0.027     2.628     2.535
    83   1 H        0.926     0.032     2.556     2.500
    84   1 H        0.926     0.036     2.499     2.472
    85   1 H        0.926     0.039     2.459     2.452
    86   1 H        0.926     0.038     2.469     2.457
    87   1 H        0.926     0.043     2.411     2.428
    88   1 H        0.926     0.032     2.556     2.500
    89   1 H        0.926     0.032     2.563     2.503
    90   1 H        0.926     0.035     2.523     2.484
    91   1 H        0.926     0.037     2.495     2.470
    92   1 H        0.926     0.032     2.552     2.498
    93   1 H        0.926     0.032     2.557     2.500
    94   1 H        0.926     0.030     2.582     2.513
    95   1 H        0.926     0.038     2.474     2.460
    96   1 H        0.926     0.049     2.326     2.385
    97   1 H        0.926     0.044     2.390     2.417
    98   1 H        0.926     0.033     2.547     2.495
    99   1 H        0.926     0.037     2.483     2.464
   100   1 H        0.926     0.033     2.539     2.492
   101   1 H        0.926     0.034     2.524     2.484
   102   1 H        0.926     0.031     2.572     2.508
   103   1 H        0.926     0.042     2.421     2.433
   104   1 H        0.926     0.046     2.374     2.409
   105   1 H        0.926     0.046     2.371     2.408
   106   1 H        0.926     0.044     2.395     2.420
   107   1 H        0.926     0.037     2.495     2.470
   108   1 H        0.926     0.050     2.317     2.380
   109   1 H        0.926     0.047     2.363     2.404
   110   1 H        0.926     0.051     2.310     2.377
   111   1 H        0.926     0.044     2.395     2.420
   112   1 H        0.926     0.029     2.600     2.522
   113   1 H        0.926     0.040     2.445     2.445
   114   1 H        0.926     0.028     2.613     2.528
   115   1 H        0.926     0.031     2.578     2.511
   116   1 H        0.926     0.031     2.570     2.507
   117   1 H        0.926     0.031     2.575     2.509
   118   1 H        0.926     0.028     2.618     2.530
   119   1 H        0.926     0.027     2.628     2.535
   120   1 H        0.926     0.030     2.583     2.513
   121   1 H        0.926     0.031     2.574     2.509
   122   1 H        0.926     0.031     2.577     2.510
   123   1 H        0.926     0.028     2.617     2.530
   124   1 H        0.926     0.027     2.632     2.537
   125   1 H        0.926     0.030     2.587     2.515
   126   1 H        0.926     0.031     2.578     2.511
   127   1 H        0.926     0.030     2.579     2.511
   128   1 H        0.926     0.028     2.612     2.527
   129   1 H        0.926     0.033     2.542     2.493
   130   1 H        0.926     0.029     2.602     2.522

molecular dipole:
                 x           y           z       tot (Debye)
 q only:        0.794      -0.166      -0.899
   full:        1.032       0.038      -1.079       3.797

 projected vibrational frequencies (cm⁻¹)
eigval :       -0.00    -0.00    -0.00    -0.00    -0.00     0.00
eigval :       10.51    12.75    14.15    16.25    18.52    22.54
eigval :       24.19    27.36    30.12    32.83    40.07    44.88
eigval :       47.26    50.74    57.34    59.99    63.83    64.65
eigval :       69.19    71.69    72.69    74.42    77.11    80.87
eigval :       85.26    90.39    97.02    99.03    99.92   107.06
eigval :      114.18   123.02   124.90   135.71   138.30   156.36
eigval :      174.76   184.54   199.74   203.79   208.08   212.84
eigval :      213.84   220.13   231.24   235.10   240.24   244.92
eigval :      251.41   256.21   257.77   268.26   271.93   289.39
eigval :      298.68   304.86   318.81   344.91   352.79   362.35
eigval :      368.43   371.14   373.82   375.16   375.48   377.03
eigval :      378.23   379.74   381.28   388.25   394.24   396.36
eigval :      400.37   408.04   409.87   429.56   437.87   443.14
eigval :      448.24   462.22   466.11   479.35   486.10   488.39
eigval :      495.75   502.00   507.51   515.85   521.73   533.14
eigval :      536.93   542.51   543.51   547.36   565.29   579.45
eigval :      581.28   583.84   585.38   587.53   587.91   589.82
eigval :      592.49   596.64   597.85   606.03   608.34   610.74
eigval :      615.50   618.33   637.12   646.93   650.10   654.72
eigval :      657.97   663.87   667.87   670.40   671.09   674.67
eigval :      678.25   682.17   682.78   686.27   688.90   695.98
eigval :      705.80   708.45   710.16   716.24   723.70   724.97
eigval :      734.87   744.01   757.67   763.01   765.87   766.13
eigval :      767.13   769.30   773.08   782.73   783.15   796.85
eigval :      809.24   819.61   834.34   837.78   861.91   865.29
eigval :      866.74   868.15   869.46   871.31   872.63   875.09
eigval :      875.39   875.77   877.85   878.84   885.05   886.49
eigval :      889.17   898.42   899.51   901.09   902.12   907.24
eigval :      907.58   908.33   912.94   914.98   919.02   919.85
eigval :      921.38   924.53   925.69   926.48   927.55   927.83
eigval :      928.45   928.62   929.26   929.63   930.57   930.66
eigval :      931.43   936.49   936.80   937.48   939.35   947.51
eigval :      952.26   960.33   969.14   980.90   986.29   991.44
eigval :     1002.76  1014.38  1025.77  1030.76  1040.61  1060.79
eigval :     1070.45  1073.19  1075.84  1079.38  1083.00  1083.87
eigval :     1084.72  1085.10  1089.68  1105.82  1115.09  1119.53
eigval :     1120.04  1120.26  1121.78  1130.01  1133.13  1134.49
eigval :     1135.10  1136.24  1140.74  1142.84  1152.43  1173.30
eigval :     1173.55  1177.69  1180.30  1180.84  1181.82  1182.43
eigval :     1182.76  1185.55  1187.34  1188.26  1189.28  1196.95
eigval :     1197.23  1200.41  1200.75  1201.92  1203.10  1207.14
eigval :     1207.90  1243.76  1252.23  1253.62  1254.99  1259.14
eigval :     1263.02  1269.91  1271.06  1274.97  1278.41  1280.23
eigval :     1281.12  1281.87  1282.82  1285.26  1292.22  1293.19
eigval :     1294.64  1299.13  1312.30  1312.71  1313.20  1314.49
eigval :     1314.79  1316.07  1317.46  1320.13  1320.41  1324.04
eigval :     1338.55  1343.81  1357.68  1361.14  1371.75  1377.05
eigval :     1391.63  1392.63  1404.86  1407.16  1410.26  1416.24
eigval :     1419.22  1423.15  1427.99  1429.96  1431.32  1433.07
eigval :     1433.91  1436.11  1440.88  1464.02  1474.34  1475.83
eigval :     1477.14  1480.93  1485.59  1487.93  1492.44  1496.37
eigval :     1514.38  1519.33  1528.96  1534.36  1550.81  1555.08
eigval :     1557.26  1560.71  1563.84  1566.89  1572.00  1579.91
eigval :     1581.10  1581.90  1582.47  1582.94  1585.14  1589.25
eigval :     1592.79  1593.55  1597.52  1598.72  1599.61  1599.71
eigval :     1599.99  1600.63  1604.24  1613.69  3066.12  3066.74
eigval :     3067.11  3067.56  3067.67  3068.15  3068.85  3069.63
eigval :     3071.57  3073.62  3073.77  3074.87  3074.93  3075.61
eigval :     3076.83  3077.14  3077.69  3077.96  3078.24  3079.04
eigval :     3079.86  3079.97  3080.07  3081.31  3083.38  3083.80
eigval :     3084.65  3085.01  3085.74  3086.18  3086.89  3087.66
eigval :     3088.36  3088.49  3088.74  3089.61  3091.87  3094.37
eigval :     3094.42  3095.62  3096.74  3097.01  3097.46  3099.19
eigval :     3099.85  3100.46  3103.53  3104.23  3108.89  3113.43

   temp. (K)  partition function   enthalpy   heat capacity  entropy
                                   cal/mol     cal/K/mol   cal/K/mol   J/K/mol
 298.15  VIB  0.224E+31            37998.477    236.991    239.422
         ROT  0.349E+09              888.752      2.981     42.069
         INT  0.780E+39            38887.229    239.972    281.491
         TR   0.315E+29             1481.254      4.968     46.617
         TOT                       40368.4829   244.9397   328.1079  1372.8035

       T/K    H(0)-H(T)+PV         H(T)/Eh          T*S/Eh         G(T)/Eh
   ------------------------------------------------------------------------
    298.15    0.643313E-01    0.106779E+01    0.155895E+00    0.911900E+00
   ------------------------------------------------------------------------

         :::::::::::::::::::::::::::::::::::::::::::::::::::::
         ::                  THERMODYNAMIC                  ::
         :::::::::::::::::::::::::::::::::::::::::::::::::::::
         :: total free energy        -199.183757353463 Eh   ::
         ::.................................................::
         :: total energy             -200.095656866239 Eh   ::
         :: zero point energy           1.003462901444 Eh   ::
         :: G(RRHO) w/o ZPVE           -0.091563388668 Eh   ::
         :: G(RRHO) contrib.            0.911899512776 Eh   ::
         :::::::::::::::::::::::::::::::::::::::::::::::::::::

           -------------------------------------------------
          | TOTAL ENERGY             -200.095656866239 Eh   |
          | TOTAL ENTHALPY           -199.027862692363 Eh   |
          | TOTAL FREE ENERGY        -199.183757353463 Eh   |
          | GRADIENT NORM               0.000034225472 Eh/α |
          | HOMO-LUMO GAP               2.461376444244 eV   |
           -------------------------------------------------

 * finished run on 2025/08/21 at 21:02:13.914
