   * xtb version 6.7.1 (edcfbbe) compiled by 'albert@albert-system' on 2024-07-22

   ID    Z sym.   atoms
    1    6 C      1-12, 14-27, 29-37, 39-44, 46-80
    2    7 N      13, 28, 38, 45
    3    1 H      81-130

          program call               : xtb data2507/toluene/TPBPPI-PBI/TPBPPI-PBI.xyz --gfn 2 --gbsa toluene --ohess vtight --parallel 40 --molden --ceasefiles --namespace data2507/toluene/TPBPPI-PBI/TPBPPI-PBI_toluene_S0_preOpt
      * Solvation model:               GBSA
        Solvent                        toluene
        Solvent mass                       9.2140E+01 g/mol
          :  Hamiltonian                  GFN2-xTB          :
 * total energy  :  -200.0549259 Eh     change       -0.3900681E-08 Eh
 * total energy  :  -200.0741181 Eh     change       -0.1919220E-01 Eh
 * total energy  :  -200.0796640 Eh     change       -0.5545885E-02 Eh
 * total energy  :  -200.0816928 Eh     change       -0.2028858E-02 Eh
 * total energy  :  -200.0831254 Eh     change       -0.1432572E-02 Eh
 * total energy  :  -200.0840619 Eh     change       -0.9365322E-03 Eh
 * total energy  :  -200.0850288 Eh     change       -0.9668757E-03 Eh
 * total energy  :  -200.0861088 Eh     change       -0.1079976E-02 Eh
 * total energy  :  -200.0873005 Eh     change       -0.1191689E-02 Eh
 * total energy  :  -200.0884594 Eh     change       -0.1158979E-02 Eh
 * total energy  :  -200.0959324 Eh     change       -0.2818012E-06 Eh
 * total energy  :  -200.0959326 Eh     change       -0.2176632E-06 Eh
 * total energy  :  -200.0959328 Eh     change       -0.1739967E-06 Eh
 * total energy  :  -200.0959330 Eh     change       -0.1543506E-06 Eh
 * total energy  :  -200.0959331 Eh     change       -0.1646795E-06 Eh
 * total energy  :  -200.0959333 Eh     change       -0.1787984E-06 Eh
 * total energy  :  -200.0959335 Eh     change       -0.1775751E-06 Eh
 * total energy  :  -200.0959336 Eh     change       -0.1390632E-06 Eh
 * total energy  :  -200.0959337 Eh     change       -0.9381512E-07 Eh
   *** GEOMETRY OPTIMIZATION CONVERGED AFTER 249 ITERATIONS ***

 final structure:
================
130
 xtb: 6.7.1 (edcfbbe)
C            0.63833001906323        5.89195388579959       -0.93869519208464
C           -0.23998299793852        6.04423192868305        0.12188937330255
C           -1.23073131684292        5.10618947154811        0.34610340595950
C           -1.35930071794206        4.00093035386961       -0.49075067294572
C           -2.40318565514771        2.98567743882463       -0.25543095817697
C           -2.03665300522963        1.64895203340988       -0.18223335752929
C           -2.96726639289895        0.64889497908144        0.07029496463920
C           -2.50637141481197       -0.74997448123247        0.10630129676509
C           -3.14982497554778       -1.74991310080725       -0.62037880248986
C           -2.67496148245794       -3.04489818199716       -0.60792217422245
C           -1.53322230368472       -3.37561913171740        0.12125819581147
C           -1.04157097936124       -4.74529623610073        0.08534013248530
N           -1.80980607839306       -5.80501422041273        0.12657742313826
C           -0.96993902084631       -6.87499388820302        0.07193977845608
C           -1.31227750498474       -8.25573578247439        0.10720322315777
C           -2.64383450433539       -8.67171386620072        0.22033315216421
C           -2.95297400295432      -10.00820868782743        0.26749674166746
C           -1.92725656376257      -10.94996369577645        0.20542877172936
C           -0.61513234939134      -10.55299816008988        0.09214468744467
C           -0.25878551626899       -9.19639271064715        0.03207003756544
C            1.11516405485885       -8.74788279695156       -0.12042350165846
C            2.17616367238895       -9.65598295366179       -0.25281575941895
C            3.47391057475329       -9.24088841221603       -0.43785625981404
C            3.76932497798400       -7.88301953049988       -0.51222372851014
C            2.76077184615796       -6.96067989086792       -0.37909239270860
C            1.43403933753095       -7.36250664866319       -0.16586080016475
C            0.35359403516774       -6.44745946347055       -0.01946010147122
N            0.29385199389277       -5.07213530016222        0.00198068334577
C            1.33023619559928       -4.12047108289224       -0.10989429910347
C            1.37504918283159       -3.29448407045251       -1.22687041035320
C            2.34240595636161       -2.31370380569236       -1.31956319991591
C            3.27276808763955       -2.13042937778593       -0.29849490004280
C            4.27126893042652       -1.05559446703957       -0.39326377496682
C            4.55397143921138       -0.24913960592674        0.70763069668777
C            5.45429665725514        0.79242538659944        0.60967840192551
C            6.10285359192786        1.04984991897261       -0.59721056270812
C            7.05824949903778        2.13783596003211       -0.74461712539388
N            8.14849848564748        2.04065838099072       -1.45924683977308
C            8.79873510046414        3.23693519786223       -1.32350062292436
C            9.99853585632076        3.67682467490649       -1.87349485481658
C           10.40811663870060        4.95872929995264       -1.57337335671436
C            9.64802787003483        5.79828101740459       -0.75538962387756
C            8.45520151453762        5.38208389859865       -0.19831751299164
C            8.04624742431888        4.08808410693092       -0.47977845220865
N            6.93321269979205        3.36080156065496       -0.11916209372102
C            5.84076711875036        3.84480906932045        0.62532812510654
C            6.05623763434664        4.43539077997776        1.86560562090033
C            4.98229003587470        4.92572724019338        2.58769567725386
C            3.69685968438877        4.82450823944724        2.08212375406464
C            3.48320652705577        4.23319387080728        0.84719926106442
C            4.55057468109170        3.75034931191079        0.11285821897488
C            5.85400242355495        0.21878626767410       -1.68946493949766
C            4.94389155090612       -0.81269251440141       -1.59041854439135
C            3.22306237201659       -2.97060698271073        0.81321455445715
C            2.26345723529501       -3.95913552777232        0.91023886068587
C           -0.90170034515516       -2.38308019399157        0.86805785281909
C           -1.38102109309176       -1.08925205390023        0.85398845450212
C           -4.30968213493180        0.99622162876946        0.26069216164634
C           -5.31262818881938       -0.04377184491472        0.56939503634022
C           -6.43676821984203       -0.21486555041552       -0.23273568261000
C           -7.36971563301528       -1.19026461085213        0.06744475782675
C           -7.19483827105167       -2.00468159635742        1.17397588226335
C           -6.07873546335576       -1.84152500294020        1.97757710086240
C           -5.14252258413495       -0.86978460619522        1.67658568658206
C           -4.69307564371403        2.33884749623494        0.17729874282245
C           -6.11377180960895        2.70832282788536        0.36260995802618
C           -6.81476681040265        3.34478605404927       -0.65662937055682
C           -8.14400341384179        3.68540064407446       -0.48650405198544
C           -8.78821942618369        3.40037513079567        0.70586918148573
C           -8.09677203860056        2.76972341746364        1.72671164357350
C           -6.76918562195969        2.42287797460668        1.55590055942684
C           -3.74716259028936        3.33580175062533       -0.08212870054652
C           -4.16833111010045        4.74802805723335       -0.18714185081284
C           -3.91302311845959        5.46859047983253       -1.34998736364341
C           -4.30958676139613        6.78863075399905       -1.45868997917935
C           -4.96108648768475        7.40821752258338       -0.40519920643571
C           -5.21431722998320        6.70006456307493        0.75786982853752
C           -4.82292408735243        5.37843485570918        0.86656764081240
C           -0.46215902316036        3.84765844818468       -1.54462617677234
C            0.52615047128169        4.78905292604654       -1.76933366748987
H            1.41045238133615        6.62689864870179       -1.11431469242031
H           -0.15167079728889        6.89808360462474        0.77814588378663
H           -1.90638259696732        5.22450649071336        1.18020465107222
H           -1.00026820885383        1.37847471945346       -0.32553291687424
H           -4.01909730381671       -1.50613510226806       -1.21203058483378
H           -3.17325067038528       -3.81815617499013       -1.17277863601071
H           -3.40745400181085       -7.91049253272333        0.27209689546905
H           -3.98008897063203      -10.33131747903059        0.35438669381428
H           -2.16447841525662      -12.00346282718449        0.24682159443429
H            0.14435896119648      -11.31740620547300        0.04978103056994
H            1.98181794935846      -10.71570531375198       -0.21789177134319
H            4.26396795414855       -9.97105918069766       -0.53576403744939
H            4.78509513201090       -7.55492553474185       -0.67697485793203
H            2.98976577205285       -5.90947503343630       -0.45127082841987
H            0.64479262221091       -3.42285230113018       -2.01229627808930
H            2.36109157621850       -1.66518073163333       -2.18216012692108
H            4.04573689060304       -0.42564323050809        1.64392822962990
H            5.66250518352966        1.39987942450052        1.47795153076945
H           10.57557896284329        3.02878247274283       -2.51445554438111
H           11.33551244556769        5.33057018173082       -1.98397402319629
H           10.00313747624852        6.79866357045983       -0.55611052367660
H            7.86511078304067        6.03895247327710        0.42318127976106
H            7.05957520761179        4.49550161425033        2.26119333540259
H            5.15317743609946        5.38395929803753        3.55048542416739
H            2.86094591092996        5.20511420532363        2.64900213426709
H            2.48301420202194        4.15870798610942        0.44820551471761
H            4.39236117025014        3.29750811581362       -0.85475162288824
H            6.38204993108981        0.40483927973224       -2.61218127700658
H            4.76218451147575       -1.44966590666258       -2.44333761079498
H            3.94907658804475       -2.85514260183038        1.60377852355519
H            2.22645280533499       -4.60791871723718        1.77390326573418
H           -0.04358265782680       -2.62438201150760        1.47691055699318
H           -0.88680408472426       -0.33207812036539        1.44559975549221
H           -6.57231896968865        0.41254230892329       -1.10197879537493
H           -8.23693779509530       -1.31505765611125       -0.56503553434472
H           -7.92499164065219       -2.76556096181732        1.40832596063945
H           -5.93630679898711       -2.47443296252215        2.84180900991292
H           -4.27498509911756       -0.74057090508707        2.30822981504754
H           -6.31538440270917        3.56384459551039       -1.58976089278478
H           -8.67888195519126        4.17577679284956       -1.28729879269144
H           -9.82619244544872        3.66892460511871        0.83899364919824
H           -8.59388181757113        2.54565921858188        2.65969032133627
H           -6.23093125679062        1.93397639026347        2.35547408480065
H           -3.40978919180618        4.98492410275923       -2.17527021661530
H           -4.10966441428653        7.33593163757145       -2.36886100354498
H           -5.27021710852349        8.43996235217511       -0.49019490000839
H           -5.72004694795742        7.17912570925420        1.58402782029559
H           -5.01559092555991        4.83073365121344        1.77797547341697
H           -0.55488288046379        2.99375182987749       -2.20109766249191
H            1.21207101610434        4.66264744146415       -2.59507796664070

          :  Hamiltonian                  GFN2-xTB          :
         :: gradient norm              0.000030223635 Eh/a0 ::
         :: HOMO-LUMO gap              2.504919210365 eV    ::
         :: SCC energy              -203.916248846748 Eh    ::
         :: -> dispersion             -0.200957989495 Eh    ::
         :: -> Gsolv                  -0.083031334092 Eh    ::
         :: repulsion energy           3.820315125791 Eh    ::

    * Orbital Energies and Occupations

         #    Occupation            Energy/Eh            Energy/eV
      -------------------------------------------------------------
         1        2.0000           -0.6902496             -18.7826
       ...           ...                  ...                  ...
       175        2.0000           -0.4017193             -10.9313
       176        2.0000           -0.3991746             -10.8621
       177        2.0000           -0.3973665             -10.8129
       178        2.0000           -0.3961440             -10.7796
       179        2.0000           -0.3923468             -10.6763
       180        2.0000           -0.3849841             -10.4759
       181        2.0000           -0.3839627             -10.4482
       182        2.0000           -0.3824024             -10.4057
       183        2.0000           -0.3820097             -10.3950
       184        2.0000           -0.3816511             -10.3853
       185        2.0000           -0.3785481             -10.3008
       186        2.0000           -0.3780265             -10.2866
       187        2.0000           -0.3642585              -9.9120 (HOMO)
       188                         -0.2722044              -7.4071 (LUMO)
       189                         -0.2628079              -7.1514
       190                         -0.2515558              -6.8452
       191                         -0.2500451              -6.8041
       192                         -0.2463010              -6.7022
       193                         -0.2445503              -6.6546
       194                         -0.2404678              -6.5435
       195                         -0.2384604              -6.4888
       196                         -0.2363095              -6.4303
       197                         -0.2350559              -6.3962
       198                         -0.2315035              -6.2995
       ...                                ...                  ...
       370                          0.7255873              19.7442
      -------------------------------------------------------------
                  HL-Gap            0.0920541 Eh            2.5049 eV

     #   Z          covCN         q      C6AA      α(0)
     1   6 C        2.920    -0.032    28.793     8.799
     2   6 C        2.919    -0.030    28.751     8.793
     3   6 C        2.924    -0.032    28.795     8.800
     4   6 C        2.978     0.013    27.721     8.636
     5   6 C        2.977     0.003    27.958     8.673
     6   6 C        2.931    -0.043    29.070     8.842
     7   6 C        2.977     0.003    27.961     8.674
     8   6 C        2.978     0.016    27.659     8.627
     9   6 C        2.922    -0.031    28.762     8.795
    10   6 C        2.925    -0.029    28.724     8.789
    11   6 C        2.974    -0.003    28.105     8.696
    12   6 C        3.195     0.137    24.534     8.076
    13   7 N        1.892    -0.319    29.118     8.000
    14   6 C        3.208     0.060    26.067     8.313
    15   6 C        2.985    -0.003    28.095     8.695
    16   6 C        2.921    -0.034    28.836     8.806
    17   6 C        2.917    -0.032    28.797     8.800
    18   6 C        2.917    -0.034    28.859     8.809
    19   6 C        2.921    -0.037    28.910     8.817
    20   6 C        2.978    -0.005    28.143     8.702
    21   6 C        2.979    -0.002    28.063     8.690
    22   6 C        2.922    -0.035    28.874     8.812
    23   6 C        2.916    -0.034    28.850     8.808
    24   6 C        2.917    -0.032    28.810     8.802
    25   6 C        2.919    -0.041    29.030     8.835
    26   6 C        2.978    -0.005    28.146     8.702
    27   6 C        3.073     0.022    27.448     8.590
    28   7 N        2.841    -0.054    22.289     7.012
    29   6 C        2.913     0.064    26.556     8.450
    30   6 C        2.920    -0.038    28.954     8.824
    31   6 C        2.925    -0.030    28.754     8.794
    32   6 C        2.976     0.014    27.688     8.631
    33   6 C        2.977     0.014    27.690     8.632
    34   6 C        2.923    -0.033    28.813     8.803
    35   6 C        2.921    -0.032    28.806     8.801
    36   6 C        2.975    -0.001    28.052     8.688
    37   6 C        3.181     0.143    24.493     8.079
    38   7 N        1.885    -0.319    29.122     8.000
    39   6 C        3.190     0.068    26.004     8.318
    40   6 C        2.910    -0.048    29.181     8.858
    41   6 C        2.922    -0.042    29.033     8.836
    42   6 C        2.926    -0.039    28.974     8.827
    43   6 C        2.907    -0.054    29.335     8.881
    44   6 C        3.087     0.036    27.097     8.533
    45   7 N        2.824    -0.058    22.366     7.024
    46   6 C        2.912     0.064    26.565     8.452
    47   6 C        2.922    -0.041    29.023     8.835
    48   6 C        2.920    -0.027    28.667     8.780
    49   6 C        2.919    -0.029    28.735     8.790
    50   6 C        2.920    -0.025    28.627     8.774
    51   6 C        2.922    -0.039    28.968     8.826
    52   6 C        2.925    -0.028    28.692     8.784
    53   6 C        2.923    -0.032    28.788     8.799
    54   6 C        2.924    -0.031    28.782     8.798
    55   6 C        2.918    -0.037    28.928     8.820
    56   6 C        2.921    -0.036    28.898     8.815
    57   6 C        2.925    -0.035    28.862     8.810
    58   6 C        2.982    -0.000    28.029     8.684
    59   6 C        2.977     0.015    27.669     8.628
    60   6 C        2.924    -0.033    28.814     8.803
    61   6 C        2.919    -0.030    28.761     8.794
    62   6 C        2.920    -0.032    28.788     8.799
    63   6 C        2.919    -0.030    28.750     8.793
    64   6 C        2.925    -0.032    28.805     8.801
    65   6 C        2.982     0.001    28.009     8.681
    66   6 C        2.978     0.016    27.657     8.626
    67   6 C        2.925    -0.032    28.800     8.801
    68   6 C        2.919    -0.031    28.763     8.795
    69   6 C        2.920    -0.032    28.801     8.801
    70   6 C        2.919    -0.031    28.762     8.795
    71   6 C        2.925    -0.032    28.796     8.800
    72   6 C        2.982    -0.001    28.036     8.685
    73   6 C        2.977     0.016    27.651     8.626
    74   6 C        2.925    -0.032    28.799     8.801
    75   6 C        2.919    -0.031    28.763     8.795
    76   6 C        2.920    -0.032    28.802     8.801
    77   6 C        2.919    -0.031    28.763     8.795
    78   6 C        2.924    -0.032    28.806     8.802
    79   6 C        2.925    -0.035    28.869     8.811
    80   6 C        2.918    -0.031    28.771     8.796
    81   1 H        0.926     0.030     2.582     2.513
    82   1 H        0.926     0.030     2.581     2.512
    83   1 H        0.926     0.029     2.601     2.522
    84   1 H        0.926     0.038     2.480     2.463
    85   1 H        0.926     0.038     2.473     2.459
    86   1 H        0.926     0.041     2.435     2.440
    87   1 H        0.926     0.043     2.410     2.428
    88   1 H        0.926     0.032     2.557     2.501
    89   1 H        0.926     0.032     2.563     2.504
    90   1 H        0.926     0.034     2.524     2.485
    91   1 H        0.926     0.037     2.494     2.470
    92   1 H        0.926     0.032     2.552     2.498
    93   1 H        0.926     0.032     2.559     2.501
    94   1 H        0.926     0.030     2.587     2.515
    95   1 H        0.926     0.039     2.463     2.454
    96   1 H        0.926     0.050     2.321     2.382
    97   1 H        0.926     0.044     2.391     2.418
    98   1 H        0.926     0.033     2.543     2.494
    99   1 H        0.926     0.038     2.476     2.461
   100   1 H        0.926     0.034     2.532     2.488
   101   1 H        0.926     0.035     2.515     2.480
   102   1 H        0.926     0.032     2.556     2.500
   103   1 H        0.926     0.042     2.416     2.431
   104   1 H        0.926     0.046     2.373     2.409
   105   1 H        0.926     0.045     2.378     2.411
   106   1 H        0.926     0.046     2.374     2.409
   107   1 H        0.926     0.036     2.500     2.473
   108   1 H        0.926     0.048     2.341     2.393
   109   1 H        0.926     0.046     2.370     2.407
   110   1 H        0.926     0.050     2.320     2.382
   111   1 H        0.926     0.044     2.400     2.423
   112   1 H        0.926     0.030     2.591     2.517
   113   1 H        0.926     0.040     2.449     2.447
   114   1 H        0.926     0.028     2.617     2.530
   115   1 H        0.926     0.031     2.579     2.511
   116   1 H        0.926     0.031     2.572     2.508
   117   1 H        0.926     0.030     2.583     2.513
   118   1 H        0.926     0.027     2.634     2.538
   119   1 H        0.926     0.027     2.628     2.535
   120   1 H        0.926     0.030     2.583     2.513
   121   1 H        0.926     0.031     2.577     2.510
   122   1 H        0.926     0.030     2.582     2.513
   123   1 H        0.926     0.027     2.627     2.535
   124   1 H        0.926     0.027     2.626     2.534
   125   1 H        0.926     0.030     2.585     2.514
   126   1 H        0.926     0.030     2.581     2.512
   127   1 H        0.926     0.030     2.587     2.515
   128   1 H        0.926     0.027     2.625     2.533
   129   1 H        0.926     0.032     2.564     2.504
   130   1 H        0.926     0.030     2.585     2.514

molecular dipole:
                 x           y           z       tot (Debye)
 q only:       -0.327       1.499       0.640
   full:       -0.108       1.781       0.794       4.964

 projected vibrational frequencies (cm⁻¹)
eigval :       -0.00    -0.00     0.00     0.00     0.00     0.00
eigval :        5.78    10.18    12.43    15.34    16.54    21.30
eigval :       22.32    24.99    28.65    32.54    35.72    42.52
eigval :       46.36    49.00    50.68    53.16    60.63    65.07
eigval :       68.54    69.19    72.08    74.23    76.47    76.82
eigval :       79.59    84.07    87.98    94.33    97.85   100.60
eigval :      107.91   117.06   120.85   126.71   135.95   153.59
eigval :      176.28   184.47   196.20   202.36   204.47   210.09
eigval :      213.30   219.64   227.99   232.90   237.86   242.01
eigval :      250.49   254.49   257.84   265.62   269.20   288.54
eigval :      299.74   305.91   317.19   346.89   349.41   360.38
eigval :      368.74   372.71   374.18   374.39   374.96   375.62
eigval :      377.13   379.80   380.56   382.39   393.00   395.93
eigval :      399.55   405.36   409.01   425.66   439.45   441.83
eigval :      448.68   463.02   465.95   481.13   485.20   488.81
eigval :      494.22   502.57   507.08   516.53   520.19   532.05
eigval :      536.03   540.77   543.30   547.96   564.37   579.64
eigval :      581.23   583.75   584.91   587.13   587.98   590.22
eigval :      592.04   597.42   598.12   606.56   608.38   610.73
eigval :      615.03   618.43   637.73   646.92   649.99   654.85
eigval :      660.21   663.34   667.75   668.52   670.80   673.54
eigval :      676.92   681.54   684.30   686.93   687.45   696.03
eigval :      705.84   709.09   709.27   715.82   723.33   725.26
eigval :      736.02   744.49   759.45   762.92   763.58   765.35
eigval :      765.55   769.11   774.19   781.97   783.05   795.88
eigval :      811.90   818.43   835.72   838.37   861.12   867.31
eigval :      868.31   869.59   870.16   870.95   873.84   875.59
eigval :      876.53   876.64   878.49   878.68   878.98   884.13
eigval :      886.56   897.95   900.16   901.30   902.07   904.40
eigval :      905.48   906.26   912.45   915.20   919.21   921.35
eigval :      921.80   922.98   926.70   926.96   927.76   928.40
eigval :      928.59   929.45   929.56   930.02   930.49   932.47
eigval :      932.70   935.06   935.15   937.47   939.21   947.78
eigval :      952.23   960.62   969.61   981.15   986.89   991.75
eigval :     1003.93  1014.28  1025.52  1030.91  1040.70  1060.26
eigval :     1069.68  1073.47  1078.26  1079.93  1083.55  1083.99
eigval :     1085.01  1085.11  1089.99  1106.62  1115.76  1119.58
eigval :     1120.10  1120.29  1121.56  1131.71  1133.12  1134.23
eigval :     1135.46  1135.86  1139.94  1141.13  1151.55  1173.27
eigval :     1174.16  1176.47  1180.75  1181.36  1181.69  1181.71
eigval :     1183.33  1184.01  1188.27  1189.57  1189.84  1197.75
eigval :     1197.77  1198.38  1200.87  1202.13  1203.74  1206.41
eigval :     1207.02  1242.73  1251.66  1253.94  1255.12  1258.46
eigval :     1264.02  1267.81  1270.12  1274.87  1279.35  1281.32
eigval :     1281.46  1282.18  1284.36  1286.40  1293.11  1294.19
eigval :     1294.94  1303.94  1309.70  1313.16  1314.15  1314.35
eigval :     1315.75  1316.94  1317.46  1317.87  1322.66  1326.88
eigval :     1337.85  1345.21  1359.86  1360.92  1371.60  1376.43
eigval :     1391.68  1393.80  1406.08  1406.83  1408.92  1415.26
eigval :     1418.51  1423.87  1427.79  1430.02  1430.73  1433.12
eigval :     1433.50  1434.94  1440.90  1464.49  1473.49  1476.22
eigval :     1477.51  1480.77  1486.15  1488.70  1493.07  1497.33
eigval :     1513.17  1515.65  1532.37  1535.21  1545.57  1555.83
eigval :     1557.38  1561.61  1563.93  1566.92  1569.27  1580.59
eigval :     1581.17  1582.19  1582.26  1583.25  1586.67  1589.97
eigval :     1592.63  1593.10  1597.44  1598.43  1599.13  1600.01
eigval :     1600.60  1601.07  1603.42  1614.26  3065.31  3066.00
eigval :     3066.22  3067.30  3067.82  3068.71  3068.87  3069.12
eigval :     3069.79  3072.92  3073.82  3074.64  3075.14  3075.55
eigval :     3075.90  3076.15  3077.96  3078.02  3078.50  3078.78
eigval :     3079.60  3079.74  3079.98  3080.97  3080.99  3083.31
eigval :     3083.36  3083.51  3084.18  3085.01  3087.77  3088.17
eigval :     3088.64  3088.76  3089.27  3089.51  3091.28  3092.04
eigval :     3093.07  3093.71  3094.53  3095.78  3097.07  3098.95
eigval :     3099.08  3099.72  3100.25  3102.61  3108.91  3113.64

   temp. (K)  partition function   enthalpy   heat capacity  entropy
                                   cal/mol     cal/K/mol   cal/K/mol   J/K/mol
 298.15  VIB  0.266E+32            38188.218    236.417    242.381
         ROT  0.442E+09              888.752      2.981     42.541
         INT  0.117E+41            39076.971    239.398    284.922
         TR   0.315E+29             1481.254      4.968     46.617
         TOT                       40558.2247   244.3664   331.5391  1387.1596

       T/K    H(0)-H(T)+PV         H(T)/Eh          T*S/Eh         G(T)/Eh
   ------------------------------------------------------------------------
    298.15    0.646336E-01    0.106766E+01    0.157525E+00    0.910132E+00
   ------------------------------------------------------------------------

         :::::::::::::::::::::::::::::::::::::::::::::::::::::
         ::                  THERMODYNAMIC                  ::
         :::::::::::::::::::::::::::::::::::::::::::::::::::::
         :: total free energy        -199.185801477860 Eh   ::
         ::.................................................::
         :: total energy             -200.095933726946 Eh   ::
         :: zero point energy           1.003023526420 Eh   ::
         :: G(RRHO) w/o ZPVE           -0.092891277334 Eh   ::
         :: G(RRHO) contrib.            0.910132249086 Eh   ::
         :::::::::::::::::::::::::::::::::::::::::::::::::::::

           -------------------------------------------------
          | TOTAL ENERGY             -200.095933726946 Eh   |
          | TOTAL ENTHALPY           -199.028276555376 Eh   |
          | TOTAL FREE ENERGY        -199.185801477860 Eh   |
          | GRADIENT NORM               0.000030208848 Eh/α |
          | HOMO-LUMO GAP               2.504919524018 eV   |
           -------------------------------------------------

 * finished run on 2025/08/21 at 20:52:42.910
