   * xtb version 6.7.1 (edcfbbe) compiled by 'albert@albert-system' on 2024-07-22

   ID    Z sym.   atoms
    1    6 C      1-12, 14-27, 29-37, 39-44, 46-80
    2    7 N      13, 28, 38, 45
    3    1 H      81-130

          program call               : xtb data2507/toluene/TPBPPI-PBI/TPBPPI-PBI_toluene_T1_crest.xyz --gfn 2 --uhf 2 --gbsa toluene --ohess vtight --parallel 40 --molden --ceasefiles --namespace data2507/toluene/TPBPPI-PBI/TPBPPI-PBI_toluene_T1_finalOpt
      * Solvation model:               GBSA
        Solvent                        toluene
        Solvent mass                       9.2140E+01 g/mol
          :  Hamiltonian                  GFN2-xTB          :
 * total energy  :  -200.0044636 Eh     change       -0.1935206E-08 Eh
 * total energy  :  -200.0045663 Eh     change       -0.1027158E-03 Eh
 * total energy  :  -200.0046832 Eh     change       -0.1169026E-03 Eh
 * total energy  :  -200.0047438 Eh     change       -0.6062912E-04 Eh
 * total energy  :  -200.0048283 Eh     change       -0.8444968E-04 Eh
 * total energy  :  -200.0048866 Eh     change       -0.5831290E-04 Eh
 * total energy  :  -200.0049253 Eh     change       -0.3868508E-04 Eh
 * total energy  :  -200.0049478 Eh     change       -0.2249750E-04 Eh
 * total energy  :  -200.0049741 Eh     change       -0.2637035E-04 Eh
 * total energy  :  -200.0049913 Eh     change       -0.1721972E-04 Eh
 * total energy  :  -200.0053529 Eh     change       -0.1278356E-05 Eh
 * total energy  :  -200.0053542 Eh     change       -0.1294846E-05 Eh
 * total energy  :  -200.0053554 Eh     change       -0.1238832E-05 Eh
 * total energy  :  -200.0053564 Eh     change       -0.1034001E-05 Eh
 * total energy  :  -200.0053573 Eh     change       -0.8761190E-06 Eh
 * total energy  :  -200.0053583 Eh     change       -0.9410434E-06 Eh
 * total energy  :  -200.0053593 Eh     change       -0.1004556E-05 Eh
 * total energy  :  -200.0053605 Eh     change       -0.1186836E-05 Eh
 * total energy  :  -200.0053605 Eh     change       -0.3258776E-08 Eh
   *** GEOMETRY OPTIMIZATION CONVERGED AFTER 122 ITERATIONS ***

 final structure:
================
130
 xtb: 6.7.1 (edcfbbe)
C            5.48732126547717        1.37317264572550        0.72116951291982
C            5.65967327323185        0.42550694907913       -0.27454826099541
C            4.74446269200578       -0.59990920918686       -0.42431954623398
C            3.64218348564348       -0.69335427646443        0.42163470206765
C            2.66464736110059       -1.78941200441234        0.27719800794456
C            1.31332117856992       -1.48665429947045        0.18451801263932
C            0.35245940209775       -2.47774443803313        0.01813285045996
C           -1.06288222162999       -2.07557848637458       -0.04252981076014
C           -2.03774943298368       -2.68720406336387        0.74376172408139
C           -3.34103698088381       -2.23128681131969        0.73532998374317
C           -3.69830561258028       -1.13682612334413       -0.04872232404321
C           -5.03433597057939       -0.56059632844888        0.03127732275529
N           -6.17029261054266       -1.19427693565102       -0.09343902983954
C           -7.13882602126077       -0.24165453474049        0.00170275719090
C           -8.54624481876708       -0.41023313557890       -0.09269709135572
C           -9.11273731785507       -1.66755295534019       -0.33889315838982
C          -10.47353498089046       -1.80491981670044       -0.45806998017614
C          -11.28747451027987       -0.68022606617864       -0.33700969940975
C          -10.74271020146951        0.55982452080042       -0.08794464538606
C           -9.35899838185416        0.74041681138041        0.05112590702198
C           -8.75914258570213        2.03255894477594        0.34507207353015
C           -9.53834471174764        3.17370651171621        0.57945132192308
C           -8.97443335758200        4.39129915360152        0.88708058912526
C           -7.59238369472146        4.51924743631400        0.98605601403155
C           -6.79212744058313        3.42597226193832        0.75954725935641
C           -7.34765330391362        2.18084261865866        0.43057149964704
C           -6.56172688398483        1.01768668945924        0.20557310343476
N           -5.20951233864180        0.79921823837153        0.22303914898548
C           -4.11958196588141        1.66480345178200        0.41409820405539
C           -3.25239501893710        1.42836492108053        1.48865452520317
C           -2.07855014074014        2.12139796577683        1.60114375485645
C           -1.67330551349559        3.05539156714239        0.61274736473658
C           -0.36217327367159        3.61005751276225        0.62944916928133
C            0.26477412523778        4.09491048093613       -0.55861366105325
C            1.58048042684024        4.42395411456702       -0.59590369667779
C            2.39834018540199        4.33914705116685        0.57452413869613
C            3.77851737461050        4.55164336075676        0.60432706086588
N            4.45202845664318        4.77419714028695        1.75472306294582
C            5.71660804970763        5.03968210540551        1.41004036246545
C            6.82402423078115        5.34617809701752        2.21647231393038
C            8.03637693465937        5.54080335598263        1.59620147426396
C            8.17943273272177        5.43324285203172        0.20752142988504
C            7.10204106380684        5.13831693497270       -0.61616328896480
C            5.87359101506648        4.95848790590532       -0.01103579616746
N            4.63395217586639        4.64137187883764       -0.50496665979275
C            4.38987680285392        4.21568736399962       -1.82040954898881
C            4.74404632374206        5.03014457920068       -2.89214010219685
C            4.53199966450213        4.59242356608304       -4.18732402026449
C            3.96908246305036        3.34830952581776       -4.42137939365257
C            3.61735207086765        2.53743566161045       -3.35314286567853
C            3.82807104461928        2.96195374232195       -2.05551641938253
C            1.72682212947529        4.03648465207324        1.80391809332205
C            0.42577157114972        3.66142131767378        1.82206888354496
C           -2.60603578440731        3.33100978539888       -0.42199470686645
C           -3.79820794692275        2.66303079905103       -0.51586321611206
C           -2.73785916515414       -0.55798686822909       -0.87805698668956
C           -1.43995873296358       -1.02043897659190       -0.87154357454210
C            0.75510825359839       -3.81576492011881       -0.06320467349945
C           -0.24387524979211       -4.88248120120485       -0.27675153816343
C           -0.35808397581464       -5.94373602505826        0.61618871188151
C           -1.29514519468304       -6.93843983832710        0.40580084139753
C           -2.12779338360398       -6.88852734007804       -0.69999664229056
C           -2.02211413640626       -5.83491741414401       -1.59277565141168
C           -1.08847569370229       -4.83716411820330       -1.38218476987011
C            2.11348498914639       -4.13377812091879        0.03823980459612
C            2.54259986303668       -5.54741574548229       -0.04346371522019
C            3.21422466007151       -6.14528312460642        1.01784271623022
C            3.61117218829524       -7.46754018721637        0.93966385955914
C            3.34808854531592       -8.20688569102515       -0.20149562537287
C            2.68251226640513       -7.61808377340188       -1.26375093650148
C            2.27931327411923       -6.29787403499588       -1.18475105547630
C            3.07008939574824       -3.12848053824057        0.21173198897952
C            4.49886026573829       -3.48165715040946        0.34129138891140
C            5.20978508372099       -3.10834401576860        1.47795075124547
C            6.54513477020635       -3.44120986781536        1.61053614983723
C            7.18997279801491       -4.14475430811818        0.60678974121643
C            6.49118996404389       -4.51581660221500       -0.53001046090169
C            5.15403344024622       -4.18968861272657       -0.66159262748535
C            3.46352510320348        0.28034640914653        1.40106851880987
C            4.38283986830678        1.30286430909478        1.55369581638535
H            6.20840403266704        2.16867937315995        0.84653934916178
H            6.51094445500906        0.48715938511967       -0.93728250684756
H            4.87986807199546       -1.33057316502833       -1.20772926476360
H            1.00012940674971       -0.45384481870369        0.24586167028932
H           -1.76558658306534       -3.50823259735446        1.38926281034476
H           -4.08767858665380       -2.69613324675605        1.36157985003898
H           -8.44576797436712       -2.51047567758236       -0.43677808789200
H          -10.91248209930040       -2.77280082547180       -0.64977671251321
H          -12.35836907938380       -0.78125963343467       -0.43800188962175
H          -11.41196169769063        1.40115164852582       -0.00539498125167
H          -10.61313917753013        3.10927287984777        0.53066654137462
H           -9.60867482239540        5.24802981933790        1.06111038417125
H           -7.15046356273236        5.47076407660487        1.24207160841390
H           -5.72080032152543        3.51794603826252        0.84818358710361
H           -3.51773127277260        0.67798676890586        2.21950774228414
H           -1.41879148266490        1.89397726328744        2.42250139104286
H           -0.31023709687306        4.15796785646888       -1.46946339711027
H            2.01300486849060        4.78311093953776       -1.51664159134248
H            6.70921838372816        5.41764296696866        3.28634032212279
H            8.90674798118743        5.77718520102799        2.19091037641103
H            9.15371543493655        5.58203719199508       -0.23345827375515
H            7.22641060172589        5.04419772640421       -1.68437201291185
H            5.16615130981553        6.00647318529845       -2.70399138005515
H            4.80432895636632        5.22945008498692       -5.01576336663287
H            3.80505902531067        3.01137188585173       -5.43377588010444
H            3.18349266772991        1.56446924526029       -3.52882696093324
H            3.56855840844620        2.33242264804208       -1.21771491760209
H            2.31103487009950        4.08705759290031        2.70916474505967
H           -0.04143849580234        3.43089045867572        2.76728356781944
H           -2.37926854564608        4.09227989416520       -1.15153029405238
H           -4.48443606913644        2.87421099013984       -1.32447827754732
H           -3.01209393829121        0.25360513163491       -1.53531181240700
H           -0.70604257079111       -0.56123137028922       -1.51760270244028
H            0.28357363861505       -5.98059264806985        1.48468289663100
H           -1.37569934311606       -7.75583102025126        1.10791257411166
H           -2.85769069614591       -7.66768735847064       -0.86469192050507
H           -2.66972727650265       -5.79002037563716       -2.45661935758144
H           -1.00270927275055       -4.01931550798647       -2.08356597735753
H            3.41650072709808       -5.57154465770671        1.91108800504441
H            4.12881628434570       -7.92222180866610        1.77218801501009
H            3.66068580810343       -9.23920891478992       -0.26301865797070
H            2.47550874171336       -8.18972483677290       -2.15713694104169
H            1.76334717047404       -5.83869783922873       -2.01596914215188
H            4.70765198494159       -2.56220054495775        2.26396044713238
H            7.08479630819639       -3.14956782983574        2.50022076532003
H            8.23384795585829       -4.40314987380133        0.71034054467764
H            6.98957131847203       -5.06269505294993       -1.31757871917250
H            4.61365717609316       -4.47481982150766       -1.55282548760537
H            2.60991241419910        0.22099172816861        2.06122497262851
H            4.23928583739848        2.05148633416011        2.31902921705720

          :  Hamiltonian                  GFN2-xTB          :
         :: gradient norm              0.000042215167 Eh/a0 ::
         :: HOMO-LUMO gap              0.544608150624 eV    ::
         :: SCC energy              -203.806972479292 Eh    ::
         :: -> dispersion             -0.209643018436 Eh    ::
         :: -> Gsolv                  -0.078505488784 Eh    ::
         :: repulsion energy           3.801612020957 Eh    ::

    * Orbital Energies and Occupations

         #    Occupation            Energy/Eh            Energy/eV
      -------------------------------------------------------------
         1        2.0000           -0.6949526             -18.9106
       ...           ...                  ...                  ...
       176        2.0000           -0.3991456             -10.8613
       177        2.0000           -0.3976038             -10.8194
       178        2.0000           -0.3967848             -10.7971
       179        2.0000           -0.3931405             -10.6979
       180        2.0000           -0.3875825             -10.5467
       181        2.0000           -0.3871138             -10.5339
       182        2.0000           -0.3833410             -10.4312
       183        2.0000           -0.3826721             -10.4130
       184        2.0000           -0.3791165             -10.3163
       185        2.0000           -0.3787684             -10.3068
       186        1.9435           -0.3702169             -10.0741
       187        1.0565           -0.3648667              -9.9285
       188        1.0000           -0.2850323              -7.7561 (HOMO)
       189        0.0000           -0.2650180              -7.2115 (LUMO)
       190                         -0.2560379              -6.9671
       191                         -0.2536589              -6.9024
       192                         -0.2480029              -6.7485
       193                         -0.2441530              -6.6437
       194                         -0.2371513              -6.4532
       195                         -0.2347962              -6.3891
       196                         -0.2343071              -6.3758
       197                         -0.2325091              -6.3269
       198                         -0.2294236              -6.2429
       199                         -0.2255968              -6.1388
       ...                                ...                  ...
       370                          0.7223169              19.6552
      -------------------------------------------------------------
                  HL-Gap            0.0200143 Eh            0.5446 eV

     #   Z          covCN         q      C6AA      α(0)
     1   6 C        2.920    -0.029    28.714     8.787
     2   6 C        2.918    -0.030    28.746     8.792
     3   6 C        2.924    -0.032    28.800     8.801
     4   6 C        2.977     0.013    27.718     8.636
     5   6 C        2.976     0.004    27.933     8.669
     6   6 C        2.930    -0.042    29.039     8.837
     7   6 C        2.977     0.003    27.944     8.671
     8   6 C        2.978     0.019    27.589     8.616
     9   6 C        2.923    -0.029    28.734     8.790
    10   6 C        2.922    -0.028    28.699     8.785
    11   6 C        2.974    -0.001    28.041     8.686
    12   6 C        3.201     0.140    24.439     8.055
    13   7 N        1.887    -0.307    28.802     7.956
    14   6 C        3.211     0.063    25.967     8.294
    15   6 C        2.984    -0.001    28.043     8.687
    16   6 C        2.921    -0.031    28.765     8.795
    17   6 C        2.916    -0.030    28.749     8.792
    18   6 C        2.917    -0.031    28.765     8.795
    19   6 C        2.921    -0.035    28.859     8.810
    20   6 C        2.978    -0.002    28.062     8.689
    21   6 C        2.979     0.001    28.010     8.681
    22   6 C        2.922    -0.033    28.834     8.806
    23   6 C        2.916    -0.031    28.782     8.798
    24   6 C        2.916    -0.031    28.761     8.794
    25   6 C        2.919    -0.038    28.949     8.823
    26   6 C        2.978    -0.003    28.105     8.696
    27   6 C        3.071     0.026    27.361     8.577
    28   7 N        2.839    -0.044    22.085     6.980
    29   6 C        2.914     0.050    26.871     8.500
    30   6 C        2.915    -0.041    29.010     8.832
    31   6 C        2.921    -0.036    28.894     8.815
    32   6 C        2.969     0.009    27.812     8.650
    33   6 C        2.970     0.005    27.914     8.666
    34   6 C        2.914    -0.035    28.873     8.811
    35   6 C        2.910    -0.040    28.985     8.828
    36   6 C        2.968    -0.010    28.269     8.721
    37   6 C        3.136     0.136    24.824     8.155
    38   7 N        1.878    -0.326    29.312     8.026
    39   6 C        3.153     0.087    25.792     8.306
    40   6 C        2.908    -0.054    29.352     8.884
    41   6 C        2.918    -0.039    28.966     8.826
    42   6 C        2.924    -0.036    28.885     8.814
    43   6 C        2.905    -0.061    29.505     8.907
    44   6 C        3.064     0.050    26.808     8.490
    45   7 N        2.808    -0.070    22.602     7.061
    46   6 C        2.913     0.065    26.533     8.447
    47   6 C        2.921    -0.043    29.078     8.843
    48   6 C        2.920    -0.028    28.707     8.786
    49   6 C        2.919    -0.032    28.808     8.802
    50   6 C        2.920    -0.026    28.657     8.779
    51   6 C        2.921    -0.039    28.960     8.825
    52   6 C        2.917    -0.032    28.795     8.800
    53   6 C        2.913    -0.036    28.906     8.816
    54   6 C        2.920    -0.037    28.918     8.819
    55   6 C        2.912    -0.039    28.981     8.828
    56   6 C        2.923    -0.032    28.795     8.800
    57   6 C        2.925    -0.033    28.824     8.804
    58   6 C        2.981     0.001    28.005     8.681
    59   6 C        2.977     0.015    27.666     8.628
    60   6 C        2.924    -0.032    28.809     8.802
    61   6 C        2.919    -0.030    28.754     8.793
    62   6 C        2.920    -0.031    28.782     8.798
    63   6 C        2.919    -0.030    28.748     8.792
    64   6 C        2.925    -0.032    28.804     8.801
    65   6 C        2.982     0.001    27.991     8.679
    66   6 C        2.978     0.016    27.655     8.626
    67   6 C        2.925    -0.032    28.795     8.800
    68   6 C        2.919    -0.030    28.758     8.794
    69   6 C        2.920    -0.032    28.797     8.800
    70   6 C        2.919    -0.030    28.759     8.794
    71   6 C        2.925    -0.032    28.796     8.800
    72   6 C        2.982     0.001    28.004     8.680
    73   6 C        2.977     0.016    27.651     8.626
    74   6 C        2.925    -0.032    28.794     8.800
    75   6 C        2.919    -0.030    28.759     8.794
    76   6 C        2.920    -0.032    28.796     8.800
    77   6 C        2.919    -0.031    28.762     8.795
    78   6 C        2.924    -0.032    28.805     8.802
    79   6 C        2.925    -0.034    28.855     8.809
    80   6 C        2.918    -0.030    28.743     8.792
    81   1 H        0.926     0.017     2.778     2.606
    82   1 H        0.926     0.028     2.614     2.528
    83   1 H        0.926     0.032     2.562     2.503
    84   1 H        0.926     0.037     2.496     2.470
    85   1 H        0.926     0.043     2.414     2.429
    86   1 H        0.926     0.042     2.424     2.435
    87   1 H        0.926     0.047     2.354     2.399
    88   1 H        0.926     0.037     2.488     2.466
    89   1 H        0.926     0.037     2.487     2.466
    90   1 H        0.926     0.040     2.453     2.449
    91   1 H        0.926     0.041     2.433     2.439
    92   1 H        0.926     0.037     2.492     2.469
    93   1 H        0.926     0.036     2.509     2.477
    94   1 H        0.926     0.035     2.511     2.478
    95   1 H        0.926     0.032     2.565     2.504
    96   1 H        0.926     0.044     2.396     2.421
    97   1 H        0.926     0.037     2.488     2.466
    98   1 H        0.926     0.026     2.643     2.542
    99   1 H        0.926     0.038     2.481     2.463
   100   1 H        0.926     0.035     2.517     2.481
   101   1 H        0.926     0.037     2.495     2.470
   102   1 H        0.926     0.031     2.576     2.510
   103   1 H        0.926     0.040     2.449     2.447
   104   1 H        0.926     0.044     2.402     2.424
   105   1 H        0.926     0.044     2.402     2.424
   106   1 H        0.926     0.042     2.416     2.431
   107   1 H        0.926     0.033     2.537     2.491
   108   1 H        0.926     0.048     2.349     2.397
   109   1 H        0.926     0.038     2.472     2.459
   110   1 H        0.926     0.044     2.399     2.422
   111   1 H        0.925     0.038     2.479     2.462
   112   1 H        0.926     0.033     2.549     2.497
   113   1 H        0.926     0.042     2.423     2.434
   114   1 H        0.926     0.029     2.604     2.523
   115   1 H        0.926     0.031     2.566     2.505
   116   1 H        0.926     0.032     2.557     2.501
   117   1 H        0.926     0.031     2.565     2.505
   118   1 H        0.926     0.028     2.621     2.532
   119   1 H        0.926     0.027     2.625     2.533
   120   1 H        0.926     0.031     2.577     2.510
   121   1 H        0.926     0.031     2.569     2.507
   122   1 H        0.926     0.031     2.572     2.508
   123   1 H        0.926     0.028     2.617     2.530
   124   1 H        0.926     0.027     2.627     2.535
   125   1 H        0.926     0.030     2.583     2.513
   126   1 H        0.926     0.031     2.571     2.508
   127   1 H        0.926     0.031     2.572     2.508
   128   1 H        0.926     0.029     2.607     2.525
   129   1 H        0.926     0.033     2.547     2.496
   130   1 H        0.926     0.033     2.541     2.493

molecular dipole:
                 x           y           z       tot (Debye)
 q only:       -0.664      -0.563      -1.016
   full:       -0.352      -0.178      -1.263       3.364

 projected vibrational frequencies (cm⁻¹)
eigval :       -0.00    -0.00    -0.00     0.00     0.00     0.00
eigval :        8.33    10.85    14.65    16.60    19.09    20.70
eigval :       23.05    27.30    29.09    30.12    40.00    42.75
eigval :       46.77    51.73    57.34    58.20    64.89    66.08
eigval :       71.20    72.47    74.62    75.63    78.67    80.13
eigval :       83.03    88.05    92.99    95.96   100.82   108.42
eigval :      115.01   120.85   122.67   134.80   136.25   145.58
eigval :      174.93   178.66   194.99   202.87   205.27   209.60
eigval :      213.41   219.97   229.71   233.44   239.56   241.61
eigval :      249.14   251.84   256.94   264.76   266.86   276.36
eigval :      283.76   303.19   314.46   331.65   341.39   357.58
eigval :      361.71   368.66   370.62   374.80   375.51   376.41
eigval :      377.27   378.77   380.12   382.16   385.69   391.96
eigval :      396.60   402.47   410.19   412.30   425.08   435.65
eigval :      446.68   449.13   460.77   466.91   473.62   479.08
eigval :      487.76   493.06   501.92   506.47   516.62   518.69
eigval :      519.38   532.61   533.23   541.05   560.45   574.74
eigval :      579.75   581.02   583.73   583.79   586.21   587.25
eigval :      587.58   590.08   595.32   599.80   604.56   605.94
eigval :      609.26   612.38   618.34   632.04   640.29   647.95
eigval :      652.51   657.60   662.98   667.06   668.64   670.08
eigval :      673.61   674.56   676.99   680.27   685.94   686.59
eigval :      692.91   698.75   703.32   707.65   720.18   725.10
eigval :      734.29   744.66   748.36   754.22   758.59   761.45
eigval :      762.99   765.24   765.94   778.44   780.05   790.00
eigval :      793.16   801.85   811.78   818.72   829.59   837.28
eigval :      843.91   857.57   861.08   868.19   868.71   871.44
eigval :      873.74   875.09   875.94   876.33   878.50   879.17
eigval :      880.89   888.76   898.06   901.02   901.08   903.27
eigval :      904.48   905.27   906.34   907.90   909.71   911.69
eigval :      914.67   917.57   918.40   923.01   924.09   927.25
eigval :      927.61   928.28   929.75   930.09   930.60   930.77
eigval :      930.99   931.95   934.01   934.31   935.49   938.44
eigval :      939.22   946.67   954.56   968.13   980.93   986.88
eigval :      992.17   999.17  1008.03  1017.37  1024.87  1039.85
eigval :     1052.42  1065.69  1073.07  1077.38  1082.46  1082.88
eigval :     1083.16  1083.42  1084.28  1089.03  1104.19  1118.11
eigval :     1119.13  1119.51  1120.00  1120.14  1120.44  1128.10
eigval :     1128.74  1134.99  1140.82  1144.98  1147.17  1156.77
eigval :     1164.25  1171.01  1177.88  1179.73  1180.96  1181.31
eigval :     1181.58  1181.98  1182.68  1185.21  1187.76  1188.54
eigval :     1196.09  1196.24  1198.93  1200.14  1202.10  1202.96
eigval :     1203.11  1227.34  1242.46  1246.46  1249.83  1252.81
eigval :     1253.23  1255.42  1264.31  1268.67  1275.51  1277.88
eigval :     1278.14  1280.16  1280.56  1281.35  1282.88  1293.17
eigval :     1294.66  1295.43  1298.88  1303.83  1312.96  1313.75
eigval :     1315.54  1315.77  1316.74  1317.78  1324.09  1332.11
eigval :     1334.80  1337.36  1351.54  1356.73  1360.33  1362.02
eigval :     1375.70  1392.19  1394.16  1401.43  1403.37  1405.84
eigval :     1416.77  1423.26  1424.26  1427.69  1428.18  1429.94
eigval :     1431.24  1432.66  1433.43  1439.94  1449.56  1467.66
eigval :     1468.00  1472.37  1476.12  1476.46  1479.41  1487.84
eigval :     1488.50  1491.52  1504.45  1506.30  1509.05  1530.85
eigval :     1544.89  1545.77  1551.24  1553.04  1558.53  1560.42
eigval :     1568.24  1573.24  1575.94  1580.41  1580.75  1581.08
eigval :     1581.55  1582.93  1586.80  1589.27  1594.40  1597.73
eigval :     1599.22  1599.58  1600.10  1600.56  3065.56  3066.46
eigval :     3066.63  3067.30  3067.82  3068.83  3069.62  3069.67
eigval :     3072.81  3074.16  3075.06  3075.36  3075.68  3075.82
eigval :     3075.96  3076.10  3076.44  3077.95  3078.40  3078.48
eigval :     3078.87  3080.48  3080.64  3081.35  3081.38  3083.44
eigval :     3084.04  3085.48  3086.03  3086.67  3087.56  3088.05
eigval :     3088.48  3089.01  3089.78  3090.67  3092.09  3092.49
eigval :     3094.38  3097.73  3098.01  3098.89  3099.98  3100.65
eigval :     3101.73  3102.35  3104.25  3105.38  3109.57  3111.06

   temp. (K)  partition function   enthalpy   heat capacity  entropy
                                   cal/mol     cal/K/mol   cal/K/mol   J/K/mol
 298.15  VIB  0.662E+31            38400.794    239.182    242.197
         ROT  0.360E+09              888.752      2.981     42.133
         INT  0.238E+40            39289.546    242.163    284.329
         TR   0.315E+29             1481.254      4.968     46.617
         TOT                       40770.8004   247.1311   330.9466  1384.6804

       T/K    H(0)-H(T)+PV         H(T)/Eh          T*S/Eh         G(T)/Eh
   ------------------------------------------------------------------------
    298.15    0.649724E-01    0.106378E+01    0.157243E+00    0.906539E+00
   ------------------------------------------------------------------------

         :::::::::::::::::::::::::::::::::::::::::::::::::::::
         ::                  THERMODYNAMIC                  ::
         :::::::::::::::::::::::::::::::::::::::::::::::::::::
         :: total free energy        -199.098821218729 Eh   ::
         ::.................................................::
         :: total energy             -200.005360456425 Eh   ::
         :: zero point energy           0.998810224945 Eh   ::
         :: G(RRHO) w/o ZPVE           -0.092270987249 Eh   ::
         :: G(RRHO) contrib.            0.906539237696 Eh   ::
         :::::::::::::::::::::::::::::::::::::::::::::::::::::

           -------------------------------------------------
          | TOTAL ENERGY             -200.005360456425 Eh   |
          | TOTAL ENTHALPY           -198.941577825344 Eh   |
          | TOTAL FREE ENERGY        -199.098821218729 Eh   |
          | GRADIENT NORM               0.000042331536 Eh/α |
          | HOMO-LUMO GAP               0.544617500652 eV   |
           -------------------------------------------------

 * finished run on 2025/08/21 at 21:14:28.362
