   * xtb version 6.7.1 (edcfbbe) compiled by 'albert@albert-system' on 2024-07-22

   ID    Z sym.   atoms
    1    6 C      1-9, 11-19, 21-25, 27-43, 45-52
    2    7 N      10, 20, 26, 44
    3    1 H      53-90

          program call               : xtb data2507/gas/AcCYP/AcCYP_gas_S0_finalOpt.xtbopt.xyz --gfn 2 --spinpol --tblite --uhf 2 --ohess vtight --parallel 40 --molden --ceasefiles --namespace data2507/gas/AcCYP/AcCYP_gas_T1_preOpt
 * total energy  :  -133.8057842 Eh     change       -0.1307396E-07 Eh
 * total energy  :  -133.8096399 Eh     change       -0.3855620E-02 Eh
 * total energy  :  -133.8109319 Eh     change       -0.1292009E-02 Eh
 * total energy  :  -133.8109407 Eh     change       -0.8817735E-05 Eh
 * total energy  :  -133.8112103 Eh     change       -0.2695703E-03 Eh
 * total energy  :  -133.8113291 Eh     change       -0.1188771E-03 Eh
 * total energy  :  -133.8114964 Eh     change       -0.1672553E-03 Eh
 * total energy  :  -133.8116310 Eh     change       -0.1345642E-03 Eh
 * total energy  :  -133.8117355 Eh     change       -0.1045173E-03 Eh
 * total energy  :  -133.8117985 Eh     change       -0.6305472E-04 Eh
 * total energy  :  -133.8124046 Eh     change       -0.9079285E-06 Eh
 * total energy  :  -133.8124056 Eh     change       -0.9191362E-06 Eh
 * total energy  :  -133.8124065 Eh     change       -0.9180049E-06 Eh
 * total energy  :  -133.8124074 Eh     change       -0.9102705E-06 Eh
 * total energy  :  -133.8124083 Eh     change       -0.9568818E-06 Eh
 * total energy  :  -133.8124094 Eh     change       -0.1019175E-05 Eh
 * total energy  :  -133.8124105 Eh     change       -0.1134366E-05 Eh
 * total energy  :  -133.8124118 Eh     change       -0.1252447E-05 Eh
 * total energy  :  -133.8124118 Eh     change       -0.6174417E-08 Eh
   *** GEOMETRY OPTIMIZATION CONVERGED AFTER 185 ITERATIONS ***

 final structure:
================
90
 xtb: 6.7.1 (edcfbbe)
C            8.36103101444137        3.35680970106269       -0.35144044250005
C            8.23542056068467        1.95586730097819        0.27662482114723
C            9.56180796831180        1.55185947272509        0.94773543370452
C            7.91983492048609        0.96448893851994       -0.82339591529168
C            8.80581525065623        0.81213631523820       -1.88104046845108
C            8.54983422573515       -0.04648977807302       -2.93383661765501
C            7.36298695175346       -0.76099269912006       -2.95396312476793
C            6.46718509269028       -0.63241553130183       -1.91670259467366
C            6.74063282240890        0.20535574111567       -0.82627842405689
N            5.83466403794960        0.28972412130460        0.21389123707795
C            4.67838508290051       -0.53252328513519        0.19014027149251
C            4.79557322212262       -1.91682810922953        0.34571989043499
C            3.68403988730729       -2.71956998702061        0.31867727976078
C            2.39294266540694       -2.17683305462829        0.12931082889484
C            1.20659498984280       -2.96333144815977        0.08692730235778
C            1.17528177459438       -4.39941840749648        0.11950436803059
C           -0.01692159723338       -5.04460820744603        0.10106966903069
C           -1.24323046478704       -4.32259800472475        0.04390201303242
C           -2.44958653631444       -4.99909384150230        0.08741150203178
N           -3.42560411965468       -5.61882323918415        0.15584105642683
C           -1.13324336897190       -2.89255299493830       -0.01999907898963
C           -2.29324815737565       -2.01040213124171       -0.11838677028848
C           -2.21593948753489       -0.73419742173845        0.45106533830201
C           -3.29039089991370        0.12558343341932        0.40784888923965
C           -4.46882327107043       -0.26771494357813       -0.22160947219745
N           -5.58998127434339        0.60763970649219       -0.24913724860969
C           -6.67348216685153        0.33238350714623        0.56534201284007
C           -6.63543603219337       -0.77820411271959        1.41830639602607
C           -7.70546963791391       -1.08438389166664        2.22930869711614
C           -8.83478829125571       -0.28261327295319        2.21397263328794
C           -8.86588168114469        0.82916635997018        1.39300481455515
C           -7.80249543247422        1.16277758344026        0.56534935975690
C           -7.88533943545328        2.41064827879585       -0.28965051775200
C           -8.06432758646724        3.62783747801635        0.63712584334941
C           -9.09081707680431        2.28248961681168       -1.23981429372915
C           -6.63590419856119        2.60991706875172       -1.12256611718260
C           -6.54450995546709        3.70686451473961       -1.96814883948221
C           -5.44051887178746        3.92325557419269       -2.77169562102132
C           -4.39680841236579        3.01306855541136       -2.75110679045508
C           -4.45914697987289        1.91627651839187       -1.92061142039585
C           -5.56358858474553        1.70804830062426       -1.08426395388218
C           -4.54675550726299       -1.52077810704471       -0.82026709309008
C           -3.47158324831610       -2.38344456201156       -0.76818481349779
N            0.03441508004896       -2.31696060529761        0.01361406033525
C            2.29889134917579       -0.77085282655141       -0.01973746632151
C            3.40807883413249        0.02900141678332        0.00808770519259
C            6.03019518972292        1.14895867191598        1.27825191761987
C            5.10691648399416        1.16687302772459        2.33315524025582
C            5.26016291769542        2.02984593921787        3.39469646991525
C            6.34685850281989        2.88818903253035        3.43551842765968
C            7.28113266698394        2.84709261650531        2.41734680878556
C            7.15344739476511        1.98695222424296        1.33543207806016
H            8.59895247479260        4.10037580421506        0.40379701589498
H            9.14340822659728        3.37499402056662       -1.10473617022092
H            7.42167140994152        3.63571850396120       -0.82510629543582
H            9.46622889154475        0.56244813285978        1.39099936140074
H            9.82877821158250        2.25443257459270        1.73203915673183
H           10.37064114702142        1.52678652001450        0.22306287861806
H            9.72371957157591        1.37988043931638       -1.89067422166120
H            9.26308499348285       -0.14518700824892       -3.73760751767792
H            7.13306104360768       -1.41592608346390       -3.78055401494788
H            5.53738855188505       -1.17753039393540       -1.94497580066410
H            5.77633059841546       -2.34473083761617        0.49992374671305
H            3.80791251650388       -3.78136046196222        0.46207817250710
H            2.09975726777154       -4.95017571902054        0.17345140046711
H           -0.06467192473096       -6.12455299140790        0.13272414281411
H           -1.30147064769811       -0.44311955849573        0.94504014337998
H           -3.23388972335364        1.10289965286765        0.86501003224768
H           -5.75630150513636       -1.40204748151324        1.44291055154077
H           -7.65566007410306       -1.94834981980131        2.87400245731024
H           -9.68094331072197       -0.51539569938618        2.84190843123497
H           -9.74688693551446        1.45267168897180        1.40274917501455
H           -8.96345048665262        3.52790056417054        1.23838661193380
H           -7.21079541091306        3.71174643777774        1.30722427246152
H           -8.14032845282363        4.54579437904560        0.06125085392891
H           -8.95767463509118        1.42182289339879       -1.89247444786615
H          -10.01247419875467        2.14959026901358       -0.68054655666098
H           -9.19301181120483        3.16954665028748       -1.85847122013228
H           -7.35702218862621        4.41628278954530       -2.00698145253209
H           -5.40063936212021        4.78870878489359       -3.41507896345655
H           -3.53445307304085        3.15515063755494       -3.38461836963940
H           -3.64941545447157        1.20392381489315       -1.91801623350186
H           -5.45706337045872       -1.81289060573890       -1.32265369503572
H           -3.54377768978967       -3.34608953283121       -1.24829506750623
H            1.31880728961550       -0.34773398178312       -0.17895341467941
H            3.32171726088018        1.09837711598752       -0.12413988228506
H            4.26909765486497        0.48858114749361        2.31481775937961
H            4.53370185362829        2.02919980602240        4.19303954867483
H            6.47428480728846        3.57298537198127        4.25974934128461
H            8.13513158117888        3.50461058734459        2.47490520229951

 projected vibrational frequencies (cm⁻¹)
eigval :       -0.00    -0.00     0.00     0.00     0.00     0.00
eigval :        7.12     7.32    10.69    19.12    19.77    21.65
eigval :       32.53    42.55    48.78    54.78    59.60    64.99
eigval :       83.78    96.18    98.74   101.42   103.70   112.80
eigval :      124.68   128.63   128.83   132.86   135.10   171.42
eigval :      187.79   190.53   191.67   193.28   202.09   216.26
eigval :      217.30   227.39   234.69   236.32   287.80   297.24
eigval :      301.66   303.16   311.80   328.99   329.04   336.10
eigval :      339.95   345.21   355.71   369.52   373.68   376.66
eigval :      378.59   379.51   385.92   394.91   404.75   410.90
eigval :      411.62   416.22   433.11   448.29   451.25   452.65
eigval :      466.83   491.63   506.92   508.20   509.17   514.44
eigval :      529.41   544.65   544.81   546.10   547.25   566.08
eigval :      572.40   577.48   582.72   588.62   594.81   599.77
eigval :      609.21   611.13   644.80   648.69   657.28   666.30
eigval :      683.33   685.72   686.60   694.22   698.29   699.80
eigval :      702.70   734.99   746.43   747.38   775.66   775.76
eigval :      777.21   777.42   790.01   811.50   824.11   825.96
eigval :      826.89   836.12   861.97   869.41   870.64   870.66
eigval :      871.41   875.05   896.44   905.95   908.94   910.52
eigval :      912.63   913.29   914.63   915.39   915.66   915.92
eigval :      916.90   921.82   922.78   923.06   923.17   923.62
eigval :      937.69   937.98   957.78   957.86   979.53   995.16
eigval :     1013.82  1013.93  1027.48  1049.38  1076.05  1076.48
eigval :     1084.18  1086.09  1106.82  1110.23  1115.46  1116.22
eigval :     1117.48  1119.53  1133.58  1138.56  1139.16  1140.09
eigval :     1153.82  1154.97  1169.78  1171.16  1184.35  1185.23
eigval :     1185.34  1185.88  1186.22  1193.27  1202.25  1208.03
eigval :     1227.72  1241.59  1242.64  1244.14  1246.44  1248.67
eigval :     1258.57  1260.83  1262.72  1266.54  1294.62  1295.13
eigval :     1295.57  1305.71  1311.49  1312.24  1321.23  1328.66
eigval :     1329.59  1331.01  1332.12  1334.95  1335.14  1352.61
eigval :     1391.14  1401.87  1402.21  1402.58  1420.03  1420.13
eigval :     1421.60  1427.58  1430.47  1431.53  1432.65  1446.27
eigval :     1458.03  1461.64  1462.83  1472.37  1480.80  1484.98
eigval :     1487.68  1488.20  1488.43  1488.99  1489.12  1498.91
eigval :     1498.97  1502.60  1502.87  1536.60  1541.82  1554.85
eigval :     1558.96  1562.36  1572.90  1575.75  1581.74  1583.67
eigval :     1587.88  1593.22  1596.89  2254.71  3028.68  3028.82
eigval :     3030.64  3030.82  3042.67  3042.89  3045.12  3045.34
eigval :     3051.49  3051.62  3054.86  3055.11  3063.24  3069.60
eigval :     3071.08  3079.58  3083.19  3083.49  3083.67  3084.00
eigval :     3087.63  3088.29  3088.88  3089.05  3090.87  3092.17
eigval :     3094.81  3096.76  3098.65  3099.18  3099.42  3100.15
eigval :     3102.88  3108.61  3112.03  3112.14  3112.52  3113.90

   temp. (K)  partition function   enthalpy   heat capacity  entropy
                                   cal/mol     cal/K/mol   cal/K/mol   J/K/mol
 298.15  VIB  0.138E+22            26420.100    164.792    165.373
         ROT  0.150E+09              888.752      2.981     40.397
         INT  0.208E+30            27308.852    167.773    205.770
         TR   0.168E+29             1481.254      4.968     45.371
         TOT                       28790.1062   172.7414   251.1410  1050.7739

       T/K    H(0)-H(T)+PV         H(T)/Eh          T*S/Eh         G(T)/Eh
   ------------------------------------------------------------------------
    298.15    0.458800E-01    0.752152E+00    0.119325E+00    0.632827E+00
   ------------------------------------------------------------------------

         :::::::::::::::::::::::::::::::::::::::::::::::::::::
         ::                  THERMODYNAMIC                  ::
         :::::::::::::::::::::::::::::::::::::::::::::::::::::
         :: total free energy        -133.179584625406 Eh   ::
         ::.................................................::
         :: total energy             -133.812411750340 Eh   ::
         :: zero point energy           0.706272360137 Eh   ::
         :: G(RRHO) w/o ZPVE           -0.073445235203 Eh   ::
         :: G(RRHO) contrib.            0.632827124934 Eh   ::
         :::::::::::::::::::::::::::::::::::::::::::::::::::::

           -------------------------------------------------
          | TOTAL ENERGY             -133.812411750340 Eh   |
          | TOTAL ENTHALPY           -133.060259435549 Eh   |
          | TOTAL FREE ENERGY        -133.179584625406 Eh   |
          | GRADIENT NORM               0.000075079690 Eh/α |
           -------------------------------------------------

 * finished run on 2025/07/18 at 07:23:48.924
