   * xtb version 6.7.1 (edcfbbe) compiled by 'albert@albert-system' on 2024-07-22

   ID    Z sym.   atoms
    1    6 C      1-9, 11-19, 21-25, 27-43, 45-52
    2    7 N      10, 20, 26, 44
    3    1 H      53-90

          program call               : xtb data2507/gas/AcCYP/AcCYP_gas_S0_crest.xyz --gfn 2 --ohess vtight --parallel 40 --molden --ceasefiles --namespace data2507/gas/AcCYP/AcCYP_gas_S0_finalOpt
          :  Hamiltonian                  GFN2-xTB          :
 * total energy  :  -133.8863568 Eh     change       -0.2136261E-08 Eh
 * total energy  :  -133.8863584 Eh     change       -0.1670422E-05 Eh
 * total energy  :  -133.8863576 Eh     change        0.8887499E-06 Eh
 * total energy  :  -133.8863607 Eh     change       -0.3165943E-05 Eh
 * total energy  :  -133.8863620 Eh     change       -0.1233131E-05 Eh
 * total energy  :  -133.8863642 Eh     change       -0.2254669E-05 Eh
 * total energy  :  -133.8863661 Eh     change       -0.1878423E-05 Eh
 * total energy  :  -133.8863676 Eh     change       -0.1516552E-05 Eh
 * total energy  :  -133.8863690 Eh     change       -0.1386302E-05 Eh
 * total energy  :  -133.8863704 Eh     change       -0.1421599E-05 Eh
 * total energy  :  -133.8863755 Eh     change       -0.1182058E-05 Eh
 * total energy  :  -133.8863768 Eh     change       -0.1264533E-05 Eh
 * total energy  :  -133.8863780 Eh     change       -0.1241822E-05 Eh
 * total energy  :  -133.8863791 Eh     change       -0.1036273E-05 Eh
 * total energy  :  -133.8863796 Eh     change       -0.5568259E-06 Eh
 * total energy  :  -133.8863799 Eh     change       -0.3076109E-06 Eh
 * total energy  :  -133.8863802 Eh     change       -0.2716889E-06 Eh
 * total energy  :  -133.8863804 Eh     change       -0.2439002E-06 Eh
 * total energy  :  -133.8863805 Eh     change       -0.7828390E-08 Eh
   *** GEOMETRY OPTIMIZATION CONVERGED AFTER 22 ITERATIONS ***

 final structure:
================
90
 xtb: 6.7.1 (edcfbbe)
C            8.46286374641112        3.24697150109729       -0.55686170768056
C            8.27669923743527        1.93222369622495        0.22248791628881
C            9.54145358894810        1.61274621463762        1.04018803805338
C            8.04171614633712        0.81194282644828       -0.77238359904514
C            9.01202185128476        0.53166002053475       -1.72485295380215
C            8.84323338018887       -0.45548705763846       -2.67765561521218
C            7.66431273472233       -1.17813336860911       -2.69897595176632
C            6.68430636660253       -0.92123041898288       -1.76371088531446
C            6.86466522830692        0.05656053048344       -0.78075000701072
N            5.86462372604704        0.28549521472166        0.15337781013422
C            4.69781823562232       -0.51851937792889        0.12305817322963
C            4.74889764420259       -1.83956378530019        0.55630572303758
C            3.61637364401918       -2.62811256392032        0.52090728075377
C            2.40849095346249       -2.11071684059607        0.05427460020959
C            1.18346552396799       -2.91385243352195        0.00025713907422
C            1.19505512571581       -4.31299993525752       -0.05380826286819
C           -0.00841989683366       -4.98476599156515       -0.06060453203624
C           -1.20287174173833       -4.25904863667981       -0.04797152116646
C           -2.42359978808287       -4.95963216198949        0.03159755933135
N           -3.38523305665805       -5.57904537967998        0.12543090261599
C           -1.12296481311603       -2.85072513916049       -0.05937003263869
C           -2.30596870439714       -1.98454436011048       -0.09962340477492
C           -2.26507594246693       -0.76194807245452        0.57132104953238
C           -3.35526313892860        0.08196367659841        0.55780279090856
C           -4.50343826940831       -0.27383355787173       -0.14442061761076
N           -5.62391569276667        0.59322943378035       -0.16267551587209
C           -6.76215839835744        0.24127570621415        0.55057321628258
C           -6.77339236646071       -0.93741604559353        1.30232665228790
C           -7.89241080061668       -1.31622105314518        2.01319597690327
C           -9.02211516584919       -0.51860671817252        1.99646652820445
C           -9.00366892818993        0.66154199189684        1.27730822953665
C           -7.89064762967375        1.06729085945573        0.55320705314627
C           -7.92705239776192        2.39104670534606       -0.18602028322607
C           -8.17122491061684        3.51604843153755        0.83640326585928
C           -9.06827738673426        2.35137898252768       -1.21877015302413
C           -6.62660230384533        2.66763374973975       -0.91539197583096
C           -6.49445496110552        3.83724771713839       -1.65156589677470
C           -5.34706002911364        4.13200186812299       -2.36372616295588
C           -4.30109448594938        3.22732758927397       -2.36144961660205
C           -4.40509701062662        2.05859663689199       -1.63736056434026
C           -5.55237625397675        1.77215350926932       -0.89105984793802
C           -4.54015240464278       -1.48022801001011       -0.83596016256195
C           -3.45194869131874       -2.32980015627709       -0.81270083836588
N            0.04381628468103       -2.23059450903418       -0.01548404698555
C            2.36232612700519       -0.77935280029724       -0.36359442857258
C            3.49357882806840        0.00816983808840       -0.33477127459811
C            5.97816388843289        1.27511270974938        1.11983445827853
C            4.96264174662528        1.43955972910068        2.06649776015022
C            5.04456685281743        2.41915051858701        3.03341181592552
C            6.14903067413546        3.25009424569333        3.08048372313088
C            7.16668489994993        3.07203362721347        2.16216277975223
C            7.11083916077059        2.09335449609618        1.17904323709649
H            8.64356567086123        4.07724442273281        0.12019543706877
H            9.30340023586020        3.17727855306343       -1.24170143345285
H            7.56643965684102        3.46406307614372       -1.13485770401181
H            9.40076080653240        0.68486285955106        1.59161226409251
H            9.75455696295573        2.40517079063953        1.75217025030626
H           10.40499742629509        1.49814111359039        0.39092973845488
H            9.92966865277941        1.10020646567922       -1.72993662088033
H            9.61995503189333       -0.64944435664461       -3.40146520133614
H            7.50212268161923       -1.94093957490229       -3.44593737347337
H            5.76166016693789       -1.48001723263301       -1.79808291547248
H            5.68359514887574       -2.23948479393700        0.92090136402902
H            3.67168898920472       -3.64248919714904        0.88577705993796
H            2.12284491839565       -4.85973880478661       -0.09528372123820
H           -0.04225850779973       -6.06505262737360       -0.07215539193439
H           -1.36926979538277       -0.49609138167707        1.11082318069954
H           -3.32865013442143        1.02371545787098        1.08579028812227
H           -5.89358152048480       -1.56126969830546        1.33364782496167
H           -7.87676211620211       -2.23403941641483        2.58154865011345
H           -9.90600308037388       -0.80563589531631        2.54533117268904
H           -9.88605282791274        1.28348952367746        1.28584342943811
H           -9.10676726014315        3.36257184224722        1.36701271792320
H           -7.36278158607011        3.53512844184525        1.56501609848687
H           -8.21342148840233        4.48446720882026        0.34558695169811
H           -8.88606139741867        1.55707297091697       -1.94031913003959
H          -10.02292138400101        2.16302931106107       -0.73553551684874
H           -9.13935143578143        3.29283037077959       -1.75638331923501
H           -7.31061057295350        4.54344497362921       -1.67557077982151
H           -5.27659953473736        5.05272559524792       -2.92251370663199
H           -3.40243843283362        3.42649718602480       -2.92617120196693
H           -3.58891889693116        1.35296381174162       -1.65488691319624
H           -5.42737000281455       -1.74568171370108       -1.39101268593941
H           -3.48757799717111       -3.25049669891657       -1.37468770962108
H            1.42340364763687       -0.38370293537862       -0.71775052466815
H            3.45747926835455        1.03615872601075       -0.66373267794601
H            4.10284447857266        0.78775291966249        2.04678147679632
H            4.24508080093492        2.52833542262237        3.75097559244107
H            6.22378510937153        4.02312399843440        3.82992689406272
H            8.03027872559466        3.71723290437261        2.21932169082991

          :  Hamiltonian                  GFN2-xTB          :
         :: gradient norm              0.000055895323 Eh/a0 ::
         :: HOMO-LUMO gap              1.313533207227 eV    ::
         :: SCC energy              -136.357802293449 Eh    ::
         :: -> dispersion             -0.125394321764 Eh    ::
         :: repulsion energy           2.471421839748 Eh    ::

    * Orbital Energies and Occupations

         #    Occupation            Energy/Eh            Energy/eV
      -------------------------------------------------------------
         1        2.0000           -0.6850347             -18.6407
       ...           ...                  ...                  ...
       113        2.0000           -0.4076936             -11.0939
       114        2.0000           -0.4061500             -11.0519
       115        2.0000           -0.4040526             -10.9948
       116        2.0000           -0.4037595             -10.9869
       117        2.0000           -0.4013155             -10.9204
       118        2.0000           -0.4000996             -10.8873
       119        2.0000           -0.3982555             -10.8371
       120        2.0000           -0.3946003             -10.7376
       121        2.0000           -0.3929624             -10.6931
       122        2.0000           -0.3892161             -10.5911
       123        2.0000           -0.3847148             -10.4686
       124        2.0000           -0.3474490              -9.4546
       125        2.0000           -0.3438414              -9.3564 (HOMO)
       126                         -0.2955699              -8.0429 (LUMO)
       127                         -0.2768609              -7.5338
       128                         -0.2424828              -6.5983
       129                         -0.2416020              -6.5743
       130                         -0.2389018              -6.5008
       131                         -0.2245531              -6.1104
       132                         -0.2210993              -6.0164
       133                         -0.2208277              -6.0090
       134                         -0.2193993              -5.9702
       135                         -0.2183572              -5.9418
       136                         -0.2158179              -5.8727
       ...                                ...                  ...
       246                          1.1638437              31.6698
      -------------------------------------------------------------
                  HL-Gap            0.0482715 Eh            1.3135 eV

     #   Z          covCN         q      C6AA      α(0)
     1   6 C        3.761    -0.103    22.513     6.764
     2   6 C        3.909     0.021    20.156     6.381
     3   6 C        3.761    -0.103    22.513     6.764
     4   6 C        2.980    -0.014    28.349     8.734
     5   6 C        2.928    -0.036    28.896     8.816
     6   6 C        2.917    -0.044    29.104     8.847
     7   6 C        2.920    -0.033    28.824     8.804
     8   6 C        2.924    -0.059    29.470     8.903
     9   6 C        2.928     0.058    26.703     8.474
    10   7 N        2.754    -0.070    22.597     7.060
    11   6 C        2.928     0.074    26.355     8.419
    12   6 C        2.920    -0.038    28.947     8.823
    13   6 C        2.922    -0.032    28.788     8.799
    14   6 C        2.981     0.004    27.940     8.671
    15   6 C        2.948     0.101    25.769     8.326
    16   6 C        2.915    -0.046    29.134     8.851
    17   6 C        2.933    -0.007    28.186     8.707
    18   6 C        2.968    -0.002    28.084     8.693
    19   6 C        1.909     0.112    28.349     8.599
    20   7 N        0.911    -0.239    26.246     7.409
    21   6 C        2.950     0.104    25.699     8.315
    22   6 C        2.982     0.004    27.939     8.670
    23   6 C        2.925    -0.025    28.639     8.776
    24   6 C        2.920    -0.037    28.926     8.820
    25   6 C        2.928     0.074    26.351     8.418
    26   7 N        2.754    -0.069    22.586     7.058
    27   6 C        2.927     0.058    26.708     8.475
    28   6 C        2.924    -0.058    29.448     8.899
    29   6 C        2.920    -0.032    28.807     8.802
    30   6 C        2.917    -0.044    29.097     8.845
    31   6 C        2.928    -0.036    28.902     8.817
    32   6 C        2.980    -0.014    28.355     8.735
    33   6 C        3.909     0.021    20.157     6.381
    34   6 C        3.761    -0.103    22.510     6.763
    35   6 C        3.761    -0.103    22.512     6.764
    36   6 C        2.980    -0.014    28.349     8.734
    37   6 C        2.928    -0.036    28.901     8.816
    38   6 C        2.917    -0.045    29.111     8.848
    39   6 C        2.920    -0.033    28.826     8.804
    40   6 C        2.924    -0.059    29.473     8.903
    41   6 C        2.927     0.058    26.702     8.474
    42   6 C        2.921    -0.036    28.900     8.816
    43   6 C        2.921    -0.029    28.714     8.787
    44   7 N        1.857    -0.237    27.044     7.708
    45   6 C        2.926    -0.025    28.639     8.776
    46   6 C        2.919    -0.037    28.917     8.818
    47   6 C        2.928     0.058    26.705     8.475
    48   6 C        2.924    -0.059    29.467     8.902
    49   6 C        2.920    -0.033    28.819     8.803
    50   6 C        2.917    -0.044    29.100     8.846
    51   6 C        2.928    -0.036    28.897     8.816
    52   6 C        2.980    -0.014    28.350     8.734
    53   1 H        0.925     0.039     2.457     2.451
    54   1 H        0.925     0.039     2.460     2.453
    55   1 H        0.925     0.031     2.568     2.506
    56   1 H        0.925     0.031     2.572     2.508
    57   1 H        0.925     0.039     2.458     2.452
    58   1 H        0.925     0.039     2.459     2.452
    59   1 H        0.926     0.030     2.583     2.513
    60   1 H        0.926     0.026     2.640     2.541
    61   1 H        0.926     0.027     2.634     2.538
    62   1 H        0.926     0.023     2.695     2.567
    63   1 H        0.926     0.045     2.385     2.415
    64   1 H        0.926     0.040     2.452     2.449
    65   1 H        0.926     0.042     2.428     2.437
    66   1 H        0.926     0.043     2.415     2.430
    67   1 H        0.926     0.056     2.249     2.345
    68   1 H        0.926     0.047     2.361     2.403
    69   1 H        0.926     0.025     2.653     2.547
    70   1 H        0.926     0.029     2.598     2.520
    71   1 H        0.926     0.026     2.639     2.540
    72   1 H        0.926     0.030     2.592     2.518
    73   1 H        0.925     0.039     2.461     2.453
    74   1 H        0.925     0.031     2.573     2.508
    75   1 H        0.925     0.039     2.464     2.455
    76   1 H        0.925     0.031     2.567     2.506
    77   1 H        0.925     0.039     2.459     2.452
    78   1 H        0.925     0.039     2.465     2.455
    79   1 H        0.926     0.030     2.590     2.517
    80   1 H        0.926     0.026     2.649     2.545
    81   1 H        0.926     0.027     2.636     2.539
    82   1 H        0.926     0.024     2.676     2.558
    83   1 H        0.926     0.049     2.336     2.390
    84   1 H        0.926     0.044     2.392     2.418
    85   1 H        0.926     0.062     2.176     2.307
    86   1 H        0.926     0.047     2.357     2.401
    87   1 H        0.926     0.024     2.673     2.557
    88   1 H        0.926     0.027     2.623     2.533
    89   1 H        0.926     0.026     2.638     2.540
    90   1 H        0.926     0.030     2.584     2.514

molecular dipole:
                 x           y           z       tot (Debye)
 q only:        0.961       0.637      -0.045
   full:        1.360       0.337      -0.082       3.567

 projected vibrational frequencies (cm⁻¹)
eigval :       -0.00    -0.00     0.00     0.00     0.00     0.00
eigval :        6.26     7.52     9.96    18.70    19.05    21.45
eigval :       32.41    41.88    44.78    53.92    56.71    61.39
eigval :       80.90    96.69    98.93    99.70   102.73   115.26
eigval :      125.12   128.11   128.22   131.60   137.11   171.58
eigval :      189.58   189.74   195.80   201.40   210.96   218.92
eigval :      219.09   228.97   234.46   235.44   279.68   299.08
eigval :      303.00   304.00   311.41   331.62   331.84   333.07
eigval :      344.39   345.99   357.86   372.90   376.31   377.24
eigval :      379.39   382.57   395.06   402.84   405.55   413.06
eigval :      417.05   419.87   448.87   451.85   452.53   482.30
eigval :      491.06   495.98   509.33   515.05   515.12   529.70
eigval :      537.37   547.40   547.42   550.14   572.40   575.64
eigval :      578.78   583.64   591.28   596.30   604.70   610.97
eigval :      620.72   632.47   646.96   660.84   682.69   682.87
eigval :      687.76   693.54   693.79   694.05   709.51   715.45
eigval :      733.95   747.36   756.12   776.81   777.09   778.04
eigval :      778.39   810.89   818.04   825.64   828.57   833.89
eigval :      853.62   866.48   866.97   867.01   867.97   870.46
eigval :      872.76   912.98   913.14   913.49   914.04   914.10
eigval :      914.21   915.24   918.01   919.69   920.38   921.22
eigval :      921.28   921.58   922.46   928.36   929.24   930.73
eigval :      938.79   939.25   957.22   957.28  1000.25  1014.41
eigval :     1014.45  1015.40  1056.42  1077.23  1077.25  1086.38
eigval :     1086.49  1096.27  1114.38  1114.77  1120.20  1120.26
eigval :     1128.61  1132.31  1141.17  1141.34  1146.49  1160.40
eigval :     1160.46  1173.10  1173.28  1184.00  1185.44  1187.59
eigval :     1187.70  1188.45  1188.64  1205.02  1208.52  1234.75
eigval :     1240.50  1245.44  1250.41  1250.65  1250.76  1262.53
eigval :     1264.44  1269.38  1269.56  1284.84  1295.21  1295.42
eigval :     1302.75  1311.16  1313.56  1322.72  1326.16  1326.82
eigval :     1329.77  1335.31  1336.30  1342.03  1342.50  1383.67
eigval :     1402.46  1402.94  1403.21  1409.20  1420.99  1421.10
eigval :     1426.59  1436.77  1436.89  1443.46  1443.58  1480.15
eigval :     1480.48  1481.12  1482.81  1490.02  1490.15  1491.05
eigval :     1491.09  1497.58  1497.75  1500.58  1500.59  1505.37
eigval :     1505.44  1521.24  1546.22  1560.84  1561.25  1575.92
eigval :     1575.96  1588.30  1589.68  1592.25  1593.39  1593.44
eigval :     1593.65  1603.01  1603.13  2358.97  3026.38  3026.41
eigval :     3028.55  3028.66  3039.44  3039.74  3042.13  3042.44
eigval :     3048.32  3048.57  3052.13  3052.62  3077.42  3077.68
eigval :     3078.03  3078.60  3079.14  3082.78  3083.05  3083.40
eigval :     3084.06  3084.30  3088.09  3089.53  3090.84  3093.88
eigval :     3094.07  3094.53  3094.82  3095.45  3099.87  3100.95
eigval :     3101.14  3101.82  3102.73  3103.48  3107.78  3108.19

   temp. (K)  partition function   enthalpy   heat capacity  entropy
                                   cal/mol     cal/K/mol   cal/K/mol   J/K/mol
 298.15  VIB  0.166E+22            26170.596    162.695    164.276
         ROT  0.149E+09              888.752      2.981     40.384
         INT  0.248E+30            27059.349    165.675    204.660
         TR   0.168E+29             1481.254      4.968     45.371
         TOT                       28540.6027   170.6436   250.0307  1046.1285

       T/K    H(0)-H(T)+PV         H(T)/Eh          T*S/Eh         G(T)/Eh
   ------------------------------------------------------------------------
    298.15    0.454823E-01    0.755775E+00    0.118798E+00    0.636977E+00
   ------------------------------------------------------------------------

         :::::::::::::::::::::::::::::::::::::::::::::::::::::
         ::                  THERMODYNAMIC                  ::
         :::::::::::::::::::::::::::::::::::::::::::::::::::::
         :: total free energy        -133.249403383037 Eh   ::
         ::.................................................::
         :: total energy             -133.886380453700 Eh   ::
         :: zero point energy           0.710292387367 Eh   ::
         :: G(RRHO) w/o ZPVE           -0.073315316704 Eh   ::
         :: G(RRHO) contrib.            0.636977070663 Eh   ::
         :::::::::::::::::::::::::::::::::::::::::::::::::::::

           -------------------------------------------------
          | TOTAL ENERGY             -133.886380453700 Eh   |
          | TOTAL ENTHALPY           -133.130605720804 Eh   |
          | TOTAL FREE ENERGY        -133.249403383037 Eh   |
          | GRADIENT NORM               0.000055915809 Eh/α |
          | HOMO-LUMO GAP               1.313534940394 eV   |
           -------------------------------------------------

 * finished run on 2025/07/18 at 07:23:12.985
