   * xtb version 6.7.1 (edcfbbe) compiled by 'albert@albert-system' on 2024-07-22

   ID    Z sym.   atoms
    1    6 C      1-9, 11-19, 21-25, 27-43, 45-52
    2    7 N      10, 20, 26, 44
    3    1 H      53-90

          program call               : xtb data2507/gas/AcCYP/AcCYP_gas_T1_crest.xyz --gfn 2 --spinpol --tblite --uhf 2 --ohess vtight --parallel 40 --molden --ceasefiles --namespace data2507/gas/AcCYP/AcCYP_gas_T1_finalOpt
 * total energy  :  -133.8126433 Eh     change        0.7104234E-08 Eh
 * total energy  :  -133.8126576 Eh     change       -0.1434332E-04 Eh
 * total energy  :  -133.8126619 Eh     change       -0.4270193E-05 Eh
 * total energy  :  -133.8126560 Eh     change        0.5892018E-05 Eh
 * total energy  :  -133.8126655 Eh     change       -0.9483002E-05 Eh
 * total energy  :  -133.8126675 Eh     change       -0.2050677E-05 Eh
 * total energy  :  -133.8126688 Eh     change       -0.1240881E-05 Eh
 * total energy  :  -133.8126721 Eh     change       -0.3357772E-05 Eh
 * total energy  :  -133.8126764 Eh     change       -0.4234452E-05 Eh
 * total energy  :  -133.8126806 Eh     change       -0.4185697E-05 Eh
 * total energy  :  -133.8127655 Eh     change       -0.4392363E-06 Eh
 * total energy  :  -133.8127653 Eh     change        0.1486375E-06 Eh
 * total energy  :  -133.8127658 Eh     change       -0.4684886E-06 Eh
 * total energy  :  -133.8127662 Eh     change       -0.3995873E-06 Eh
 * total energy  :  -133.8127666 Eh     change       -0.3640559E-06 Eh
 * total energy  :  -133.8127669 Eh     change       -0.3710368E-06 Eh
 * total energy  :  -133.8127673 Eh     change       -0.3731441E-06 Eh
 * total energy  :  -133.8127677 Eh     change       -0.4004616E-06 Eh
 * total energy  :  -133.8127678 Eh     change       -0.9272622E-07 Eh
   *** GEOMETRY OPTIMIZATION CONVERGED AFTER 68 ITERATIONS ***

 final structure:
================
90
 xtb: 6.7.1 (edcfbbe)
C            8.15594147518261        3.50504796492138       -0.80163886014647
C            8.16547632059243        2.05287804558375       -0.28788766247700
C            9.59909267705395        1.62819236439454        0.08237866740686
C            7.65727310089537        1.14909140672486       -1.39160915930681
C            8.32837256506370        1.10810425074781       -2.60598214613618
C            7.89040683474858        0.32718527347843       -3.65937761816640
C            6.73596555140235       -0.42482078403559       -3.51376854823489
C            6.05069258173986       -0.40514645324846       -2.31996563762737
C            6.50869785005140        0.35946800193669       -1.23814709363602
N            5.80834228321464        0.34325863502871       -0.04745885896784
C            4.66568121341087       -0.49138659761396        0.07099704977286
C            4.81257585741754       -1.87775805245956        0.15749075065054
C            3.71285817568616       -2.69003656772167        0.27517942014113
C            2.40670831778226       -2.15391827084546        0.29639313092307
C            1.22849836082767       -2.95114258058115        0.38893685215014
C            1.21850307862934       -4.37385104094195        0.59391957782537
C            0.03304854417735       -5.01806932744481        0.72401721801110
C           -1.20377360544900       -4.31655382157321        0.64964392626538
C           -2.38943267655964       -5.03077601716455        0.64172017139040
N           -3.33849888777280       -5.69424683957466        0.65574813864232
C           -1.11700606471603       -2.89412941233177        0.45453816223266
C           -2.28439329965337       -2.02870475546484        0.33264911414658
C           -2.16540473690798       -0.83386575511176       -0.38948075414408
C           -3.23541636019197        0.02021023826625       -0.52669446774550
C           -4.45660928095133       -0.29728889025732        0.06389255407232
N           -5.56992963520202        0.57699338325941       -0.08553112096361
C           -5.92597531472681        1.39787854869153        0.96683483622207
C           -5.16933147905976        1.37853080927878        2.14550301594589
C           -5.50597915446880        2.17776877865444        3.21525702662637
C           -6.60181029531615        3.02045492178620        3.12889844794226
C           -7.33781591179585        3.05873012119700        1.95915395154880
C           -7.02218092929364        2.26534354920737        0.86483668736333
C           -7.85139958835119        2.36955488993478       -0.39878517720974
C           -7.76994643127544        3.81645968164521       -0.92053889897697
C           -9.31029387870404        2.00459838445576       -0.06589270399938
C           -7.35592691794424        1.43112120898073       -1.48002898075933
C           -8.00483011139201        1.39471672614162       -2.70652283252290
C           -7.61134952445515        0.53886277248540       -3.71853522323698
C           -6.54751138376774       -0.32223850717717       -3.50572480481459
C           -5.88332385994542       -0.30685134074748       -2.29949068162818
C           -6.26435113020842        0.57514463390606       -1.28015751046043
C           -4.58397966291014       -1.47024411167455        0.79981923359387
C           -3.51082450449577       -2.32697136280138        0.93209280095809
N            0.04840405555889       -2.32550853685761        0.32276976516797
C            2.28360606692213       -0.74603406608139        0.20656369738362
C            3.38089436600019        0.06411664332703        0.10058368360785
C            6.18966851869850        1.11807856825362        1.03064378014088
C            5.46944153546778        1.03539832095043        2.23032929637252
C            5.81467113341298        1.80550802274728        3.31797780988650
C            6.89451810540150        2.66962774879070        3.23704030025797
C            7.62672427807605        2.73223504545276        2.06598521980811
C            7.30279954303722        1.96749304117662        0.95383351913482
H            8.52331680923414        4.18754116273872       -0.04058783705295
H            8.78275927588194        3.60867457499338       -1.68271067985639
H            7.14141233937777        3.79781883987936       -1.06541953203217
H            9.59923335811381        0.60217244347379        0.44545128053514
H           10.00372038320933        2.26767793153344        0.86167014488040
H           10.25545107009189        1.68685160061410       -0.78119838761366
H            9.21874709247095        1.70308755363388       -2.74098537033848
H            8.43852546138848        0.31569415688682       -4.58888278395212
H            6.36678710369066       -1.02380923619454       -4.33230370257550
H            5.14438042746580       -0.97986716436262       -2.21496614894249
H            5.80715932917023       -2.30099404868805        0.14116609235718
H            3.86146295479094       -3.75564008053672        0.35090213333780
H            2.15057232711331       -4.90543343055291        0.68989080445100
H           -0.00132569036732       -6.08649261831465        0.88867024580606
H           -1.21486700507918       -0.59823180371305       -0.84321849046657
H           -3.14226510859996        0.93653966657296       -1.09147574190285
H           -4.30975189427371        0.73059798517410        2.21327427321330
H           -4.91131188338722        2.14428904682912        4.11546021917587
H           -6.87710142488771        3.64852102053791        3.96213146054360
H           -8.18127799504051        3.72982843233248        1.90281266974397
H           -8.14077137513298        4.51754403497498       -0.17825060492521
H           -6.73630446381669        4.07092010632633       -1.14733421827658
H           -8.35911125976060        3.93562508324465       -1.82533501717406
H           -9.36165815193705        0.98013200370480        0.29773558086899
H           -9.70873582586130        2.66179652681644        0.70181360654537
H           -9.94103626516927        2.08787927229002       -0.94634280123592
H           -8.84467748204036        2.04942362140521       -2.88267671948598
H           -8.13707277353830        0.53773168647227       -4.66093561202526
H           -6.23673920575909       -1.00938602202659       -4.27780405173829
H           -5.06376419675632       -0.98795666907191       -2.13372413510749
H           -5.53018602410627       -1.70486904006780        1.26466758701410
H           -3.62489537277504       -3.22776004471914        1.51288978057531
H            1.28864671414356       -0.32761267702046        0.21834190242152
H            3.27176588918970        1.13691301358882        0.02679111328932
H            4.63777589670590        0.35285108377278        2.30194594153914
H            5.24367016479723        1.72787615158746        4.23067422075707
H            7.17216304152144        3.28074155879666        4.08203454318853
H            8.47657441617641        3.39635235601992        2.02458286359721

 projected vibrational frequencies (cm⁻¹)
eigval :       -0.00    -0.00    -0.00    -0.00     0.00     0.00
eigval :        5.04     7.15    10.24    18.37    19.81    22.46
eigval :       30.87    43.92    46.47    54.21    54.56    67.29
eigval :       85.76    95.78    99.02    99.27   101.99   112.33
eigval :      126.56   128.85   128.85   132.24   132.32   173.33
eigval :      190.60   191.24   194.70   196.57   201.08   216.90
eigval :      217.45   224.87   234.29   235.27   291.90   297.90
eigval :      300.71   303.31   313.30   328.56   328.64   332.78
eigval :      341.29   345.71   354.95   370.04   372.76   376.29
eigval :      378.55   379.36   385.24   394.41   405.58   411.62
eigval :      412.10   416.09   444.29   450.28   451.47   460.38
eigval :      467.49   489.71   505.72   508.33   509.21   513.03
eigval :      531.03   544.62   544.77   547.39   553.17   567.72
eigval :      574.10   577.81   583.09   588.60   594.04   599.70
eigval :      610.07   615.54   643.97   647.16   657.70   668.50
eigval :      684.26   685.58   686.58   695.24   698.23   699.61
eigval :      701.80   735.57   746.83   758.35   775.23   775.58
eigval :      776.74   777.17   789.84   810.06   824.26   825.94
eigval :      827.20   837.83   860.41   868.83   869.34   870.16
eigval :      870.82   872.82   895.27   906.81   908.32   909.68
eigval :      912.90   913.53   914.49   915.08   915.30   915.63
eigval :      916.67   921.15   922.35   922.58   922.70   922.86
eigval :      937.70   937.93   957.67   957.70   980.40   995.99
eigval :     1013.63  1013.74  1025.78  1050.91  1076.07  1076.44
eigval :     1084.15  1086.08  1099.41  1109.49  1111.64  1115.19
eigval :     1115.73  1118.63  1132.46  1134.85  1138.96  1139.66
eigval :     1153.99  1154.93  1169.69  1170.68  1184.29  1184.87
eigval :     1185.03  1185.52  1185.63  1190.99  1201.86  1208.52
eigval :     1227.24  1241.83  1242.43  1244.05  1245.79  1247.66
eigval :     1258.57  1259.93  1262.50  1265.48  1294.76  1295.05
eigval :     1296.53  1307.43  1311.45  1313.57  1322.34  1328.24
eigval :     1330.46  1332.13  1332.89  1335.21  1335.36  1353.39
eigval :     1390.78  1401.34  1401.92  1402.20  1419.67  1419.79
eigval :     1422.01  1427.60  1430.50  1431.92  1432.96  1441.43
eigval :     1459.08  1461.73  1462.84  1472.16  1481.11  1485.02
eigval :     1487.77  1487.91  1488.67  1488.69  1488.84  1498.55
eigval :     1498.67  1502.21  1502.37  1533.78  1538.92  1557.53
eigval :     1559.78  1562.39  1574.16  1576.32  1582.20  1583.55
eigval :     1589.04  1593.84  1596.70  2257.80  3028.80  3028.83
eigval :     3030.65  3031.19  3042.60  3042.77  3045.08  3045.24
eigval :     3051.42  3051.53  3054.85  3055.16  3062.74  3071.12
eigval :     3072.61  3079.68  3083.47  3083.49  3083.68  3083.88
eigval :     3087.66  3088.72  3088.96  3089.12  3089.66  3091.57
eigval :     3095.40  3096.99  3098.84  3099.19  3099.24  3099.81
eigval :     3104.45  3108.12  3109.76  3111.04  3111.36  3119.21

   temp. (K)  partition function   enthalpy   heat capacity  entropy
                                   cal/mol     cal/K/mol   cal/K/mol   J/K/mol
 298.15  VIB  0.228E+22            26410.284    164.617    165.698
         ROT  0.153E+09              888.752      2.981     40.430
         INT  0.348E+30            27299.036    167.598    206.128
         TR   0.168E+29             1481.254      4.968     45.371
         TOT                       28780.2900   172.5663   251.4985  1052.2697

       T/K    H(0)-H(T)+PV         H(T)/Eh          T*S/Eh         G(T)/Eh
   ------------------------------------------------------------------------
    298.15    0.458643E-01    0.752168E+00    0.119495E+00    0.632673E+00
   ------------------------------------------------------------------------

         :::::::::::::::::::::::::::::::::::::::::::::::::::::
         ::                  THERMODYNAMIC                  ::
         :::::::::::::::::::::::::::::::::::::::::::::::::::::
         :: total free energy        -133.180095229981 Eh   ::
         ::.................................................::
         :: total energy             -133.812767805250 Eh   ::
         :: zero point energy           0.706303308827 Eh   ::
         :: G(RRHO) w/o ZPVE           -0.073630733558 Eh   ::
         :: G(RRHO) contrib.            0.632672575269 Eh   ::
         :::::::::::::::::::::::::::::::::::::::::::::::::::::

           -------------------------------------------------
          | TOTAL ENERGY             -133.812767805250 Eh   |
          | TOTAL ENTHALPY           -133.060600184893 Eh   |
          | TOTAL FREE ENERGY        -133.180095229981 Eh   |
          | GRADIENT NORM               0.000108286889 Eh/α |
           -------------------------------------------------

 * finished run on 2025/07/18 at 07:32:59.400
