   * xtb version 6.7.1 (edcfbbe) compiled by 'albert@albert-system' on 2024-07-22

   ID    Z sym.   atoms
    1    6 C      1-9, 11-19, 21-25, 27-43, 45-52
    2    7 N      10, 20, 26, 44
    3    1 H      53-90

          program call               : xtb data2507/gas/AcCYP/AcCYP.xyz --gfn 2 --ohess vtight --parallel 40 --molden --ceasefiles --namespace data2507/gas/AcCYP/AcCYP_gas_S0_preOpt
          :  Hamiltonian                  GFN2-xTB          :
 * total energy  :  -133.8536951 Eh     change       -0.3268553E-08 Eh
 * total energy  :  -133.8739817 Eh     change       -0.2028663E-01 Eh
 * total energy  :  -133.8811012 Eh     change       -0.7119486E-02 Eh
 * total energy  :  -133.8815496 Eh     change       -0.4484405E-03 Eh
 * total energy  :  -133.8836454 Eh     change       -0.2095782E-02 Eh
 * total energy  :  -133.8843758 Eh     change       -0.7304139E-03 Eh
 * total energy  :  -133.8848483 Eh     change       -0.4725194E-03 Eh
 * total energy  :  -133.8849970 Eh     change       -0.1486995E-03 Eh
 * total energy  :  -133.8851049 Eh     change       -0.1078791E-03 Eh
 * total energy  :  -133.8852387 Eh     change       -0.1337635E-03 Eh
 * total energy  :  -133.8863649 Eh     change       -0.2742933E-06 Eh
 * total energy  :  -133.8863652 Eh     change       -0.2910770E-06 Eh
 * total energy  :  -133.8863657 Eh     change       -0.5291036E-06 Eh
 * total energy  :  -133.8863666 Eh     change       -0.9060543E-06 Eh
 * total energy  :  -133.8863675 Eh     change       -0.8905778E-06 Eh
 * total energy  :  -133.8863683 Eh     change       -0.8306534E-06 Eh
 * total energy  :  -133.8863691 Eh     change       -0.7643421E-06 Eh
 * total energy  :  -133.8863699 Eh     change       -0.7949906E-06 Eh
 * total energy  :  -133.8863699 Eh     change       -0.3908269E-08 Eh
   *** GEOMETRY OPTIMIZATION CONVERGED AFTER 94 ITERATIONS ***

 final structure:
================
90
 xtb: 6.7.1 (edcfbbe)
C            8.37449134887566        3.01178141219320       -0.37646254032152
C            8.19983460349521        1.63668094397290        0.29367969620896
C            9.47770712365937        1.25081669496772        1.06087838112916
C            7.94771247695846        0.60232175945658       -0.78645068221770
C            8.90016204149771        0.40449573641660       -1.77685655457510
C            8.71560697712589       -0.50280351951285       -2.80332778875502
C            7.53908815729300       -1.22746036571943       -2.86022082672501
C            6.57664815678796       -1.05166794289208       -1.88864173297395
C            6.77272783267975       -0.15480204977234       -0.83415717089314
N            5.78970347558732       -0.00611610992909        0.13336052630206
C            4.62790761261393       -0.81544099138595        0.06328029380546
C            4.69485311037286       -2.16203976979040        0.40582269839696
C            3.56791284321572       -2.95590366624634        0.33234866283250
C            2.35003621126855       -2.41889815361355       -0.08356264665772
C            1.13121946398637       -3.22788898878634       -0.17848815241796
C            1.15473046242901       -4.62110102905169       -0.31696475374610
C           -0.04258492560994       -5.30249042052116       -0.35952669142128
C           -1.24323491090076       -4.58974299146210       -0.29954002159527
C           -2.45801908529728       -5.30393060138036       -0.26035538572723
N           -3.41475656954845       -5.93523943946643       -0.20280270367479
C           -1.17576227680452       -3.18266993064106       -0.22535565157887
C           -2.36771392947274       -2.32796622521988       -0.21149601883812
C           -2.34357530898037       -1.15270222686157        0.53977605386066
C           -3.44306447923330       -0.32150078716750        0.57659464734293
C           -4.58343485309533       -0.64083937214938       -0.15542691913352
N           -5.71276081404339        0.21389327671983       -0.12475686466118
C           -6.85862959877391       -0.20438152807960        0.53922894394589
C           -6.86514133013327       -1.43327090156826        1.20592058161254
C           -7.99132858656198       -1.87835323784575        1.86516546228575
C           -9.13345257426729       -1.09862505192420        1.88180561113870
C           -9.12003094825250        0.13009759084297        1.24917915417680
C           -7.99993013655687        0.60286175214165        0.57856108313895
C           -8.04367297898153        1.97546489767455       -0.06478828307677
C           -8.32932552916693        3.02034317873899        1.02936455131870
C           -9.16174488677417        1.99164114196298       -1.12325015399921
C           -6.73320406161640        2.32387738493531       -0.74360890450933
C           -6.60559289400341        3.54642346265222       -1.38905353119265
C           -5.44985351980164        3.90939026052054       -2.05459405654214
C           -4.39050984473905        3.02154528699564       -2.09870150765054
C           -4.48993700137343        1.80107548800199       -1.46495623943848
C           -5.64584084433196        1.44421035908852       -0.76362558727512
C           -4.60341224164517       -1.79916483899153       -0.92562750961132
C           -3.50662978554424       -2.63736911862983       -0.95186621889422
N           -0.01467490686701       -2.55537284152015       -0.14743106213560
C            2.28838290198659       -1.06288209058552       -0.41042481035502
C            3.41380870352661       -0.26926050325730       -0.34244298380781
C            5.91766189755365        0.90329273431976        1.17370476181602
C            4.91687369919827        0.98954696697469        2.14600960514440
C            5.01384810485975        1.88807137400182        3.18740694247267
C            6.11886768127270        2.71396314334992        3.28405233216234
C            7.12149196544672        2.61292756348581        2.33786107252076
C            7.05018817027589        1.71704081879868        1.27970911997017
H            7.46875240034333        3.27621095689402       -0.91913686263649
H            8.56776189780808        3.78278271193537        0.36420907097187
H            9.20332459741735        2.99958816254878       -1.07876331155935
H            9.34506298153791        0.28055087559113        1.53610557516485
H            9.70369307469685        1.98179100530992        1.83219637633571
H           10.32999643074221        1.19017314211878        0.38979716969011
H            9.81619532541397        0.97518536274737       -1.75307983294606
H            9.47858194501790       -0.63370929057023       -3.55536667707722
H            7.36519665443501       -1.92859018253282       -3.66291939600338
H            5.65559641232080       -1.61092761138707       -1.94938333002465
H            5.63747194119896       -2.57765187079302        0.73025259768039
H            3.63631165917406       -3.99182852406097        0.62770933515449
H            2.08690319207439       -5.15618252364187       -0.39513666300855
H           -0.06665941741735       -6.38040639066312       -0.43581923752075
H           -1.45356801057200       -0.91380804562046        1.10108561053229
H           -3.42943552233132        0.58264791891677        1.16711899594581
H           -5.97603625144850       -2.04453923029286        1.21165353376788
H           -7.97156650900830       -2.83392460206329        2.36729201225757
H          -10.02311593653967       -1.43727884484220        2.39043353421582
H          -10.01229525341311        0.73684338139740        1.28391680975208
H           -9.27329443700073        2.81463708065725        1.52627005964450
H           -7.53723339598364        2.99998380791511        1.77567203644486
H           -8.37787362960993        4.02064722328624        0.60803875837229
H           -8.94982783910050        1.25466972513370       -1.89573933920300
H          -10.12286808744354        1.75301611087733       -0.67641148867945
H           -9.23833076411989        2.96817801699769       -1.59329342361589
H           -7.43233557142014        4.24050645325399       -1.37765969716732
H           -5.38325380734307        4.86985698869703       -2.54244957461628
H           -3.48480522615432        3.27428672480596       -2.62971581847008
H           -3.66295465128488        1.11015035507639       -1.51959786840366
H           -5.48462087618958       -2.03619811085386       -1.50269791567881
H           -3.52955041088251       -3.51939402984717       -1.57345145547863
H            1.34198202337435       -0.65241600907958       -0.72567409001287
H            3.36547130546174        0.77822171399987       -0.60074670563120
H            4.05685914934373        0.34040444527464        2.08672186558043
H            4.22571084051498        1.93797854349887        3.92385584331871
H            6.20555114108532        3.42370257527392        4.09250271169464
H            7.98555642568241        3.25296044977561        2.43326356392144

          :  Hamiltonian                  GFN2-xTB          :
         :: gradient norm              0.000050904494 Eh/a0 ::
         :: HOMO-LUMO gap              1.314814714738 eV    ::
         :: SCC energy              -136.357721834560 Eh    ::
         :: -> dispersion             -0.125394172430 Eh    ::
         :: repulsion energy           2.471351957281 Eh    ::

    * Orbital Energies and Occupations

         #    Occupation            Energy/Eh            Energy/eV
      -------------------------------------------------------------
         1        2.0000           -0.6850486             -18.6411
       ...           ...                  ...                  ...
       113        2.0000           -0.4076165             -11.0918
       114        2.0000           -0.4061558             -11.0521
       115        2.0000           -0.4041050             -10.9963
       116        2.0000           -0.4036544             -10.9840
       117        2.0000           -0.4013346             -10.9209
       118        2.0000           -0.4001833             -10.8895
       119        2.0000           -0.3981703             -10.8348
       120        2.0000           -0.3946594             -10.7392
       121        2.0000           -0.3928788             -10.6908
       122        2.0000           -0.3892708             -10.5926
       123        2.0000           -0.3847296             -10.4690
       124        2.0000           -0.3473182              -9.4510
       125        2.0000           -0.3439543              -9.3595 (HOMO)
       126                         -0.2956357              -8.0447 (LUMO)
       127                         -0.2767319              -7.5303
       128                         -0.2425380              -6.5998
       129                         -0.2416169              -6.5747
       130                         -0.2388500              -6.4994
       131                         -0.2244342              -6.1072
       132                         -0.2212279              -6.0199
       133                         -0.2209603              -6.0126
       134                         -0.2193255              -5.9682
       135                         -0.2182593              -5.9391
       136                         -0.2158808              -5.8744
       ...                                ...                  ...
       246                          1.1639101              31.6716
      -------------------------------------------------------------
                  HL-Gap            0.0483186 Eh            1.3148 eV

     #   Z          covCN         q      C6AA      α(0)
     1   6 C        3.761    -0.103    22.513     6.764
     2   6 C        3.909     0.021    20.156     6.381
     3   6 C        3.761    -0.103    22.511     6.764
     4   6 C        2.980    -0.014    28.350     8.734
     5   6 C        2.928    -0.036    28.896     8.816
     6   6 C        2.917    -0.044    29.105     8.847
     7   6 C        2.920    -0.033    28.824     8.804
     8   6 C        2.924    -0.059    29.470     8.902
     9   6 C        2.928     0.058    26.703     8.474
    10   7 N        2.754    -0.070    22.602     7.061
    11   6 C        2.928     0.074    26.352     8.419
    12   6 C        2.920    -0.038    28.945     8.823
    13   6 C        2.922    -0.032    28.788     8.799
    14   6 C        2.981     0.004    27.938     8.670
    15   6 C        2.948     0.101    25.770     8.326
    16   6 C        2.915    -0.046    29.134     8.851
    17   6 C        2.933    -0.007    28.186     8.707
    18   6 C        2.968    -0.002    28.084     8.693
    19   6 C        1.909     0.112    28.350     8.599
    20   7 N        0.911    -0.239    26.245     7.409
    21   6 C        2.950     0.104    25.697     8.314
    22   6 C        2.982     0.003    27.941     8.671
    23   6 C        2.925    -0.025    28.639     8.776
    24   6 C        2.920    -0.037    28.929     8.820
    25   6 C        2.928     0.074    26.354     8.419
    26   7 N        2.754    -0.069    22.582     7.058
    27   6 C        2.927     0.058    26.709     8.475
    28   6 C        2.924    -0.058    29.447     8.899
    29   6 C        2.920    -0.032    28.807     8.801
    30   6 C        2.917    -0.044    29.095     8.845
    31   6 C        2.928    -0.036    28.902     8.817
    32   6 C        2.980    -0.014    28.353     8.734
    33   6 C        3.909     0.021    20.157     6.381
    34   6 C        3.761    -0.103    22.511     6.764
    35   6 C        3.761    -0.103    22.511     6.764
    36   6 C        2.980    -0.014    28.348     8.734
    37   6 C        2.928    -0.036    28.901     8.816
    38   6 C        2.917    -0.045    29.110     8.847
    39   6 C        2.920    -0.033    28.826     8.804
    40   6 C        2.924    -0.059    29.474     8.903
    41   6 C        2.927     0.058    26.703     8.474
    42   6 C        2.921    -0.036    28.902     8.816
    43   6 C        2.922    -0.029    28.713     8.787
    44   7 N        1.857    -0.237    27.043     7.708
    45   6 C        2.926    -0.025    28.639     8.776
    46   6 C        2.919    -0.037    28.915     8.818
    47   6 C        2.928     0.058    26.704     8.475
    48   6 C        2.924    -0.059    29.469     8.902
    49   6 C        2.920    -0.033    28.819     8.803
    50   6 C        2.917    -0.044    29.101     8.846
    51   6 C        2.928    -0.036    28.897     8.816
    52   6 C        2.980    -0.014    28.352     8.734
    53   1 H        0.925     0.031     2.568     2.506
    54   1 H        0.925     0.039     2.458     2.452
    55   1 H        0.925     0.039     2.460     2.453
    56   1 H        0.925     0.031     2.573     2.509
    57   1 H        0.925     0.039     2.459     2.452
    58   1 H        0.925     0.039     2.459     2.452
    59   1 H        0.926     0.030     2.584     2.514
    60   1 H        0.926     0.026     2.640     2.541
    61   1 H        0.926     0.027     2.634     2.538
    62   1 H        0.926     0.022     2.698     2.569
    63   1 H        0.926     0.045     2.386     2.415
    64   1 H        0.926     0.040     2.451     2.448
    65   1 H        0.926     0.042     2.428     2.437
    66   1 H        0.926     0.043     2.415     2.430
    67   1 H        0.926     0.055     2.253     2.347
    68   1 H        0.926     0.047     2.360     2.402
    69   1 H        0.926     0.026     2.651     2.546
    70   1 H        0.926     0.029     2.596     2.520
    71   1 H        0.926     0.026     2.638     2.540
    72   1 H        0.926     0.030     2.591     2.517
    73   1 H        0.925     0.039     2.460     2.453
    74   1 H        0.925     0.031     2.572     2.508
    75   1 H        0.925     0.039     2.464     2.455
    76   1 H        0.925     0.031     2.568     2.506
    77   1 H        0.925     0.039     2.459     2.452
    78   1 H        0.925     0.039     2.465     2.455
    79   1 H        0.926     0.030     2.590     2.516
    80   1 H        0.926     0.026     2.649     2.545
    81   1 H        0.926     0.027     2.635     2.539
    82   1 H        0.926     0.024     2.672     2.556
    83   1 H        0.926     0.049     2.337     2.391
    84   1 H        0.926     0.044     2.395     2.420
    85   1 H        0.926     0.062     2.173     2.305
    86   1 H        0.926     0.047     2.355     2.400
    87   1 H        0.926     0.024     2.675     2.558
    88   1 H        0.926     0.027     2.624     2.533
    89   1 H        0.926     0.026     2.638     2.540
    90   1 H        0.926     0.030     2.585     2.514

molecular dipole:
                 x           y           z       tot (Debye)
 q only:        0.936       0.642      -0.010
   full:        1.338       0.348      -0.067       3.518

 projected vibrational frequencies (cm⁻¹)
eigval :       -0.00    -0.00    -0.00    -0.00     0.00     0.00
eigval :        6.10     7.67    10.01    18.78    19.09    21.47
eigval :       32.58    40.42    45.10    54.10    56.78    61.51
eigval :       80.75    96.53    98.64    99.99   102.73   115.26
eigval :      124.88   128.06   128.33   131.75   137.06   171.65
eigval :      189.49   189.91   196.01   201.35   210.92   219.01
eigval :      219.07   228.87   234.31   235.65   279.58   299.14
eigval :      303.10   303.93   311.30   331.51   331.96   333.22
eigval :      344.36   345.99   357.93   372.65   376.13   377.18
eigval :      379.77   382.65   394.96   402.93   405.50   413.12
eigval :      416.95   419.83   448.82   451.61   452.78   482.32
eigval :      491.00   496.11   509.24   515.04   515.15   529.64
eigval :      537.37   547.40   547.42   550.16   572.39   575.67
eigval :      578.76   583.65   591.29   596.36   604.66   611.02
eigval :      620.68   632.41   646.95   660.83   682.62   682.95
eigval :      687.76   693.53   693.77   694.11   709.50   715.53
eigval :      733.97   747.38   756.14   776.77   777.17   777.99
eigval :      778.48   810.73   818.16   825.58   828.59   833.69
eigval :      853.56   866.30   866.84   867.10   868.20   870.33
eigval :      872.90   912.96   913.16   913.42   913.99   914.07
eigval :      914.27   915.19   917.92   919.64   920.34   921.18
eigval :      921.36   921.47   922.63   928.39   929.33   930.72
eigval :      938.79   939.25   957.21   957.27  1000.24  1014.41
eigval :     1014.46  1015.42  1056.53  1077.22  1077.26  1086.36
eigval :     1086.45  1096.04  1114.22  1114.94  1120.12  1120.35
eigval :     1128.45  1132.42  1141.14  1141.37  1146.75  1160.35
eigval :     1160.44  1173.12  1173.34  1184.12  1185.53  1187.57
eigval :     1187.74  1188.38  1188.72  1204.94  1208.47  1234.99
eigval :     1240.52  1245.44  1250.34  1250.71  1250.82  1262.68
eigval :     1264.51  1269.42  1269.60  1284.63  1295.16  1295.48
eigval :     1302.64  1311.08  1313.50  1322.56  1326.13  1326.74
eigval :     1329.79  1335.23  1336.32  1341.53  1342.84  1383.77
eigval :     1402.48  1402.97  1403.23  1409.20  1421.01  1421.07
eigval :     1426.46  1436.72  1436.93  1443.31  1443.67  1480.00
eigval :     1480.60  1481.05  1482.96  1490.07  1490.17  1491.06
eigval :     1491.11  1497.57  1497.74  1500.59  1500.60  1505.43
eigval :     1505.45  1521.27  1546.26  1560.78  1561.23  1575.90
eigval :     1575.95  1588.22  1589.70  1592.21  1593.39  1593.44
eigval :     1593.66  1602.99  1603.12  2359.01  3026.33  3026.46
eigval :     3028.52  3028.71  3039.49  3039.63  3042.17  3042.35
eigval :     3048.39  3048.53  3052.17  3052.73  3077.38  3077.75
eigval :     3077.92  3078.53  3079.22  3082.88  3082.91  3083.35
eigval :     3084.18  3084.49  3087.99  3089.57  3090.54  3093.69
eigval :     3094.22  3094.45  3094.92  3095.64  3099.62  3101.01
eigval :     3101.35  3101.44  3102.87  3103.28  3108.00  3108.42

   temp. (K)  partition function   enthalpy   heat capacity  entropy
                                   cal/mol     cal/K/mol   cal/K/mol   J/K/mol
 298.15  VIB  0.168E+22            26171.359    162.680    164.271
         ROT  0.149E+09              888.752      2.981     40.385
         INT  0.251E+30            27060.111    165.661    204.655
         TR   0.168E+29             1481.254      4.968     45.371
         TOT                       28541.3650   170.6290   250.0264  1046.1103

       T/K    H(0)-H(T)+PV         H(T)/Eh          T*S/Eh         G(T)/Eh
   ------------------------------------------------------------------------
    298.15    0.454836E-01    0.755774E+00    0.118796E+00    0.636979E+00
   ------------------------------------------------------------------------

         :::::::::::::::::::::::::::::::::::::::::::::::::::::
         ::                  THERMODYNAMIC                  ::
         :::::::::::::::::::::::::::::::::::::::::::::::::::::
         :: total free energy        -133.249391349786 Eh   ::
         ::.................................................::
         :: total energy             -133.886369877275 Eh   ::
         :: zero point energy           0.710290554927 Eh   ::
         :: G(RRHO) w/o ZPVE           -0.073312027438 Eh   ::
         :: G(RRHO) contrib.            0.636978527489 Eh   ::
         :::::::::::::::::::::::::::::::::::::::::::::::::::::

           -------------------------------------------------
          | TOTAL ENERGY             -133.886369877275 Eh   |
          | TOTAL ENTHALPY           -133.130595762058 Eh   |
          | TOTAL FREE ENERGY        -133.249391349786 Eh   |
          | GRADIENT NORM               0.000050842161 Eh/α |
          | HOMO-LUMO GAP               1.314815572919 eV   |
           -------------------------------------------------

 * finished run on 2025/07/18 at 07:14:26.846
