   * xtb version 6.7.1 (edcfbbe) compiled by 'albert@albert-system' on 2024-07-22

   ID    Z sym.   atoms
    1    6 C      1-31, 33-61, 63-67
    2    7 N      32, 62
    3    1 H      68-131

          program call               : xtb data2507/toluene/C3FLA-2/C3FLA-2_toluene_T1_crest.xyz --gfn 2 --uhf 2 --gbsa toluene --ohess vtight --parallel 40 --molden --ceasefiles --namespace data2507/toluene/C3FLA-2/C3FLA-2_toluene_T1_finalOpt
      * Solvation model:               GBSA
        Solvent                        toluene
        Solvent mass                       9.2140E+01 g/mol
          :  Hamiltonian                  GFN2-xTB          :
 * total energy  :  -177.6336116 Eh     change       -0.1158344E-07 Eh
 * total energy  :  -177.6336914 Eh     change       -0.7979994E-04 Eh
 * total energy  :  -177.6337038 Eh     change       -0.1239966E-04 Eh
 * total energy  :  -177.6337058 Eh     change       -0.2012473E-05 Eh
 * total energy  :  -177.6337266 Eh     change       -0.2073166E-04 Eh
 * total energy  :  -177.6337295 Eh     change       -0.2886919E-05 Eh
 * total energy  :  -177.6337287 Eh     change        0.7639051E-06 Eh
 * total energy  :  -177.6337413 Eh     change       -0.1264282E-04 Eh
 * total energy  :  -177.6337448 Eh     change       -0.3501246E-05 Eh
 * total energy  :  -177.6337466 Eh     change       -0.1723869E-05 Eh
 * total energy  :  -177.6338409 Eh     change       -0.9887468E-06 Eh
 * total energy  :  -177.6338418 Eh     change       -0.8382363E-06 Eh
 * total energy  :  -177.6338425 Eh     change       -0.7399736E-06 Eh
 * total energy  :  -177.6338433 Eh     change       -0.8099487E-06 Eh
 * total energy  :  -177.6338442 Eh     change       -0.8899557E-06 Eh
 * total energy  :  -177.6338449 Eh     change       -0.7163958E-06 Eh
 * total energy  :  -177.6338454 Eh     change       -0.5187727E-06 Eh
 * total energy  :  -177.6338459 Eh     change       -0.4234657E-06 Eh
 * total energy  :  -177.6338459 Eh     change       -0.1220286E-08 Eh
   *** GEOMETRY OPTIMIZATION CONVERGED AFTER 68 ITERATIONS ***

 final structure:
================
131
 xtb: 6.7.1 (edcfbbe)
C           -0.25565644982400        4.94061910712737        1.73723059776757
C           -0.34894351125190        3.51397264913232        2.26606593363499
C           -0.22458545306343        2.48389813003826        1.14526443481715
C           -0.32301985666713        1.05544946208822        1.67713180884004
C           -0.20821247909186       -0.01155826093761        0.57126952339504
C           -0.32077527885371       -1.41426375843511        1.19921252286881
C           -0.23022528967364       -2.53633235092589        0.16620907516913
C           -0.27505624861289       -3.92985469620513        0.79545434086196
C           -1.62832856134086       -4.27175596396107        1.41017792884088
C            1.07385022823739        0.14410352415919       -0.21343727412687
C            2.35945469279800        0.06024250923769        0.22400160071128
C            3.42038784303299        0.23740882539169       -0.70414932758670
C            4.73555423292792        0.15064770013726       -0.28912636584535
C            5.90009280727166        0.06995433172708        0.07510615284018
C            7.22525020839933       -0.02449559920419        0.47343832409367
C            7.54761784546027       -0.26084699105570        1.82948935668281
C            8.85406411525029       -0.36202558943367        2.23811354140384
C            9.87375032565795       -0.23321297332092        1.29151622684278
C            9.56068445589591        0.00376332452346       -0.06832213494888
C            8.26234555211670        0.10955136471515       -0.48013192196651
C           10.82388739977760        0.10221536124759       -0.89192651223928
C           10.87557211791767       -0.98956708361622       -1.97810679704676
C           10.74165585559005       -2.40571622140038       -1.42104727775523
C           10.79082962152535       -3.44703359658823       -2.53334835498983
C           10.95789882515663        1.48665969005392       -1.55515146366986
C           10.91851539708620        2.64280732066984       -0.55738767088367
C           11.04532550383435        3.98792959177051       -1.26330464549821
C           11.88815454272898       -0.11118892891704        0.15844309456610
C           13.25016412099326       -0.13437266129406        0.00579803828612
C           14.05150797913405       -0.35476026974697        1.13985235048921
C           15.44960046259395       -0.38627790651080        1.00622501372409
N           16.59496815081605       -0.41187005149725        0.89332537244958
C           13.46917160841520       -0.54570189427795        2.40211914759994
C           12.10016486184363       -0.52031619112032        2.55169755711902
C           11.30093898081973       -0.30336143480163        1.42941767455849
C            3.12200115661231        0.50352977529274       -2.06791051371019
C            1.83138601944584        0.58996290702659       -2.50523551935123
C            0.78089061654221        0.41090617909992       -1.58450345794855
C           -0.62068705109633        0.44260759687451       -1.75857017506193
C           -1.40531180580533        0.66701683926349       -2.90643054743908
C           -2.76609087301711        0.63964531101763       -2.79819392303626
C           -3.40005437359829        0.38831652658103       -1.55130113551037
C           -4.77924364377016        0.35983392300412       -1.47326202430982
C           -6.00042820181761        0.33519054856922       -1.41434917583976
C           -7.38557952210768        0.29817488190115       -1.35735563285334
C           -8.14633250094206        0.51671952856092       -2.52907229781575
C           -9.51775895833179        0.47596030071995       -2.49927506899507
C          -10.16281892270324        0.21608601825527       -1.28733065632647
C           -9.41005322552834        0.00197228759353       -0.10803662015769
C           -8.04436076793425        0.03936860493800       -0.13211325688515
C          -10.32830586869052       -0.25330586713490        1.06499479368002
C          -10.08915927402576       -1.64746125324684        1.67592460480008
C          -10.23518753095907       -2.78478325069725        0.66640232681807
C           -9.98125818525814       -4.13951269855941        1.31765065292441
C          -10.15706301883569        0.81863552016397        2.15870145522978
C          -10.38221414510768        2.24228351835039        1.65231284995784
C          -10.19563085084310        3.26405501600586        2.76818263906600
C          -11.68740414154830       -0.16309926336466        0.41221710702007
C          -12.92451217397823       -0.31198965305593        0.98355672217139
C          -14.06286725623936       -0.18693185785239        0.16775643134989
C          -15.34082921246234       -0.33682741159359        0.73176136836830
N          -16.38651280808340       -0.46048080312747        1.19698916304018
C          -13.93533175823356        0.08578398520308       -1.20278881974543
C          -12.69052008736568        0.23571675508046       -1.77294988114561
C          -11.55836455306833        0.11271411778105       -0.96763747928397
C           -2.60717543155382        0.16506826201360       -0.39385373926330
C           -1.25128459184820        0.19426061666833       -0.50276927133828
H           -1.04927168777423        5.13366633307834        1.01794534399108
H            0.70029684513041        5.10269535460561        1.24307775689398
H           -0.34758623733551        5.65761019526815        2.55035803181494
H            0.44364733071151        3.34788799437679        2.99989837207747
H           -1.30612297082454        3.37944243238708        2.77587817380126
H            0.73304392881640        2.61968858362937        0.63666612300743
H           -1.01571483742287        2.65557322906219        0.41120705257238
H            0.47053627616597        0.88879410714661        2.40871755439246
H           -1.27968551528219        0.92839187374426        2.18838734439459
H            0.47985855468026       -1.53599521673077        1.93198050345439
H           -1.27293241100396       -1.47706653719895        1.72685521423285
H           -1.04927459879586       -2.44055438606437       -0.55081293056394
H            0.70644931928015       -2.43360013634269       -0.38791917482977
H            0.50183475638732       -4.00674827422195        1.56007280698622
H           -0.04639158561226       -4.66533898181509        0.01997416615904
H           -1.84756736443101       -3.63048720675004        2.26002644024162
H           -1.63411383595917       -5.30321800127202        1.75682003029358
H           -2.42104759397834       -4.15369616920665        0.67381051463437
H            2.59983085371648       -0.14049296150962        1.25771552793435
H            6.74113691968098       -0.35947355849653        2.54166458953007
H            9.09164157338612       -0.54167231155294        3.27617889619618
H            8.00559859897946        0.28908126323599       -1.51375063527092
H           11.82249318265420       -0.90435861336957       -2.51572675336082
H           10.06955902667602       -0.80897736789734       -2.69247339137282
H            9.79666968765342       -2.49737668021894       -0.88055878900505
H           11.54956949149767       -2.59659077657142       -0.71050023861599
H            9.98004813104195       -3.28868140912225       -3.24166417493438
H           10.69547327962757       -4.44921484116592       -2.12137405679045
H           11.73426151716869       -3.38691524257402       -3.07243811522863
H           11.90022882415559        1.52136104759523       -2.10635516056283
H           10.14605670357649        1.60848831137574       -2.27541272041354
H           11.73346897534942        2.53271402755929        0.16227180570920
H            9.97922969063244        2.61252583115906       -0.00021084804888
H           10.23020903190203        4.12665751080786       -1.97072982733534
H           11.01587699418180        4.80154666625995       -0.54201528151232
H           11.98580935834483        4.04687568963987       -1.80769049182868
H           13.71990670726988        0.01001664658157       -0.95642537541198
H           14.11299889364967       -0.71267753523987        3.25405077346625
H           11.65597631786578       -0.66744421582132        3.52449752626355
H            3.94639005084677        0.63591350853327       -2.75374954225203
H            1.61327102955666        0.79303420801455       -3.54314721930454
H           -0.93155893011988        0.85742450483365       -3.85790700488943
H           -3.39194715226875        0.80815429965480       -3.66280802809909
H           -7.62310094561506        0.71530434036812       -3.45335513274580
H          -10.09114396379506        0.64230903950087       -3.39917442405066
H           -7.45462182883803       -0.12490434531543        0.75758952894998
H           -9.08385023799139       -1.67413441373844        2.10157406983787
H          -10.80008920005942       -1.79920118461085        2.49109557302135
H          -11.24192043914685       -2.76985322065319        0.24167900306559
H           -9.52854047285542       -2.63838746742373       -0.15380817413516
H          -10.08873480016282       -4.93932300635353        0.58836980847526
H           -8.97496435492899       -4.18337904750245        1.72939139760395
H          -10.69015959693496       -4.31473205776124        2.12454434287926
H          -10.86213138727949        0.61042501073430        2.96650413669566
H           -9.14798149896658        0.74042872320691        2.56876690664135
H          -11.39284382415494        2.33012192760670        1.24595194548676
H           -9.68060579973072        2.45717855794785        0.84290094694479
H          -10.90011447161250        3.08030571976995        3.57705473184944
H           -9.18691437141880        3.20876121228266        3.17249953424556
H          -10.36030296718269        4.27186776391928        2.39351472235798
H          -13.04622475773569       -0.52271914964661        2.03625036904308
H          -14.82968799481269        0.17538680553827       -1.80298303877050
H          -12.59630586071235        0.44528108970706       -2.82770124397056
H           -3.10112089309307       -0.02354217219046        0.54791459425421

          :  Hamiltonian                  GFN2-xTB          :
         :: gradient norm              0.000130634925 Eh/a0 ::
         :: HOMO-LUMO gap              0.298414488251 eV    ::
         :: SCC energy              -180.925711671009 Eh    ::
         :: -> dispersion             -0.160556424999 Eh    ::
         :: -> Gsolv                  -0.083294124108 Eh    ::
         :: repulsion energy           3.291865807524 Eh    ::

    * Orbital Energies and Occupations

         #    Occupation            Energy/Eh            Energy/eV
      -------------------------------------------------------------
         1        2.0000           -0.6653725             -18.1057
       ...           ...                  ...                  ...
       156        2.0000           -0.4145862             -11.2815
       157        2.0000           -0.4140372             -11.2665
       158        2.0000           -0.4120787             -11.2132
       159        2.0000           -0.4070777             -11.0771
       160        2.0000           -0.4045886             -11.0094
       161        2.0000           -0.4045252             -11.0077
       162        2.0000           -0.4040472             -10.9947
       163        2.0000           -0.4030040             -10.9663
       164        2.0000           -0.4012869             -10.9196
       165        2.0000           -0.3923980             -10.6777
       166        1.9996           -0.3766579             -10.2494
       167        1.0004           -0.3618157              -9.8455
       168        0.9969           -0.2946474              -8.0178 (HOMO)
       169        0.0031           -0.2836810              -7.7194 (LUMO)
       170                         -0.2694697              -7.3326
       171                         -0.2489074              -6.7731
       172                         -0.2335094              -6.3541
       173                         -0.2331277              -6.3437
       174                         -0.2284733              -6.2171
       175                         -0.2275719              -6.1925
       176                         -0.2249818              -6.1221
       177                         -0.2241702              -6.1000
       178                         -0.2229206              -6.0660
       179                         -0.2056320              -5.5955
       ...                                ...                  ...
       332                          1.3935823              37.9213
      -------------------------------------------------------------
                  HL-Gap            0.0109665 Eh            0.2984 eV

     #   Z          covCN         q      C6AA      α(0)
     1   6 C        3.752    -0.102    22.505     6.765
     2   6 C        3.801    -0.053    21.527     6.606
     3   6 C        3.802    -0.054    21.548     6.609
     4   6 C        3.808    -0.056    21.579     6.613
     5   6 C        3.934     0.010    20.340     6.409
     6   6 C        3.808    -0.057    21.588     6.614
     7   6 C        3.801    -0.054    21.535     6.607
     8   6 C        3.800    -0.053    21.524     6.605
     9   6 C        3.751    -0.102    22.508     6.766
    10   6 C        3.048     0.008    27.798     8.647
    11   6 C        2.917    -0.034    28.846     8.807
    12   6 C        2.969     0.036    27.200     8.555
    13   6 C        1.984    -0.036    32.021     9.138
    14   6 C        1.985    -0.034    31.951     9.128
    15   6 C        2.970     0.033    27.268     8.565
    16   6 C        2.926    -0.031    28.766     8.796
    17   6 C        2.909    -0.033    28.814     8.802
    18   6 C        3.036     0.001    27.963     8.674
    19   6 C        3.049     0.005    27.865     8.657
    20   6 C        2.920    -0.033    28.830     8.805
    21   6 C        3.935     0.010    20.339     6.409
    22   6 C        3.808    -0.056    21.580     6.613
    23   6 C        3.800    -0.048    21.442     6.593
    24   6 C        3.752    -0.102    22.518     6.767
    25   6 C        3.809    -0.056    21.579     6.613
    26   6 C        3.800    -0.048    21.441     6.593
    27   6 C        3.752    -0.102    22.518     6.767
    28   6 C        3.053     0.006    27.835     8.653
    29   6 C        2.920    -0.027    28.674     8.781
    30   6 C        2.974     0.003    27.947     8.672
    31   6 C        1.913     0.114    28.293     8.590
    32   7 N        0.911    -0.300    27.730     7.616
    33   6 C        2.926    -0.025    28.637     8.776
    34   6 C        2.911    -0.034    28.840     8.806
    35   6 C        3.034     0.005    27.874     8.660
    36   6 C        2.923    -0.029    28.729     8.790
    37   6 C        2.907    -0.032    28.796     8.799
    38   6 C        3.034     0.005    27.874     8.660
    39   6 C        3.034     0.005    27.871     8.659
    40   6 C        2.907    -0.032    28.793     8.799
    41   6 C        2.924    -0.029    28.729     8.790
    42   6 C        2.969     0.036    27.199     8.555
    43   6 C        1.984    -0.036    32.020     9.138
    44   6 C        1.985    -0.034    31.951     9.128
    45   6 C        2.970     0.033    27.268     8.565
    46   6 C        2.926    -0.031    28.768     8.796
    47   6 C        2.909    -0.033    28.814     8.802
    48   6 C        3.036     0.001    27.963     8.673
    49   6 C        3.049     0.005    27.866     8.658
    50   6 C        2.919    -0.033    28.829     8.805
    51   6 C        3.935     0.010    20.338     6.409
    52   6 C        3.808    -0.056    21.582     6.613
    53   6 C        3.800    -0.048    21.441     6.593
    54   6 C        3.752    -0.103    22.519     6.767
    55   6 C        3.808    -0.056    21.581     6.613
    56   6 C        3.800    -0.048    21.441     6.593
    57   6 C        3.752    -0.103    22.518     6.767
    58   6 C        3.053     0.006    27.834     8.652
    59   6 C        2.920    -0.027    28.674     8.781
    60   6 C        2.974     0.003    27.948     8.672
    61   6 C        1.913     0.114    28.293     8.590
    62   7 N        0.911    -0.300    27.730     7.616
    63   6 C        2.926    -0.025    28.637     8.776
    64   6 C        2.911    -0.034    28.841     8.806
    65   6 C        3.034     0.005    27.875     8.660
    66   6 C        2.917    -0.034    28.841     8.806
    67   6 C        3.048     0.008    27.789     8.646
    68   1 H        0.925     0.033     2.541     2.493
    69   1 H        0.925     0.033     2.543     2.494
    70   1 H        0.925     0.034     2.534     2.489
    71   1 H        0.924     0.030     2.584     2.514
    72   1 H        0.924     0.030     2.581     2.512
    73   1 H        0.924     0.029     2.603     2.523
    74   1 H        0.924     0.029     2.599     2.521
    75   1 H        0.924     0.038     2.474     2.460
    76   1 H        0.924     0.038     2.470     2.458
    77   1 H        0.924     0.038     2.472     2.459
    78   1 H        0.924     0.043     2.414     2.429
    79   1 H        0.924     0.030     2.589     2.516
    80   1 H        0.924     0.026     2.642     2.542
    81   1 H        0.924     0.031     2.576     2.510
    82   1 H        0.924     0.028     2.609     2.526
    83   1 H        0.925     0.036     2.504     2.475
    84   1 H        0.925     0.032     2.560     2.502
    85   1 H        0.925     0.034     2.529     2.487
    86   1 H        0.926     0.036     2.504     2.474
    87   1 H        0.926     0.036     2.503     2.474
    88   1 H        0.926     0.034     2.527     2.486
    89   1 H        0.926     0.036     2.497     2.471
    90   1 H        0.924     0.037     2.483     2.464
    91   1 H        0.924     0.042     2.428     2.437
    92   1 H        0.924     0.029     2.594     2.519
    93   1 H        0.924     0.025     2.662     2.551
    94   1 H        0.925     0.037     2.489     2.467
    95   1 H        0.925     0.035     2.521     2.483
    96   1 H        0.925     0.035     2.521     2.483
    97   1 H        0.924     0.037     2.483     2.464
    98   1 H        0.924     0.042     2.428     2.437
    99   1 H        0.924     0.025     2.661     2.551
   100   1 H        0.924     0.029     2.594     2.519
   101   1 H        0.925     0.037     2.489     2.467
   102   1 H        0.925     0.035     2.521     2.483
   103   1 H        0.925     0.035     2.521     2.483
   104   1 H        0.926     0.034     2.536     2.490
   105   1 H        0.926     0.032     2.554     2.499
   106   1 H        0.926     0.039     2.456     2.451
   107   1 H        0.926     0.036     2.506     2.476
   108   1 H        0.926     0.036     2.503     2.474
   109   1 H        0.926     0.036     2.505     2.475
   110   1 H        0.926     0.035     2.514     2.479
   111   1 H        0.926     0.035     2.514     2.479
   112   1 H        0.926     0.034     2.532     2.488
   113   1 H        0.926     0.037     2.485     2.465
   114   1 H        0.924     0.042     2.422     2.434
   115   1 H        0.924     0.038     2.482     2.464
   116   1 H        0.924     0.025     2.665     2.553
   117   1 H        0.924     0.029     2.595     2.519
   118   1 H        0.925     0.035     2.522     2.484
   119   1 H        0.925     0.037     2.485     2.465
   120   1 H        0.925     0.035     2.521     2.483
   121   1 H        0.924     0.038     2.481     2.463
   122   1 H        0.924     0.042     2.423     2.434
   123   1 H        0.924     0.025     2.664     2.552
   124   1 H        0.924     0.029     2.595     2.519
   125   1 H        0.925     0.035     2.521     2.483
   126   1 H        0.925     0.037     2.486     2.466
   127   1 H        0.925     0.035     2.522     2.484
   128   1 H        0.926     0.034     2.534     2.489
   129   1 H        0.926     0.032     2.556     2.500
   130   1 H        0.926     0.039     2.459     2.452
   131   1 H        0.926     0.037     2.489     2.467

molecular dipole:
                 x           y           z       tot (Debye)
 q only:       -0.051       0.311      -0.690
   full:       -0.094       0.364      -0.867       2.401

 projected vibrational frequencies (cm⁻¹)
eigval :       -0.00    -0.00    -0.00     0.00     0.00     0.00
eigval :        2.85     4.54     6.49    10.35    13.35    14.61
eigval :       15.95    20.19    22.77    35.01    38.63    40.80
eigval :       41.68    48.29    49.67    50.89    55.50    55.78
eigval :       58.47    61.71    64.95    67.39    70.36    76.95
eigval :       80.97    82.47    86.67    91.97    94.60    97.71
eigval :      100.72   103.75   105.26   110.89   113.97   117.87
eigval :      121.64   141.14   143.53   152.59   156.02   167.54
eigval :      173.53   187.80   189.99   202.17   203.89   208.93
eigval :      215.75   220.83   222.08   224.61   226.89   229.10
eigval :      235.05   239.02   241.96   244.88   249.97   253.74
eigval :      255.45   262.84   264.51   267.87   284.61   285.67
eigval :      299.81   303.84   304.37   304.92   316.27   330.73
eigval :      335.83   339.84   340.32   357.57   365.99   378.40
eigval :      382.81   402.21   406.83   412.93   424.09   425.90
eigval :      430.76   434.98   435.02   438.31   442.86   446.09
eigval :      456.73   457.27   472.40   487.31   489.23   508.50
eigval :      509.41   511.09   512.48   547.01   552.23   560.62
eigval :      565.77   567.37   569.70   571.24   571.57   581.67
eigval :      582.91   584.23   586.14   607.50   621.98   626.26
eigval :      632.55   633.80   663.78   683.72   707.81   709.24
eigval :      712.50   712.64   715.80   715.83   718.20   724.30
eigval :      725.59   732.30   736.15   775.20   783.59   784.01
eigval :      784.69   794.29   797.27   805.88   811.85   813.04
eigval :      816.21   816.70   822.88   824.37   826.33   851.03
eigval :      858.91   860.09   862.37   864.74   872.14   873.63
eigval :      874.25   886.19   889.16   893.92   894.92   903.99
eigval :      904.61   905.05   906.80   907.63   907.78   924.92
eigval :      927.34   929.06   929.68   930.41   939.55   942.97
eigval :      950.73   959.74   960.74   968.48   970.75   978.29
eigval :      989.90   995.98  1006.49  1012.97  1017.39  1025.37
eigval :     1025.85  1066.17  1077.87  1078.36  1086.05  1087.14
eigval :     1088.24  1089.84  1092.58  1094.11  1094.35  1096.28
eigval :     1102.89  1107.15  1111.16  1112.19  1116.69  1128.10
eigval :     1132.03  1135.85  1136.18  1137.32  1137.57  1140.53
eigval :     1140.93  1143.11  1147.60  1153.39  1155.63  1157.37
eigval :     1183.16  1183.85  1186.15  1201.90  1203.45  1209.69
eigval :     1213.52  1216.92  1218.39  1219.14  1224.17  1228.86
eigval :     1231.90  1232.72  1235.80  1240.03  1247.17  1249.62
eigval :     1256.35  1262.94  1265.53  1267.32  1269.59  1276.05
eigval :     1278.13  1278.57  1279.09  1284.11  1284.38  1284.76
eigval :     1292.40  1297.12  1298.03  1298.62  1302.37  1306.41
eigval :     1311.51  1311.83  1325.53  1326.61  1331.90  1332.33
eigval :     1338.35  1339.57  1341.37  1350.69  1353.03  1355.02
eigval :     1355.55  1364.63  1369.66  1370.68  1374.61  1392.59
eigval :     1398.85  1406.67  1412.64  1412.81  1413.37  1413.41
eigval :     1414.67  1416.62  1423.63  1439.48  1439.73  1442.21
eigval :     1447.88  1451.91  1464.57  1472.78  1473.40  1475.87
eigval :     1476.28  1476.56  1482.77  1483.26  1485.36  1488.39
eigval :     1490.65  1493.02  1493.36  1496.09  1497.95  1498.55
eigval :     1499.61  1499.74  1500.31  1500.99  1501.04  1501.27
eigval :     1501.49  1501.82  1502.51  1502.94  1503.60  1503.73
eigval :     1503.97  1505.46  1505.58  1509.76  1516.91  1518.82
eigval :     1542.47  1550.91  1565.19  1575.34  1589.15  1593.53
eigval :     1594.09  2096.60  2210.25  2317.11  2325.94  2954.33
eigval :     2957.04  2957.98  2959.23  2959.32  2960.25  2960.46
eigval :     2961.73  2969.46  2969.52  2969.80  2970.99  2971.14
eigval :     2971.32  2972.94  2974.98  2975.13  2975.76  2976.09
eigval :     2977.82  2978.96  2979.40  2981.25  2981.55  2981.85
eigval :     2983.21  2983.69  2993.84  3022.47  3024.00  3024.12
eigval :     3024.30  3024.59  3024.73  3025.69  3027.49  3027.56
eigval :     3027.85  3027.94  3029.09  3032.62  3035.23  3035.69
eigval :     3035.74  3036.25  3041.17  3074.60  3074.65  3075.08
eigval :     3075.97  3076.26  3076.36  3079.33  3079.60  3082.01
eigval :     3082.49  3082.75  3083.16  3086.30  3086.35  3086.87
eigval :     3088.53  3090.64  3090.88

   temp. (K)  partition function   enthalpy   heat capacity  entropy
                                   cal/mol     cal/K/mol   cal/K/mol   J/K/mol
 298.15  VIB  0.101E+37            40583.064    232.706    266.059
         ROT  0.399E+09              888.752      2.981     42.338
         INT  0.402E+45            41471.816    235.687    308.397
         TR   0.250E+29             1481.254      4.968     46.156
         TOT                       42953.0704   240.6553   354.5533  1483.4511

       T/K    H(0)-H(T)+PV         H(T)/Eh          T*S/Eh         G(T)/Eh
   ------------------------------------------------------------------------
    298.15    0.684501E-01    0.114685E+01    0.168460E+00    0.978392E+00
   ------------------------------------------------------------------------

         :::::::::::::::::::::::::::::::::::::::::::::::::::::
         ::                  THERMODYNAMIC                  ::
         :::::::::::::::::::::::::::::::::::::::::::::::::::::
         :: total free energy        -176.655453366829 Eh   ::
         ::.................................................::
         :: total energy             -177.633845856080 Eh   ::
         :: zero point energy           1.078402144069 Eh   ::
         :: G(RRHO) w/o ZPVE           -0.100009654817 Eh   ::
         :: G(RRHO) contrib.            0.978392489251 Eh   ::
         :::::::::::::::::::::::::::::::::::::::::::::::::::::

           -------------------------------------------------
          | TOTAL ENERGY             -177.633845856080 Eh   |
          | TOTAL ENTHALPY           -176.486993637314 Eh   |
          | TOTAL FREE ENERGY        -176.655453366829 Eh   |
          | GRADIENT NORM               0.000129558619 Eh/α |
          | HOMO-LUMO GAP               0.298412578361 eV   |
           -------------------------------------------------

 * finished run on 2025/09/06 at 20:58:24.529
