   * xtb version 6.7.1 (edcfbbe) compiled by 'albert@albert-system' on 2024-07-22

   ID    Z sym.   atoms
    1    6 C      1-31, 33-61, 63-67
    2    7 N      32, 62
    3    1 H      68-131

          program call               : xtb data2507/toluene/C3FLA-2/C3FLA-2.xyz --gfn 2 --gbsa toluene --ohess vtight --parallel 40 --molden --ceasefiles --namespace data2507/toluene/C3FLA-2/C3FLA-2_toluene_S0_preOpt
      * Solvation model:               GBSA
        Solvent                        toluene
        Solvent mass                       9.2140E+01 g/mol
          :  Hamiltonian                  GFN2-xTB          :
 * total energy  :  -177.6699794 Eh     change       -0.7018286E-08 Eh
 * total energy  :  -177.6809333 Eh     change       -0.1095389E-01 Eh
 * total energy  :  -177.6833842 Eh     change       -0.2450908E-02 Eh
 * total energy  :  -177.6839641 Eh     change       -0.5799850E-03 Eh
 * total energy  :  -177.6842201 Eh     change       -0.2559475E-03 Eh
 * total energy  :  -177.6843801 Eh     change       -0.1599626E-03 Eh
 * total energy  :  -177.6846026 Eh     change       -0.2225529E-03 Eh
 * total energy  :  -177.6848092 Eh     change       -0.2065678E-03 Eh
 * total energy  :  -177.6850617 Eh     change       -0.2525450E-03 Eh
 * total energy  :  -177.6852990 Eh     change       -0.2372391E-03 Eh
 * total energy  :  -177.6900932 Eh     change       -0.2832732E-06 Eh
 * total energy  :  -177.6900936 Eh     change       -0.3949481E-06 Eh
 * total energy  :  -177.6900938 Eh     change       -0.2113206E-06 Eh
 * total energy  :  -177.6900939 Eh     change       -0.1215840E-06 Eh
 * total energy  :  -177.6900941 Eh     change       -0.1538552E-06 Eh
 * total energy  :  -177.6900943 Eh     change       -0.2208968E-06 Eh
 * total energy  :  -177.6900945 Eh     change       -0.1687584E-06 Eh
 * total energy  :  -177.6900946 Eh     change       -0.1035727E-06 Eh
 * total energy  :  -177.6900947 Eh     change       -0.9190879E-07 Eh
   *** GEOMETRY OPTIMIZATION CONVERGED AFTER 577 ITERATIONS ***

 final structure:
================
131
 xtb: 6.7.1 (edcfbbe)
C            0.18857351213454        5.64221845802324       -1.08140877734862
C           -0.92913220600856        4.69738932106628       -1.51097230006521
C           -1.16394149531119        3.54356877242785       -0.53140919612884
C           -0.03447519822777        2.51735903128094       -0.56766439883186
C           -0.13490490788784        1.34880404381972        0.43639912391530
C           -0.26028728168237        1.79317663176057        1.90924117361621
C            0.83552560722348        2.71326376839706        2.44048637835842
C            0.52331580609127        3.17335282070809        3.86451950632793
C            1.61589402668828        4.08142221479361        4.41785857280205
C            1.05451065928743        0.43721515554492        0.19785703518644
C            2.39798680723801        0.72720106956225        0.25393018120765
C            3.32823298981326       -0.28054354070885       -0.03628703901165
C            4.70701992320655        0.00405025903980        0.03242477029560
C            5.88800923595937        0.25534044332947        0.09811383032810
C            7.26586009902254        0.54168833442338        0.17422951900224
C            7.70052134469859        1.72391695020233        0.78594832571616
C            9.04627653705688        2.01797764559871        0.87685666153839
C            9.96444926398986        1.12092355077163        0.34789594141650
C            9.53496787715550       -0.06402686225983       -0.27241567876769
C            8.19536958542636       -0.35875855136978       -0.36331979288315
C           10.71404623958938       -0.84645318664751       -0.81183334952829
C           10.75849457466783       -2.28504578929103       -0.27634856303789
C           10.71922958453183       -2.35307538561269        1.25002928557873
C           10.79802788813110       -3.79344962336100        1.74310321649128
C           10.60023323477799       -0.81470202264485       -2.35583159914085
C           11.77403193236711       -1.39979567054180       -3.13691022656472
C           11.48921170425098       -1.37558556855597       -4.63556790547572
C           11.87508732202738       -0.01341645454279       -0.31883829289474
C           13.22426440550056       -0.26671054054922       -0.40195952072333
C           14.11915163183123        0.67506427597035        0.12508120521661
C           15.50523715027854        0.43287985202251        0.03983690049475
N           16.63411181137770        0.23168114106336       -0.03454042001500
C           13.65785229382378        1.84581615694973        0.73487343359595
C           12.30142860445335        2.08271488407058        0.84327478540457
C           11.41288413473297        1.15121576819192        0.32342007373497
C            2.89513298893697       -1.56100224760064       -0.39662187805140
C            1.54711435373542       -1.84526951287605       -0.48224813290509
C            0.62950049952940       -0.84542013454804       -0.19031207851787
C           -0.81784798080919       -0.86176249873287       -0.22554448966403
C           -1.69754013947974       -1.89156369376843       -0.52970595570639
C           -3.05523315503026       -1.65205472556379       -0.46361876218467
C           -3.53566957433804       -0.39613457278434       -0.07759897045904
C           -4.92409879463701       -0.16831908912713        0.00471301107466
C           -6.11409044626647        0.03504621040599        0.07383068580153
C           -7.50273922421342        0.26135767998172        0.15510040818240
C           -7.98651305765041        1.53733250067752        0.46642532328087
C           -9.34426993511711        1.77501650571403        0.52913222594598
C          -10.22069095176518        0.72277452831605        0.29965263693783
C           -9.74525144130861       -0.56924676415565        0.01521896041013
C           -8.39172906850549       -0.79602732160856       -0.08218793716987
C          -10.89731818162745       -1.53132647156925       -0.20543786985419
C          -10.78756711227021       -2.07613275564109       -1.64538171928625
C          -11.88813906846191       -3.02970771280217       -2.10408648584866
C          -11.57301821271562       -3.59062558858486       -3.48761689986183
C          -10.97270692120366       -2.62667809593402        0.88063553947454
C           -9.83806756010498       -3.64785219503178        0.90302122224685
C          -10.10090349724412       -4.72089384987226        1.95532667750168
C          -12.08905152736207       -0.61301307428293       -0.01388472322255
C          -13.43140083719382       -0.91408807599187       -0.03068922547172
C          -14.35631588183445        0.11343868193589        0.20070486070672
C          -15.73455957168954       -0.18098783328544        0.17498347701225
N          -16.85720863476137       -0.42491231329699        0.15186403873198
C          -13.93379315752311        1.42014271400065        0.46368243550679
C          -12.58558157235937        1.71288199319420        0.51396296652772
C          -11.66799903231138        0.69675694941749        0.28154717678990
C           -2.64349798076981        0.63907766065460        0.23497528468881
C           -1.29033734336086        0.41192910394049        0.13696260137609
H            0.26048895398920        6.47838733946315       -1.77403505790853
H            1.15063414362209        5.13595224463683       -1.06737658837831
H           -0.00922617590153        6.03904565766013       -0.08735883284987
H           -1.85563463338973        5.27125748065628       -1.59589317003626
H           -0.70266717925684        4.29151350928433       -2.50000998713908
H           -2.10075051853451        3.05455893658129       -0.80203467258317
H           -1.26947145765607        3.95421350520615        0.47370026486369
H            0.01077022497922        2.08479124193099       -1.57204507331888
H            0.91526667034082        3.02190741131143       -0.39080495742124
H           -1.22489245247213        2.29011024871170        2.02973506120188
H           -0.28697637764855        0.88847146326881        2.52460682577958
H            1.79035544009753        2.18629853910993        2.44649917733916
H            0.93237086162033        3.59184676673701        1.80142570528138
H            0.41615630817091        2.29924280127267        4.51185828819939
H           -0.42973179101923        3.70842723763367        3.87352307124591
H            1.72522569082463        4.96978528553514        3.79858192516828
H            2.57085663165360        3.55994232220141        4.43999418861493
H            1.37494554705658        4.39753283348079        5.43067562984402
H            2.76100471645426        1.71239614924274        0.50454963484619
H            6.96486982815949        2.40414363097685        1.19034559732489
H            9.37509112455540        2.93014866721391        1.35220820130686
H            7.84444696837309       -1.26593663493951       -0.83301088369874
H           11.67176353346845       -2.76887966928563       -0.62538723463603
H            9.90924341156460       -2.83850469199224       -0.68230276100284
H            9.79639706844897       -1.89525230174442        1.61359947861741
H           11.55535224258794       -1.78264006797438        1.66232455909800
H           11.72567694067519       -4.25982223587250        1.41674802195118
H            9.96582199821011       -4.37701952813988        1.35444806171935
H           10.76228291782812       -3.82696251276827        2.82971718526252
H            9.69169709925824       -1.35590102903644       -2.62988504597938
H           10.46544199593608        0.22692951792586       -2.66179845900968
H           11.95618236112398       -2.43038376190314       -2.82862894943983
H           12.67595994053616       -0.81803087907560       -2.94024510714446
H           12.33200388205592       -1.78370072910403       -5.18920307688320
H           10.60653436727480       -1.96784476336242       -4.86857038471058
H           11.31707110312276       -0.35628203704106       -4.97571758585357
H           13.61076265304323       -1.17116874927669       -0.84683481816665
H           14.37360289031039        2.55284795025074        1.12898530850768
H           11.94276173337511        2.97592720106322        1.33172830116723
H            3.63025406946279       -2.32229004495410       -0.61540415586497
H            1.21426335902593       -2.82941618539676       -0.77782215018678
H           -1.32800865544846       -2.86731246748050       -0.80902669046955
H           -3.76149394229091       -2.43564299749871       -0.69810064278945
H           -7.28201385172469        2.33693652962363        0.64419272399285
H           -9.71657439552363        2.76449680050430        0.74903046815399
H           -7.99131001439543       -1.76328425673752       -0.34417673823813
H          -10.76572496569523       -1.21687738314921       -2.32255270309116
H           -9.82496050223863       -2.58198164782504       -1.73867700830627
H          -11.98728814828857       -3.85794598988167       -1.40127308750453
H          -12.84170558944858       -2.50177507720394       -2.14889426443277
H          -12.36903553085754       -4.25388142980856       -3.81928510343305
H          -11.47334136145023       -2.78575595958823       -4.21330533877463
H          -10.64188648355998       -4.15379464507162       -3.47214484219872
H          -11.00818141941842       -2.12430390455832        1.85221482410606
H          -11.91872495673298       -3.15795049065095        0.75970472869585
H           -8.89684207955508       -3.14976789458628        1.13719249424657
H           -9.74194702686418       -4.12571806794142       -0.07271172309786
H          -10.19445544110322       -4.27369482289556        2.94313625725055
H          -11.02132278005340       -5.25897488979529        1.73624939398222
H           -9.28308996737045       -5.43788573837869        1.98024839333994
H          -13.79464722774734       -1.91492403334918       -0.20751602072855
H          -14.67225509941563        2.18965503740973        0.63672894810964
H          -12.25436186832063        2.71585084084208        0.73599424859871
H           -3.04270846275599        1.58948001944842        0.55521588540403

          :  Hamiltonian                  GFN2-xTB          :
         :: gradient norm              0.000029039063 Eh/a0 ::
         :: HOMO-LUMO gap              2.077002645010 eV    ::
         :: SCC energy              -180.999009065849 Eh    ::
         :: -> dispersion             -0.158078480529 Eh    ::
         :: -> Gsolv                  -0.081645056952 Eh    ::
         :: repulsion energy           3.308914405175 Eh    ::

    * Orbital Energies and Occupations

         #    Occupation            Energy/Eh            Energy/eV
      -------------------------------------------------------------
         1        2.0000           -0.6684099             -18.1884
       ...           ...                  ...                  ...
       155        2.0000           -0.4147231             -11.2852
       156        2.0000           -0.4126934             -11.2300
       157        2.0000           -0.4099071             -11.1541
       158        2.0000           -0.4076427             -11.0925
       159        2.0000           -0.4059620             -11.0468
       160        2.0000           -0.4045495             -11.0084
       161        2.0000           -0.4041121             -10.9964
       162        2.0000           -0.4004792             -10.8976
       163        2.0000           -0.3997088             -10.8766
       164        2.0000           -0.3970509             -10.8043
       165        2.0000           -0.3933339             -10.7032
       166        2.0000           -0.3779673             -10.2850
       167        2.0000           -0.3635854              -9.8937 (HOMO)
       168                         -0.2872569              -7.8167 (LUMO)
       169                         -0.2828688              -7.6973
       170                         -0.2648590              -7.2072
       171                         -0.2450239              -6.6674
       172                         -0.2377203              -6.4687
       173                         -0.2372625              -6.4562
       174                         -0.2275403              -6.1917
       175                         -0.2269671              -6.1761
       176                         -0.2256646              -6.1406
       177                         -0.2241258              -6.0988
       178                         -0.2214425              -6.0258
       ...                                ...                  ...
       332                          1.4263286              38.8124
      -------------------------------------------------------------
                  HL-Gap            0.0763284 Eh            2.0770 eV

     #   Z          covCN         q      C6AA      α(0)
     1   6 C        3.751    -0.100    22.474     6.761
     2   6 C        3.800    -0.053    21.522     6.605
     3   6 C        3.800    -0.058    21.610     6.619
     4   6 C        3.808    -0.053    21.512     6.602
     5   6 C        3.931     0.010    20.340     6.409
     6   6 C        3.808    -0.052    21.500     6.601
     7   6 C        3.802    -0.058    21.622     6.620
     8   6 C        3.801    -0.052    21.506     6.603
     9   6 C        3.752    -0.101    22.498     6.764
    10   6 C        3.050    -0.000    27.985     8.676
    11   6 C        2.924    -0.036    28.889     8.814
    12   6 C        2.972     0.032    27.284     8.568
    13   6 C        1.983    -0.042    32.190     9.163
    14   6 C        1.983    -0.046    32.279     9.175
    15   6 C        2.973     0.037    27.172     8.550
    16   6 C        2.929    -0.033    28.826     8.805
    17   6 C        2.912    -0.032    28.796     8.799
    18   6 C        3.035    -0.002    28.036     8.685
    19   6 C        3.057     0.003    27.905     8.663
    20   6 C        2.923    -0.034    28.857     8.809
    21   6 C        3.934     0.011    20.326     6.407
    22   6 C        3.807    -0.057    21.593     6.615
    23   6 C        3.800    -0.049    21.446     6.594
    24   6 C        3.752    -0.102    22.513     6.766
    25   6 C        3.811    -0.054    21.529     6.605
    26   6 C        3.799    -0.052    21.512     6.604
    27   6 C        3.753    -0.103    22.523     6.768
    28   6 C        3.049     0.007    27.815     8.650
    29   6 C        2.923    -0.025    28.623     8.774
    30   6 C        2.975     0.008    27.829     8.653
    31   6 C        1.914     0.118    28.207     8.577
    32   7 N        0.911    -0.285    27.351     7.564
    33   6 C        2.928    -0.023    28.587     8.768
    34   6 C        2.913    -0.032    28.793     8.799
    35   6 C        3.038     0.010    27.761     8.642
    36   6 C        2.928    -0.034    28.835     8.806
    37   6 C        2.912    -0.035    28.868     8.810
    38   6 C        3.036    -0.001    28.021     8.683
    39   6 C        3.036    -0.001    28.021     8.682
    40   6 C        2.912    -0.035    28.869     8.811
    41   6 C        2.928    -0.034    28.835     8.806
    42   6 C        2.972     0.032    27.284     8.568
    43   6 C        1.983    -0.043    32.195     9.163
    44   6 C        1.983    -0.046    32.283     9.176
    45   6 C        2.972     0.037    27.177     8.551
    46   6 C        2.928    -0.033    28.816     8.803
    47   6 C        2.912    -0.032    28.800     8.800
    48   6 C        3.036    -0.002    28.037     8.685
    49   6 C        3.051     0.002    27.930     8.667
    50   6 C        2.924    -0.035    28.875     8.812
    51   6 C        3.930     0.011    20.327     6.407
    52   6 C        3.808    -0.054    21.541     6.607
    53   6 C        3.799    -0.052    21.508     6.603
    54   6 C        3.753    -0.102    22.509     6.766
    55   6 C        3.809    -0.053    21.521     6.604
    56   6 C        3.799    -0.053    21.523     6.605
    57   6 C        3.753    -0.102    22.508     6.765
    58   6 C        3.051     0.004    27.876     8.659
    59   6 C        2.923    -0.026    28.646     8.777
    60   6 C        2.975     0.009    27.823     8.652
    61   6 C        1.914     0.118    28.206     8.577
    62   7 N        0.911    -0.285    27.340     7.562
    63   6 C        2.928    -0.023    28.586     8.768
    64   6 C        2.913    -0.032    28.794     8.799
    65   6 C        3.036     0.010    27.770     8.643
    66   6 C        2.924    -0.036    28.894     8.815
    67   6 C        3.050    -0.000    27.992     8.677
    68   1 H        0.925     0.030     2.579     2.512
    69   1 H        0.925     0.033     2.538     2.491
    70   1 H        0.925     0.034     2.527     2.486
    71   1 H        0.924     0.028     2.608     2.526
    72   1 H        0.924     0.028     2.617     2.530
    73   1 H        0.924     0.032     2.564     2.504
    74   1 H        0.924     0.039     2.465     2.455
    75   1 H        0.924     0.027     2.631     2.536
    76   1 H        0.925     0.044     2.400     2.423
    77   1 H        0.924     0.039     2.465     2.455
    78   1 H        0.924     0.027     2.634     2.538
    79   1 H        0.924     0.034     2.530     2.488
    80   1 H        0.924     0.040     2.455     2.450
    81   1 H        0.924     0.026     2.637     2.539
    82   1 H        0.924     0.028     2.620     2.531
    83   1 H        0.925     0.034     2.527     2.486
    84   1 H        0.925     0.033     2.544     2.494
    85   1 H        0.925     0.032     2.555     2.499
    86   1 H        0.926     0.035     2.515     2.480
    87   1 H        0.926     0.035     2.512     2.479
    88   1 H        0.926     0.035     2.515     2.480
    89   1 H        0.926     0.036     2.503     2.474
    90   1 H        0.924     0.040     2.443     2.445
    91   1 H        0.924     0.042     2.421     2.433
    92   1 H        0.924     0.029     2.597     2.520
    93   1 H        0.924     0.024     2.672     2.556
    94   1 H        0.925     0.034     2.523     2.484
    95   1 H        0.925     0.037     2.495     2.470
    96   1 H        0.925     0.034     2.530     2.488
    97   1 H        0.924     0.044     2.401     2.423
    98   1 H        0.924     0.033     2.549     2.497
    99   1 H        0.924     0.035     2.514     2.479
   100   1 H        0.924     0.031     2.569     2.506
   101   1 H        0.925     0.036     2.507     2.476
   102   1 H        0.925     0.036     2.497     2.471
   103   1 H        0.925     0.034     2.533     2.489
   104   1 H        0.926     0.042     2.425     2.435
   105   1 H        0.926     0.037     2.484     2.465
   106   1 H        0.926     0.044     2.402     2.423
   107   1 H        0.926     0.031     2.574     2.509
   108   1 H        0.926     0.030     2.581     2.512
   109   1 H        0.926     0.031     2.579     2.511
   110   1 H        0.926     0.031     2.570     2.507
   111   1 H        0.926     0.035     2.514     2.480
   112   1 H        0.926     0.035     2.516     2.480
   113   1 H        0.926     0.039     2.466     2.456
   114   1 H        0.924     0.031     2.577     2.510
   115   1 H        0.924     0.045     2.378     2.411
   116   1 H        0.924     0.038     2.479     2.462
   117   1 H        0.924     0.030     2.588     2.516
   118   1 H        0.925     0.035     2.523     2.484
   119   1 H        0.925     0.033     2.545     2.495
   120   1 H        0.925     0.035     2.516     2.480
   121   1 H        0.924     0.030     2.587     2.515
   122   1 H        0.924     0.040     2.443     2.444
   123   1 H        0.924     0.035     2.511     2.478
   124   1 H        0.924     0.039     2.468     2.457
   125   1 H        0.925     0.032     2.552     2.498
   126   1 H        0.925     0.033     2.541     2.493
   127   1 H        0.925     0.035     2.512     2.478
   128   1 H        0.926     0.041     2.433     2.439
   129   1 H        0.926     0.038     2.477     2.461
   130   1 H        0.926     0.044     2.396     2.420
   131   1 H        0.926     0.034     2.523     2.484

molecular dipole:
                 x           y           z       tot (Debye)
 q only:        0.045       0.068      -0.154
   full:        0.023       0.298      -0.089       0.792

 projected vibrational frequencies (cm⁻¹)
eigval :       -0.00    -0.00    -0.00    -0.00     0.00     0.00
eigval :        6.19     6.68     8.16    11.67    13.97    15.02
eigval :       23.49    26.15    33.31    35.76    37.40    40.60
eigval :       46.09    47.13    51.40    52.70    54.59    57.02
eigval :       60.21    63.84    65.78    66.75    71.23    73.99
eigval :       79.16    81.06    82.44    83.67    89.24    91.84
eigval :       97.57   108.35   111.47   113.02   124.36   124.95
eigval :      128.62   151.70   156.89   163.19   168.22   171.87
eigval :      182.03   185.94   190.23   194.65   200.81   211.49
eigval :      216.93   224.84   226.34   230.38   236.43   237.82
eigval :      238.30   241.03   244.89   254.10   259.25   267.25
eigval :      270.40   276.32   279.44   281.65   285.71   292.26
eigval :      302.14   304.73   306.73   310.62   317.38   323.97
eigval :      333.27   335.30   357.76   361.12   365.30   368.13
eigval :      395.10   406.26   409.52   415.38   422.70   429.28
eigval :      430.60   434.38   438.13   440.96   442.14   471.42
eigval :      473.69   475.27   476.77   478.72   491.31   496.03
eigval :      507.89   513.25   515.95   548.39   555.69   565.25
eigval :      568.49   584.63   587.10   593.39   596.19   599.25
eigval :      600.58   603.83   614.79   618.08   623.08   633.16
eigval :      647.55   658.89   680.69   693.23   694.62   697.96
eigval :      703.99   724.56   726.88   728.40   733.47   740.24
eigval :      743.66   745.50   754.06   778.61   782.66   783.52
eigval :      786.02   787.67   798.18   812.02   819.64   821.43
eigval :      823.58   826.23   832.26   833.80   836.67   852.74
eigval :      874.27   877.35   880.39   887.29   888.68   890.19
eigval :      891.14   893.19   896.46   898.03   901.57   909.49
eigval :      909.77   911.92   912.00   912.79   915.45   918.53
eigval :      928.93   934.45   939.85   942.83   946.04   948.76
eigval :      955.42   961.03   969.92   982.60   995.63   996.32
eigval :      996.81   999.22  1004.93  1014.49  1020.21  1029.76
eigval :     1066.59  1069.64  1073.17  1086.23  1086.48  1088.87
eigval :     1089.14  1089.85  1094.01  1105.09  1105.91  1109.68
eigval :     1113.05  1117.19  1121.27  1125.33  1126.60  1127.50
eigval :     1134.09  1140.52  1142.51  1145.28  1150.11  1151.12
eigval :     1152.72  1153.99  1156.42  1157.95  1168.22  1170.25
eigval :     1174.92  1184.81  1187.09  1194.63  1206.83  1211.61
eigval :     1214.90  1219.86  1221.41  1224.52  1230.19  1232.24
eigval :     1237.95  1242.20  1245.61  1248.60  1249.91  1255.78
eigval :     1262.10  1263.45  1265.40  1276.04  1278.13  1282.50
eigval :     1284.88  1285.54  1288.02  1288.43  1288.63  1291.39
eigval :     1294.48  1299.66  1302.66  1302.74  1307.44  1308.56
eigval :     1314.09  1321.95  1323.86  1324.69  1330.93  1331.46
eigval :     1348.47  1352.94  1355.21  1361.18  1363.66  1365.39
eigval :     1366.05  1366.37  1367.47  1371.80  1377.69  1411.58
eigval :     1412.43  1413.37  1414.35  1414.70  1416.43  1417.96
eigval :     1418.66  1420.81  1423.99  1433.93  1435.83  1437.14
eigval :     1438.49  1449.23  1455.12  1477.05  1478.71  1481.10
eigval :     1482.29  1482.70  1484.10  1486.52  1488.79  1490.98
eigval :     1492.06  1492.50  1495.07  1496.95  1497.43  1498.79
eigval :     1499.40  1500.34  1500.81  1501.69  1502.94  1503.23
eigval :     1503.35  1503.46  1503.54  1503.72  1504.28  1504.53
eigval :     1507.87  1556.78  1557.94  1560.05  1570.16  1572.41
eigval :     1574.72  1578.96  1580.56  1584.75  1594.29  1597.66
eigval :     1600.61  2306.94  2307.79  2354.33  2354.71  2948.67
eigval :     2949.57  2949.66  2952.23  2952.39  2956.23  2957.65
eigval :     2961.07  2972.08  2972.47  2972.75  2974.82  2980.16
eigval :     2980.26  2980.37  2982.55  2983.19  2987.36  2987.64
eigval :     2990.24  2990.31  2990.99  2992.90  2994.58  2995.88
eigval :     2999.33  2999.86  3001.51  3022.41  3022.57  3022.82
eigval :     3023.66  3023.75  3024.43  3024.89  3026.50  3026.79
eigval :     3026.86  3027.27  3027.31  3032.24  3034.08  3034.32
eigval :     3034.60  3035.11  3038.78  3072.14  3073.54  3076.61
eigval :     3077.39  3079.64  3081.15  3083.38  3083.66  3085.18
eigval :     3087.84  3088.99  3090.31  3091.12  3092.73  3093.38
eigval :     3094.32  3094.54  3095.34

   temp. (K)  partition function   enthalpy   heat capacity  entropy
                                   cal/mol     cal/K/mol   cal/K/mol   J/K/mol
 298.15  VIB  0.358E+35            40111.756    230.892    261.020
         ROT  0.450E+09              888.752      2.981     42.577
         INT  0.161E+44            41000.509    233.873    303.597
         TR   0.250E+29             1481.254      4.968     46.156
         TOT                       42481.7625   238.8411   349.7534  1463.3681

       T/K    H(0)-H(T)+PV         H(T)/Eh          T*S/Eh         G(T)/Eh
   ------------------------------------------------------------------------
    298.15    0.676990E-01    0.115189E+01    0.166179E+00    0.985711E+00
   ------------------------------------------------------------------------

         :::::::::::::::::::::::::::::::::::::::::::::::::::::
         ::                  THERMODYNAMIC                  ::
         :::::::::::::::::::::::::::::::::::::::::::::::::::::
         :: total free energy        -176.704383170526 Eh   ::
         ::.................................................::
         :: total energy             -177.690094660186 Eh   ::
         :: zero point energy           1.084191602125 Eh   ::
         :: G(RRHO) w/o ZPVE           -0.098480112465 Eh   ::
         :: G(RRHO) contrib.            0.985711489660 Eh   ::
         :::::::::::::::::::::::::::::::::::::::::::::::::::::

           -------------------------------------------------
          | TOTAL ENERGY             -177.690094660186 Eh   |
          | TOTAL ENTHALPY           -176.538204060231 Eh   |
          | TOTAL FREE ENERGY        -176.704383170526 Eh   |
          | GRADIENT NORM               0.000029033901 Eh/α |
          | HOMO-LUMO GAP               2.077002733274 eV   |
           -------------------------------------------------

 * finished run on 2025/09/06 at 05:56:51.809
