   * xtb version 6.7.1 (edcfbbe) compiled by 'albert@albert-system' on 2024-07-22

   ID    Z sym.   atoms
    1    6 C      1-31, 33-61, 63-67
    2    7 N      32, 62
    3    1 H      68-131

          program call               : xtb data2507/toluene/C3FLA-2/C3FLA-2_toluene_S0_finalOpt.xtbopt.xyz --gfn 2 --uhf 2 --gbsa toluene --ohess vtight --parallel 40 --molden --ceasefiles --namespace data2507/toluene/C3FLA-2/C3FLA-2_toluene_T1_preOpt
      * Solvation model:               GBSA
        Solvent                        toluene
        Solvent mass                       9.2140E+01 g/mol
          :  Hamiltonian                  GFN2-xTB          :
 * total energy  :  -177.6268704 Eh     change       -0.3817746E-08 Eh
 * total energy  :  -177.6316348 Eh     change       -0.4764367E-02 Eh
 * total energy  :  -177.6329941 Eh     change       -0.1359259E-02 Eh
 * total energy  :  -177.6330759 Eh     change       -0.8188480E-04 Eh
 * total energy  :  -177.6330670 Eh     change        0.8994283E-05 Eh
 * total energy  :  -177.6331366 Eh     change       -0.6966924E-04 Eh
 * total energy  :  -177.6331256 Eh     change        0.1105202E-04 Eh
 * total energy  :  -177.6331673 Eh     change       -0.4173680E-04 Eh
 * total energy  :  -177.6331845 Eh     change       -0.1718385E-04 Eh
 * total energy  :  -177.6331972 Eh     change       -0.1268944E-04 Eh
 * total energy  :  -177.6334377 Eh     change       -0.6911030E-06 Eh
 * total energy  :  -177.6334384 Eh     change       -0.7297677E-06 Eh
 * total energy  :  -177.6334392 Eh     change       -0.7296258E-06 Eh
 * total energy  :  -177.6334399 Eh     change       -0.7311809E-06 Eh
 * total energy  :  -177.6334406 Eh     change       -0.7472552E-06 Eh
 * total energy  :  -177.6334414 Eh     change       -0.7619898E-06 Eh
 * total energy  :  -177.6334422 Eh     change       -0.8034257E-06 Eh
 * total energy  :  -177.6334430 Eh     change       -0.8078662E-06 Eh
 * total energy  :  -177.6334430 Eh     change       -0.2108720E-08 Eh
   *** GEOMETRY OPTIMIZATION CONVERGED AFTER 94 ITERATIONS ***

 final structure:
================
131
 xtb: 6.7.1 (edcfbbe)
C           -0.27728356699002        4.59927857439988       -0.14422682884486
C           -0.36278020369768        3.46363770556867        0.86891495716417
C           -0.23989411009210        2.09615070802920        0.19991882298200
C           -0.33142753682184        0.96011945840620        1.21677880454044
C           -0.20007577948381       -0.43611354069119        0.57850777131421
C           -0.31707205480569       -1.51241967169400        1.67546230879867
C           -0.19817162538459       -2.93423111508349        1.12925740671920
C           -0.25176107807247       -4.00000411499874        2.22531927573771
C           -1.61580381002680       -4.10530741666387        2.89945130619675
C            1.09164111546714       -0.56628500879369       -0.19480159135711
C            2.37091460531820       -0.44535455387019        0.25234231292025
C            3.44270692790831       -0.57022974103599       -0.67160100838747
C            4.74979265172405       -0.41414776867852       -0.25060258837730
C            5.90466013073080       -0.25858309274604        0.11962886736122
C            7.21789297555598       -0.06932195347423        0.52445855672106
C            7.52971443317095        0.05658301108139        1.89746282884765
C            8.82384098409417        0.24670016651550        2.31369242952713
C            9.83978190863625        0.32578787329656        1.35788087209894
C            9.53601536445885        0.20907851143720       -0.01950501573604
C            8.25152969691204        0.00675648638740       -0.43885150653454
C           10.79040344349396        0.34740111887125       -0.85082775331564
C           11.05997617807089       -0.91711725340243       -1.68814574851597
C           11.15273317333111       -2.19035401730807       -0.84912887983936
C           11.41117031477470       -3.41237670846224       -1.72308695145743
C           10.70967852210677        1.57001020679080       -1.78617565633046
C           10.44832174317633        2.88212451531069       -1.04855960854509
C           10.36550093860200        4.05625261110075       -2.01729203286979
C           11.84160075093016        0.54063564976144        0.21632293313821
C           13.19242808925568        0.71811505855167        0.06615545130608
C           13.98261532130993        0.88145193376403        1.21758976223581
C           15.36923275200267        1.06572429112151        1.08741171866186
N           16.50514102105964        1.21646061497595        0.97695663402431
C           13.40048490893661        0.86347679745303        2.49416724844917
C           12.04247531380787        0.68568261003012        2.64079529933703
C           11.25439987164289        0.52412669530791        1.50146024511015
C            3.16256126846279       -0.84013534246326       -2.03829976381594
C            1.87886398029955       -0.97950111987593       -2.48255668162889
C            0.81669604258887       -0.83837283404424       -1.56859756533602
C           -0.58236676038972       -0.89916486624475       -1.75493106221756
C           -1.35239181981848       -1.14522910430060       -2.90828066988956
C           -2.71452102090812       -1.11835348084114       -2.81770124129966
C           -3.36415356155441       -0.83671972438258       -1.58547522148267
C           -4.74275952522186       -0.76325406421865       -1.53035571574472
C           -5.96151527063444       -0.67096375189846       -1.49009310921922
C           -7.34162552201343       -0.54293446453997       -1.44581588128759
C           -8.11963775727308       -0.83637321330024       -2.58929344847954
C           -9.48522331325803       -0.70053337967919       -2.56865309886703
C          -10.10598287940900       -0.25678353283822       -1.39793826564802
C           -9.33494098546968        0.04264317948629       -0.24937811692279
C           -7.97645377396521       -0.10134493153105       -0.26056570125710
C          -10.22501866607655        0.52101576498184        0.87432353866279
C          -10.12734196328850       -0.39595250503329        2.10817126415451
C          -10.45285250930188       -1.85732263695638        1.80473340003405
C          -10.34390702425459       -2.72043107786126        3.05660109980106
C           -9.87706337761676        1.96559449243534        1.28484173144943
C           -9.94147385766267        2.95821182834105        0.12522225495913
C           -9.57817031783317        4.36712721101794        0.58007537210443
C          -11.59049529875273        0.44591346091158        0.23286493057060
C          -12.81048986150450        0.75819940828728        0.77427806622942
C          -13.95889791304064        0.61280377793388       -0.02384886871914
C          -15.21934141067212        0.92798428580378        0.51022416902886
N          -16.25051495489731        1.18711106144203        0.95165909744043
C          -13.85858361030318        0.15715788784162       -1.34726863011929
C          -12.63096975594259       -0.15584137516999       -1.88766688112186
C          -11.48871959749401       -0.01278102067603       -1.10002260338670
C           -2.58606920213379       -0.61062706917336       -0.41828533075977
C           -1.22908474441624       -0.64751488639301       -0.50786677864903
H           -1.07694479146297        4.51706303036206       -0.87783972848475
H            0.67434413878079        4.56945761717352       -0.67133120908473
H           -0.36470222828027        5.56349155751781        0.35208150220707
H            0.43442109231516        3.57741079802503        1.60768831214561
H           -1.31666709271721        3.52287304875565        1.39880151686723
H            0.71554496897076        2.03906595312998       -0.32729443568449
H           -1.03392892020092        1.98677684182621       -0.54292359100722
H            0.45834088392898        1.08033437122750        1.96145968604882
H           -1.29024110988939        1.01991822364213        1.73614301846176
H            0.46886855957621       -1.34565006375514        2.41524267094806
H           -1.27982069092326       -1.38971407306975        2.17251720162212
H           -1.00114722933489       -3.11834338559440        0.41135133760143
H            0.75075346785027       -3.03080871138899        0.59528426100274
H            0.51020646086411       -3.78350035213941        2.97814799959046
H           -0.00606523258496       -4.96664377908064        1.77801055327182
H           -1.85251060698069       -3.19946957976055        3.45173526236283
H           -1.62598083645529       -4.93808581038245        3.59970138492206
H           -2.39479091621133       -4.27198087966381        2.15789628654221
H            2.59747077227594       -0.24151548055812        1.28856266809903
H            6.72563621615378       -0.00457853645594        2.61652739758351
H            9.05413087345353        0.33622920944016        3.36498918521469
H            8.00226033461452       -0.08746500511872       -1.48552433026823
H           11.99433123659876       -0.78123568241098       -2.23726617298700
H           10.25711834507420       -1.02872788527245       -2.41997734264502
H           10.22160834518635       -2.33087515060682       -0.29515719724931
H           11.96008649329509       -2.08920850693183       -0.11965082557619
H           10.60768607043589       -3.54256192171540       -2.44532218418282
H           11.47334440856834       -4.31098383891585       -1.11335471312002
H           12.34720340427222       -3.30236290740569       -2.26720306494435
H           11.64860455925773        1.65092315449512       -2.33833123931466
H            9.91023787381988        1.40221592392771       -2.51099937179887
H           11.25038870740956        3.06273568756635       -0.32861988582112
H            9.51263103749429        2.80704265434180       -0.48953214954780
H            9.55700656859359        3.90759709024211       -2.73027428858671
H           10.18118076914045        4.98268466210351       -1.47792383722350
H           11.29644482381170        4.16185645371104       -2.57089295043384
H           13.66175225288027        0.73539920726817       -0.90690737435197
H           14.03544424429378        0.99120386533659        3.35943133868462
H           11.59808955598922        0.67243938697675        3.62451408640525
H            3.99511865430655       -0.93457381403183       -2.72054731831331
H            1.67475502181366       -1.18834191324139       -3.52216418258315
H           -0.86647795345840       -1.34948138471354       -3.85073074763012
H           -3.32866588756593       -1.30028141979765       -3.68792475072887
H           -7.61497951270521       -1.17205734658139       -3.48379962781122
H          -10.07228113790892       -0.92899923098988       -3.44582816323015
H           -7.37293971776218        0.12217938920629        0.60672300518689
H           -9.11459219285312       -0.33158439429197        2.51156709563462
H          -10.81433643283500       -0.02769950896744        2.87332819585632
H          -11.46593307689000       -1.92998992450007        1.40162206011959
H           -9.76622263085413       -2.23416583327047        1.04300415284632
H          -10.57965012363438       -3.75711924262985        2.82671843402264
H           -9.33521837530957       -2.67966413203297        3.46272154809796
H          -11.03594109595886       -2.37360686230093        3.82159499692703
H          -10.56944587510557        2.28369813672391        2.06741487075760
H           -8.86999400620923        1.97472105336259        1.70708650223026
H          -10.94929524988121        2.96244883896099       -0.29707436548499
H           -9.25413161673186        2.64389204830409       -0.66375184742624
H          -10.26153737726056        4.70697134312525        1.35587463119972
H           -8.56625186512813        4.39112362704174        0.97945620865602
H           -9.63418563558670        5.06323377026541       -0.25390125855730
H          -12.91142193324878        1.11111739296574        1.79047178238981
H          -14.76040981039933        0.05653520674604       -1.93445864462663
H          -12.55738969322131       -0.50592988346140       -2.90620168807841
H           -3.09216776782560       -0.41093858418274        0.51469838076700

          :  Hamiltonian                  GFN2-xTB          :
         :: gradient norm              0.000086011727 Eh/a0 ::
         :: HOMO-LUMO gap              0.296704356896 eV    ::
         :: SCC energy              -180.925277469132 Eh    ::
         :: -> dispersion             -0.160527359919 Eh    ::
         :: -> Gsolv                  -0.083305903022 Eh    ::
         :: repulsion energy           3.291834449921 Eh    ::

    * Orbital Energies and Occupations

         #    Occupation            Energy/Eh            Energy/eV
      -------------------------------------------------------------
         1        2.0000           -0.6653927             -18.1063
       ...           ...                  ...                  ...
       156        2.0000           -0.4145714             -11.2811
       157        2.0000           -0.4140395             -11.2666
       158        2.0000           -0.4120869             -11.2135
       159        2.0000           -0.4071021             -11.0778
       160        2.0000           -0.4045838             -11.0093
       161        2.0000           -0.4045138             -11.0074
       162        2.0000           -0.4040604             -10.9950
       163        2.0000           -0.4031881             -10.9713
       164        2.0000           -0.4012684             -10.9191
       165        2.0000           -0.3921407             -10.6707
       166        1.9996           -0.3766599             -10.2494
       167        1.0004           -0.3618709              -9.8470
       168        0.9968           -0.2945547              -8.0152 (HOMO)
       169        0.0032           -0.2836509              -7.7185 (LUMO)
       170                         -0.2695284              -7.3342
       171                         -0.2488420              -6.7713
       172                         -0.2335122              -6.3542
       173                         -0.2331145              -6.3434
       174                         -0.2285928              -6.2203
       175                         -0.2276276              -6.1941
       176                         -0.2249734              -6.1218
       177                         -0.2242121              -6.1011
       178                         -0.2229438              -6.0666
       179                         -0.2057761              -5.5995
       ...                                ...                  ...
       332                          1.3935294              37.9199
      -------------------------------------------------------------
                  HL-Gap            0.0109037 Eh            0.2967 eV

     #   Z          covCN         q      C6AA      α(0)
     1   6 C        3.752    -0.102    22.505     6.765
     2   6 C        3.801    -0.053    21.527     6.606
     3   6 C        3.802    -0.054    21.548     6.609
     4   6 C        3.808    -0.056    21.583     6.613
     5   6 C        3.933     0.010    20.340     6.409
     6   6 C        3.807    -0.057    21.585     6.614
     7   6 C        3.801    -0.053    21.535     6.607
     8   6 C        3.800    -0.053    21.524     6.605
     9   6 C        3.751    -0.102    22.508     6.766
    10   6 C        3.048     0.008    27.798     8.647
    11   6 C        2.917    -0.034    28.845     8.807
    12   6 C        2.969     0.036    27.199     8.555
    13   6 C        1.984    -0.036    32.021     9.138
    14   6 C        1.985    -0.034    31.950     9.128
    15   6 C        2.970     0.033    27.268     8.565
    16   6 C        2.926    -0.031    28.767     8.796
    17   6 C        2.909    -0.033    28.814     8.802
    18   6 C        3.036     0.001    27.964     8.674
    19   6 C        3.049     0.005    27.865     8.658
    20   6 C        2.920    -0.033    28.830     8.805
    21   6 C        3.935     0.010    20.339     6.409
    22   6 C        3.808    -0.056    21.581     6.613
    23   6 C        3.800    -0.048    21.441     6.593
    24   6 C        3.752    -0.102    22.517     6.767
    25   6 C        3.809    -0.056    21.579     6.612
    26   6 C        3.800    -0.048    21.441     6.593
    27   6 C        3.752    -0.103    22.518     6.767
    28   6 C        3.053     0.006    27.835     8.652
    29   6 C        2.920    -0.027    28.674     8.781
    30   6 C        2.974     0.003    27.947     8.672
    31   6 C        1.913     0.114    28.292     8.590
    32   7 N        0.911    -0.300    27.728     7.616
    33   6 C        2.926    -0.025    28.637     8.776
    34   6 C        2.911    -0.034    28.840     8.806
    35   6 C        3.034     0.005    27.873     8.660
    36   6 C        2.923    -0.029    28.729     8.790
    37   6 C        2.907    -0.032    28.796     8.799
    38   6 C        3.034     0.005    27.874     8.660
    39   6 C        3.034     0.005    27.870     8.659
    40   6 C        2.907    -0.032    28.793     8.799
    41   6 C        2.923    -0.029    28.729     8.790
    42   6 C        2.969     0.036    27.198     8.554
    43   6 C        1.984    -0.036    32.019     9.138
    44   6 C        1.985    -0.034    31.949     9.128
    45   6 C        2.970     0.033    27.269     8.566
    46   6 C        2.926    -0.031    28.768     8.796
    47   6 C        2.909    -0.033    28.814     8.802
    48   6 C        3.036     0.001    27.963     8.674
    49   6 C        3.049     0.005    27.865     8.657
    50   6 C        2.920    -0.033    28.830     8.805
    51   6 C        3.935     0.010    20.338     6.409
    52   6 C        3.808    -0.056    21.582     6.613
    53   6 C        3.800    -0.048    21.441     6.593
    54   6 C        3.752    -0.103    22.518     6.767
    55   6 C        3.809    -0.056    21.580     6.613
    56   6 C        3.800    -0.048    21.441     6.593
    57   6 C        3.752    -0.103    22.518     6.767
    58   6 C        3.053     0.006    27.835     8.653
    59   6 C        2.920    -0.027    28.675     8.781
    60   6 C        2.974     0.003    27.949     8.672
    61   6 C        1.913     0.114    28.294     8.590
    62   7 N        0.911    -0.300    27.735     7.617
    63   6 C        2.926    -0.025    28.637     8.776
    64   6 C        2.911    -0.034    28.841     8.806
    65   6 C        3.034     0.005    27.876     8.660
    66   6 C        2.917    -0.034    28.841     8.807
    67   6 C        3.048     0.008    27.788     8.646
    68   1 H        0.925     0.033     2.541     2.493
    69   1 H        0.925     0.033     2.544     2.494
    70   1 H        0.925     0.034     2.533     2.489
    71   1 H        0.924     0.030     2.585     2.514
    72   1 H        0.924     0.030     2.580     2.512
    73   1 H        0.924     0.029     2.606     2.525
    74   1 H        0.924     0.029     2.600     2.522
    75   1 H        0.924     0.038     2.474     2.460
    76   1 H        0.924     0.038     2.470     2.458
    77   1 H        0.924     0.038     2.471     2.458
    78   1 H        0.924     0.043     2.413     2.429
    79   1 H        0.924     0.030     2.589     2.516
    80   1 H        0.924     0.026     2.638     2.540
    81   1 H        0.924     0.031     2.576     2.510
    82   1 H        0.924     0.029     2.608     2.525
    83   1 H        0.925     0.036     2.505     2.475
    84   1 H        0.925     0.032     2.560     2.502
    85   1 H        0.925     0.034     2.529     2.487
    86   1 H        0.926     0.036     2.503     2.474
    87   1 H        0.926     0.036     2.503     2.474
    88   1 H        0.926     0.034     2.527     2.486
    89   1 H        0.926     0.036     2.497     2.471
    90   1 H        0.924     0.037     2.484     2.465
    91   1 H        0.924     0.042     2.429     2.437
    92   1 H        0.924     0.030     2.593     2.518
    93   1 H        0.924     0.025     2.662     2.551
    94   1 H        0.925     0.037     2.489     2.467
    95   1 H        0.925     0.035     2.521     2.483
    96   1 H        0.925     0.035     2.521     2.483
    97   1 H        0.924     0.038     2.482     2.464
    98   1 H        0.924     0.042     2.427     2.436
    99   1 H        0.924     0.025     2.661     2.551
   100   1 H        0.924     0.029     2.595     2.519
   101   1 H        0.925     0.037     2.489     2.467
   102   1 H        0.925     0.035     2.520     2.483
   103   1 H        0.925     0.035     2.520     2.483
   104   1 H        0.926     0.034     2.536     2.490
   105   1 H        0.926     0.032     2.553     2.499
   106   1 H        0.926     0.039     2.456     2.451
   107   1 H        0.926     0.036     2.506     2.475
   108   1 H        0.926     0.036     2.503     2.474
   109   1 H        0.926     0.036     2.504     2.475
   110   1 H        0.926     0.035     2.512     2.479
   111   1 H        0.926     0.035     2.513     2.479
   112   1 H        0.926     0.034     2.532     2.488
   113   1 H        0.926     0.037     2.486     2.466
   114   1 H        0.924     0.042     2.424     2.435
   115   1 H        0.924     0.038     2.482     2.464
   116   1 H        0.924     0.025     2.664     2.553
   117   1 H        0.924     0.030     2.594     2.518
   118   1 H        0.925     0.035     2.522     2.484
   119   1 H        0.925     0.037     2.485     2.465
   120   1 H        0.925     0.035     2.522     2.483
   121   1 H        0.924     0.038     2.481     2.463
   122   1 H        0.924     0.042     2.422     2.434
   123   1 H        0.924     0.025     2.665     2.553
   124   1 H        0.924     0.029     2.596     2.520
   125   1 H        0.925     0.035     2.520     2.483
   126   1 H        0.925     0.037     2.486     2.466
   127   1 H        0.925     0.035     2.522     2.484
   128   1 H        0.926     0.034     2.535     2.490
   129   1 H        0.926     0.032     2.556     2.500
   130   1 H        0.926     0.039     2.460     2.453
   131   1 H        0.926     0.037     2.490     2.467

molecular dipole:
                 x           y           z       tot (Debye)
 q only:       -0.027      -0.838      -0.663
   full:       -0.072      -0.968      -0.831       3.249

 projected vibrational frequencies (cm⁻¹)
eigval :       -0.00    -0.00    -0.00     0.00     0.00     0.00
eigval :        3.88     6.35     7.44    10.43    13.07    13.83
eigval :       20.36    22.11    27.31    37.92    38.73    41.25
eigval :       42.54    47.89    50.66    51.63    54.24    57.31
eigval :       58.90    59.38    63.65    69.41    70.54    76.42
eigval :       79.99    81.28    85.00    85.74    89.25    92.59
eigval :       99.24   100.89   109.60   111.07   114.41   118.06
eigval :      124.94   141.28   142.55   152.64   154.74   168.14
eigval :      173.06   188.31   189.97   202.29   205.30   209.37
eigval :      215.95   219.25   222.39   226.27   228.22   232.56
eigval :      236.53   237.51   241.87   245.92   249.78   254.01
eigval :      255.31   263.82   264.65   267.21   283.91   285.45
eigval :      301.51   303.30   303.91   304.09   315.47   330.66
eigval :      335.66   337.60   339.79   357.78   365.78   379.27
eigval :      379.64   401.78   405.82   413.17   424.57   426.24
eigval :      430.75   434.94   435.16   438.49   442.56   445.72
eigval :      456.18   456.74   472.27   487.63   489.28   508.41
eigval :      509.13   511.16   511.83   547.12   551.80   560.65
eigval :      565.84   567.01   569.95   571.08   571.45   581.95
eigval :      582.91   583.91   586.23   607.63   622.09   625.97
eigval :      632.71   634.20   663.98   683.65   707.49   709.03
eigval :      711.98   712.81   715.62   715.89   717.88   724.40
eigval :      726.09   732.51   735.59   772.15   778.74   781.90
eigval :      785.16   790.48   795.10   805.96   806.90   813.00
eigval :      816.19   818.26   819.24   824.72   826.19   850.92
eigval :      860.45   861.80   862.68   863.82   864.52   873.60
eigval :      875.04   886.06   888.95   892.37   894.41   901.28
eigval :      903.61   903.78   905.15   907.32   908.03   924.23
eigval :      926.14   928.98   929.16   929.60   940.47   943.23
eigval :      950.80   959.47   959.96   968.86   970.73   978.69
eigval :      989.81   996.57  1006.70  1012.64  1017.15  1025.68
eigval :     1025.90  1066.18  1077.61  1077.97  1085.68  1086.68
eigval :     1088.24  1089.97  1092.27  1093.99  1094.32  1096.29
eigval :     1103.42  1108.08  1111.36  1112.07  1116.45  1127.74
eigval :     1131.91  1135.61  1136.18  1137.08  1137.78  1140.68
eigval :     1141.20  1142.59  1146.68  1153.16  1156.01  1156.56
eigval :     1183.35  1183.71  1186.89  1201.74  1203.17  1209.25
eigval :     1213.57  1217.85  1218.59  1219.24  1225.07  1229.47
eigval :     1231.53  1232.58  1236.52  1239.58  1247.50  1250.15
eigval :     1257.07  1263.22  1265.55  1267.59  1269.47  1276.18
eigval :     1277.49  1278.28  1278.78  1283.91  1284.47  1285.37
eigval :     1292.12  1297.20  1297.86  1298.78  1302.39  1305.83
eigval :     1311.39  1311.88  1325.48  1326.53  1331.59  1332.15
eigval :     1338.12  1339.27  1341.16  1350.25  1353.17  1354.68
eigval :     1355.44  1364.44  1369.67  1370.70  1374.87  1392.69
eigval :     1398.76  1406.37  1412.73  1412.93  1413.24  1413.35
eigval :     1413.91  1413.95  1423.58  1439.70  1439.85  1442.33
eigval :     1447.62  1451.58  1464.08  1472.73  1473.50  1475.34
eigval :     1475.62  1476.08  1482.40  1483.24  1484.93  1489.23
eigval :     1490.23  1492.97  1494.19  1495.68  1495.95  1496.21
eigval :     1497.14  1497.41  1498.59  1500.49  1501.13  1501.18
eigval :     1501.23  1501.77  1502.34  1502.89  1503.36  1503.60
eigval :     1503.76  1503.80  1507.45  1509.51  1516.81  1518.71
eigval :     1542.42  1550.97  1565.24  1575.45  1589.25  1593.46
eigval :     1594.31  2096.97  2210.37  2316.71  2325.57  2954.54
eigval :     2957.06  2958.34  2958.93  2959.09  2959.89  2960.12
eigval :     2961.83  2969.29  2969.29  2969.86  2970.93  2971.07
eigval :     2971.26  2972.89  2975.32  2975.40  2975.66  2976.64
eigval :     2977.41  2978.65  2978.84  2980.73  2980.97  2981.98
eigval :     2983.12  2983.36  2993.68  3023.19  3024.24  3024.29
eigval :     3024.43  3024.44  3024.64  3025.86  3027.33  3027.53
eigval :     3027.96  3028.04  3028.41  3032.75  3034.84  3035.09
eigval :     3035.28  3036.18  3041.27  3074.37  3074.58  3075.21
eigval :     3075.56  3075.69  3076.57  3079.15  3079.71  3081.85
eigval :     3082.65  3082.82  3083.44  3086.20  3086.44  3086.80
eigval :     3088.33  3089.89  3090.59

   temp. (K)  partition function   enthalpy   heat capacity  entropy
                                   cal/mol     cal/K/mol   cal/K/mol   J/K/mol
 298.15  VIB  0.321E+36            40585.283    232.875    265.287
         ROT  0.402E+09              888.752      2.981     42.353
         INT  0.129E+45            41474.035    235.856    307.640
         TR   0.250E+29             1481.254      4.968     46.156
         TOT                       42955.2889   240.8237   353.7968  1480.2859

       T/K    H(0)-H(T)+PV         H(T)/Eh          T*S/Eh         G(T)/Eh
   ------------------------------------------------------------------------
    298.15    0.684536E-01    0.114671E+01    0.168100E+00    0.978606E+00
   ------------------------------------------------------------------------

         :::::::::::::::::::::::::::::::::::::::::::::::::::::
         ::                  THERMODYNAMIC                  ::
         :::::::::::::::::::::::::::::::::::::::::::::::::::::
         :: total free energy        -176.654836692999 Eh   ::
         ::.................................................::
         :: total energy             -177.633443021734 Eh   ::
         :: zero point energy           1.078253006578 Eh   ::
         :: G(RRHO) w/o ZPVE           -0.099646677843 Eh   ::
         :: G(RRHO) contrib.            0.978606328735 Eh   ::
         :::::::::::::::::::::::::::::::::::::::::::::::::::::

           -------------------------------------------------
          | TOTAL ENERGY             -177.633443021734 Eh   |
          | TOTAL ENTHALPY           -176.486736404963 Eh   |
          | TOTAL FREE ENERGY        -176.654836692999 Eh   |
          | GRADIENT NORM               0.000086193143 Eh/α |
          | HOMO-LUMO GAP               0.296705761774 eV   |
           -------------------------------------------------

 * finished run on 2025/09/06 at 13:28:16.133
