   * xtb version 6.7.1 (edcfbbe) compiled by 'albert@albert-system' on 2024-07-22

   ID    Z sym.   atoms
    1    6 C      1-31, 33-61, 63-67
    2    7 N      32, 62
    3    1 H      68-131

          program call               : xtb data2507/toluene/C3FLA-2/C3FLA-2_toluene_S0_crest.xyz --gfn 2 --gbsa toluene --ohess vtight --parallel 40 --molden --ceasefiles --namespace data2507/toluene/C3FLA-2/C3FLA-2_toluene_S0_finalOpt
      * Solvation model:               GBSA
        Solvent                        toluene
        Solvent mass                       9.2140E+01 g/mol
          :  Hamiltonian                  GFN2-xTB          :
 * total energy  :  -177.7058525 Eh     change       -0.1256808E-08 Eh
 * total energy  :  -177.7059220 Eh     change       -0.6945935E-04 Eh
 * total energy  :  -177.7059042 Eh     change        0.1781353E-04 Eh
 * total energy  :  -177.7059337 Eh     change       -0.2953751E-04 Eh
 * total energy  :  -177.7059577 Eh     change       -0.2403147E-04 Eh
 * total energy  :  -177.7059461 Eh     change        0.1160880E-04 Eh
 * total energy  :  -177.7059651 Eh     change       -0.1894777E-04 Eh
 * total energy  :  -177.7059748 Eh     change       -0.9712213E-05 Eh
 * total energy  :  -177.7059806 Eh     change       -0.5786939E-05 Eh
 * total energy  :  -177.7059880 Eh     change       -0.7396070E-05 Eh
 * total energy  :  -177.7063119 Eh     change       -0.2109918E-06 Eh
 * total energy  :  -177.7063121 Eh     change       -0.2311612E-06 Eh
 * total energy  :  -177.7063123 Eh     change       -0.2509647E-06 Eh
 * total energy  :  -177.7063126 Eh     change       -0.2027437E-06 Eh
 * total energy  :  -177.7063127 Eh     change       -0.1249109E-06 Eh
 * total energy  :  -177.7063128 Eh     change       -0.1352249E-06 Eh
 * total energy  :  -177.7063130 Eh     change       -0.1421538E-06 Eh
 * total energy  :  -177.7063131 Eh     change       -0.1275471E-06 Eh
 * total energy  :  -177.7063132 Eh     change       -0.8564678E-07 Eh
   *** GEOMETRY OPTIMIZATION CONVERGED AFTER 182 ITERATIONS ***

 final structure:
================
131
 xtb: 6.7.1 (edcfbbe)
C           -0.13562820737042        4.64202172840877       -0.67814149387477
C           -0.26918616093241        3.60340622429233        0.42955005829690
C           -0.16260272600963        2.17954343367931       -0.11275012058465
C           -0.29383697475194        1.13974198725881        0.99828580348994
C           -0.19829172864582       -0.31075655973960        0.48739592319317
C           -0.34223551324914       -1.27971261528951        1.67668011247080
C           -0.28633323745562       -2.74846970136247        1.26000624836736
C           -0.34752877808987       -3.70795747573459        2.44980469716203
C           -1.69141415332315       -3.69129541764746        3.17092623854347
C            1.08842486146255       -0.54335072373909       -0.26939350609005
C            2.38169039166768       -0.42569863404645        0.17972117070141
C            3.43377389731845       -0.67420401960595       -0.71266447046969
C            4.76824609233350       -0.53437461982412       -0.28021882299018
C            5.91050292602090       -0.39595621691023        0.09159846575457
C            7.24526264896495       -0.22312750098263        0.51036524117298
C            7.55522296808076       -0.20624226086651        1.87548678361267
C            8.85665046304523       -0.02977866687171        2.30247032079609
C            9.85585580755388        0.13526060553260        1.35323815783235
C            9.55069954282594        0.12105288463257       -0.01892224118166
C            8.25692811028791       -0.05954799584554       -0.44586270529089
C           10.79656635051749        0.32877538836818       -0.84746275280659
C           11.07043471743767       -0.87270427410273       -1.77204124757446
C           11.18162255722366       -2.20057103679037       -1.02495627588491
C           11.44635247411851       -3.35517013650374       -1.98453954689826
C           10.69941071662772        1.61177951664952       -1.69598156929352
C           10.42956241052520        2.86782499945796       -0.86920062261916
C           10.32958238788595        4.10376353640778       -1.75605242963011
C           11.85370558411832        0.45632937235870        0.22329235038117
C           13.20476998919876        0.65933661562394        0.07597154121617
C           13.99675682650103        0.75000592971394        1.22901260897827
C           15.38463492043124        0.96108059852567        1.10199564258566
N           16.51538919246077        1.13489416733161        0.99465873490578
C           13.42896364316720        0.63777425030001        2.50236734389289
C           12.06997000254979        0.43230199174078        2.64401593168492
C           11.28269297172019        0.34194139043111        1.50420999841187
C            3.16373158287128       -1.04664392798495       -2.03431965360390
C            1.86266303162075       -1.17069702430233       -2.48173351863341
C            0.82301086870758       -0.91512094494728       -1.59903454075996
C           -0.61393142260997       -0.94822551664313       -1.78918973700930
C           -1.37583129915315       -1.25300100180731       -2.90823711983313
C           -2.75272413758281       -1.19394087107302       -2.81447669158167
C           -3.37352746654898       -0.83261952626441       -1.61336778945411
C           -4.77921357486709       -0.75989342225622       -1.54127951462079
C           -5.98461345433939       -0.68618214970134       -1.47955357534984
C           -7.38828915275166       -0.58553736947006       -1.40388150341042
C           -8.17836603508258       -0.98242816740128       -2.48954405181140
C           -9.55461159188171       -0.88116086943757       -2.43678003701713
C          -10.14480558659658       -0.37456783257805       -1.28699729207479
C           -9.35721752460405        0.02457458614292       -0.19319638614217
C           -7.98769144310549       -0.07919270635233       -0.24233608203654
C          -10.22365608869428        0.54281876698941        0.93053203791467
C          -10.06005238029506       -0.30438517093160        2.20725755568556
C          -10.35366527998587       -1.78847204195155        1.99445794561980
C          -10.17414680052011       -2.57855170101960        3.28591019647611
C           -9.90587442653917        2.01563313271872        1.25397159272559
C          -10.04095963522964        2.94617043130342        0.04985662673097
C           -9.69875280638087        4.38454237786198        0.42144320776735
C          -11.60571375660061        0.39193152245749        0.34104105425096
C          -12.81899930833842        0.70622835629055        0.90467651798413
C          -13.98257676020637        0.47668534498439        0.15750936928072
C          -15.23800698976036        0.79437140937691        0.71420159338180
N          -16.25985250127211        1.05458644314946        1.17078834107965
C          -13.91531810051206       -0.06161281440290       -1.13170400082481
C          -12.69249037060643       -0.37618887166582       -1.69283996587811
C          -11.53795181510334       -0.14824338214301       -0.95650217519149
C           -2.60150243736132       -0.53116442555252       -0.48255946065753
C           -1.23215547316941       -0.59110780843341       -0.57818666807215
H           -0.91834669899419        4.50840526992232       -1.42240761167733
H            0.82785499250884        4.54736758892795       -1.17521052956679
H           -0.21554725216915        5.64833057738286       -0.27235690782057
H            0.51373272603671        3.76618063021270        1.17450886698653
H           -1.23325086087604        3.72881592108654        0.92866169455906
H            0.79988053834110        2.05751796763269       -0.61542931826498
H           -0.94638036585831        2.01897256211509       -0.85710821932662
H            0.49329730791045        1.30333030708354        1.73780321456743
H           -1.25474870821204        1.27161941621396        1.50065617524290
H            0.45910999510235       -1.07890100406517        2.39132312058251
H           -1.29293423580223       -1.07545924253618        2.17047825017535
H           -1.11383573011764       -2.96692230550780        0.58059877114515
H            0.64376290129471       -2.92759582704356        0.71423991822637
H            0.44807802767295       -3.45910712786306        3.15649712176334
H           -0.15770025028066       -4.72052608845440        2.08471300835079
H           -1.86762674466048       -2.73238227298401        3.65155694959128
H           -1.71610800416761       -4.46209485641386        3.93861739531556
H           -2.50137782203568       -3.88073026939237        2.46907360468463
H            2.60432291517506       -0.13910535476201        1.19739007183542
H            6.75832761870193       -0.33461592961160        2.59381076159350
H            9.08851204933878       -0.01951977669764        3.35712771337352
H            8.00304134202988       -0.07298896489212       -1.49569425546610
H           11.99845061507956       -0.69019643072581       -2.31831146836390
H           10.26201577519496       -0.94078148509442       -2.50295744717218
H           10.25572136116164       -2.38974636650785       -0.47676049393541
H           11.99287244146105       -2.14317813721260       -0.29503351510418
H           10.63783396441694       -3.44461772675703       -2.70731118651792
H           11.52428353073224       -4.29324912169423       -1.43958160533362
H           12.37605777898231       -3.19633020971879       -2.52747926836314
H           11.63390628824100        1.73933588270025       -2.24675499089415
H            9.89714590172671        1.48598251083196       -2.42604491959869
H           11.23383309141650        3.00785509650654       -0.14278210770224
H            9.49770189166316        2.74516047804410       -0.31232126191195
H            9.51819009650986        3.99538481548504       -2.47295852626051
H           10.13930833878853        4.98980692018651       -1.15452185662274
H           11.25596042360220        4.25604052453118       -2.30646435018339
H           13.66502181048635        0.74989112359732       -0.89713302169196
H           14.06692926591695        0.71319528368190        3.37120564801376
H           11.63334349754395        0.34521142447073        3.62730065692648
H            3.99057953277619       -1.23648494618818       -2.70384811379054
H            1.66266752085007       -1.45870274007358       -3.50343380216870
H           -0.90429938226524       -1.53011748805717       -3.83972630215676
H           -3.36779789221820       -1.42427126218975       -3.67276544116187
H           -7.69389118386192       -1.37061803344112       -3.37397036229404
H          -10.15719925366757       -1.18910536850524       -3.27830480775859
H           -7.36680530690399        0.22291973081196        0.58821390171606
H           -9.03640062132864       -0.19165925757255        2.57028217277538
H          -10.73067701347297        0.08660573714788        2.97557511809368
H          -11.37811469214948       -1.91161439232036        1.63467349301428
H           -9.68383425132450       -2.18749493475252        1.22917117254363
H          -10.38647581723976       -3.63243531602781        3.12057966149804
H           -9.15317348505824       -2.48757654764364        3.65105617654004
H          -10.84840653249218       -2.21039254565043        4.05675173605760
H          -10.57853759967933        2.35398579550738        2.04517694356294
H           -8.88517546248085        2.07473082627671        1.63743924227461
H          -11.06355731961085        2.90453749901624       -0.33291851493880
H           -9.37527581253000        2.61042534330301       -0.74869989884084
H          -10.36152493684642        4.74564839540846        1.20544369494993
H           -8.67373695203165        4.45308939818765        0.78014274170426
H           -9.80368602294429        5.03667011374213       -0.44277850009172
H          -12.89568016963343        1.12208070899915        1.89871227377708
H          -14.83102466416477       -0.22717781439858       -1.68094250358936
H          -12.64194925814773       -0.79128522877642       -2.68794452204020
H           -3.09359790152420       -0.25680586146078        0.43930179159911

          :  Hamiltonian                  GFN2-xTB          :
         :: gradient norm              0.000037496317 Eh/a0 ::
         :: HOMO-LUMO gap              2.077630534524 eV    ::
         :: SCC energy              -181.017421718286 Eh    ::
         :: -> dispersion             -0.160569200813 Eh    ::
         :: -> Gsolv                  -0.081408720487 Eh    ::
         :: repulsion energy           3.311108551248 Eh    ::

    * Orbital Energies and Occupations

         #    Occupation            Energy/Eh            Energy/eV
      -------------------------------------------------------------
         1        2.0000           -0.6686933             -18.1961
       ...           ...                  ...                  ...
       155        2.0000           -0.4162098             -11.3256
       156        2.0000           -0.4155976             -11.3090
       157        2.0000           -0.4154160             -11.3040
       158        2.0000           -0.4080608             -11.1039
       159        2.0000           -0.4055630             -11.0359
       160        2.0000           -0.4043402             -11.0027
       161        2.0000           -0.4041089             -10.9964
       162        2.0000           -0.4022926             -10.9469
       163        2.0000           -0.3999876             -10.8842
       164        2.0000           -0.3977437             -10.8232
       165        2.0000           -0.3924158             -10.6782
       166        2.0000           -0.3782019             -10.2914
       167        2.0000           -0.3638387              -9.9006 (HOMO)
       168                         -0.2874872              -7.8229 (LUMO)
       169                         -0.2832046              -7.7064
       170                         -0.2652207              -7.2170
       171                         -0.2452431              -6.6734
       172                         -0.2379707              -6.4755
       173                         -0.2375273              -6.4634
       174                         -0.2278239              -6.1994
       175                         -0.2269334              -6.1752
       176                         -0.2260563              -6.1513
       177                         -0.2246473              -6.1130
       178                         -0.2210244              -6.0144
       ...                                ...                  ...
       332                          1.4260060              38.8036
      -------------------------------------------------------------
                  HL-Gap            0.0763515 Eh            2.0776 eV

     #   Z          covCN         q      C6AA      α(0)
     1   6 C        3.752    -0.102    22.501     6.765
     2   6 C        3.801    -0.053    21.522     6.605
     3   6 C        3.802    -0.054    21.539     6.608
     4   6 C        3.808    -0.055    21.549     6.608
     5   6 C        3.937     0.010    20.341     6.409
     6   6 C        3.808    -0.055    21.555     6.609
     7   6 C        3.801    -0.053    21.526     6.606
     8   6 C        3.800    -0.053    21.519     6.605
     9   6 C        3.751    -0.102    22.502     6.765
    10   6 C        3.052     0.003    27.908     8.664
    11   6 C        2.922    -0.034    28.846     8.808
    12   6 C        2.973     0.032    27.281     8.568
    13   6 C        1.983    -0.042    32.190     9.162
    14   6 C        1.983    -0.046    32.277     9.175
    15   6 C        2.973     0.037    27.175     8.551
    16   6 C        2.928    -0.033    28.824     8.805
    17   6 C        2.912    -0.032    28.794     8.799
    18   6 C        3.036    -0.001    28.019     8.682
    19   6 C        3.053     0.005    27.856     8.656
    20   6 C        2.923    -0.033    28.830     8.805
    21   6 C        3.936     0.011    20.328     6.407
    22   6 C        3.808    -0.056    21.578     6.612
    23   6 C        3.800    -0.048    21.444     6.593
    24   6 C        3.752    -0.103    22.520     6.767
    25   6 C        3.809    -0.056    21.578     6.612
    26   6 C        3.800    -0.048    21.444     6.593
    27   6 C        3.752    -0.103    22.521     6.767
    28   6 C        3.054     0.008    27.798     8.647
    29   6 C        2.922    -0.024    28.605     8.771
    30   6 C        2.975     0.009    27.820     8.652
    31   6 C        1.913     0.118    28.202     8.576
    32   7 N        0.911    -0.285    27.344     7.563
    33   6 C        2.928    -0.024    28.592     8.769
    34   6 C        2.913    -0.032    28.789     8.798
    35   6 C        3.036     0.010    27.750     8.640
    36   6 C        2.928    -0.034    28.844     8.808
    37   6 C        2.912    -0.035    28.865     8.810
    38   6 C        3.036    -0.000    27.999     8.679
    39   6 C        3.036    -0.000    27.996     8.679
    40   6 C        2.912    -0.035    28.861     8.809
    41   6 C        2.928    -0.034    28.843     8.807
    42   6 C        2.973     0.032    27.282     8.568
    43   6 C        1.983    -0.043    32.193     9.163
    44   6 C        1.983    -0.046    32.282     9.176
    45   6 C        2.973     0.037    27.176     8.551
    46   6 C        2.928    -0.033    28.825     8.805
    47   6 C        2.912    -0.032    28.794     8.799
    48   6 C        3.036    -0.001    28.020     8.682
    49   6 C        3.053     0.005    27.857     8.656
    50   6 C        2.923    -0.033    28.830     8.805
    51   6 C        3.936     0.011    20.327     6.407
    52   6 C        3.809    -0.056    21.579     6.613
    53   6 C        3.800    -0.048    21.444     6.593
    54   6 C        3.752    -0.103    22.522     6.768
    55   6 C        3.809    -0.056    21.580     6.613
    56   6 C        3.800    -0.048    21.444     6.593
    57   6 C        3.752    -0.103    22.521     6.767
    58   6 C        3.053     0.008    27.798     8.647
    59   6 C        2.922    -0.024    28.606     8.771
    60   6 C        2.975     0.009    27.821     8.652
    61   6 C        1.913     0.118    28.203     8.577
    62   7 N        0.911    -0.285    27.345     7.563
    63   6 C        2.928    -0.024    28.592     8.769
    64   6 C        2.913    -0.032    28.789     8.798
    65   6 C        3.036     0.010    27.751     8.641
    66   6 C        2.922    -0.034    28.841     8.807
    67   6 C        3.052     0.003    27.899     8.663
    68   1 H        0.925     0.033     2.543     2.494
    69   1 H        0.925     0.033     2.545     2.495
    70   1 H        0.925     0.034     2.530     2.487
    71   1 H        0.924     0.030     2.590     2.517
    72   1 H        0.924     0.030     2.587     2.515
    73   1 H        0.924     0.028     2.614     2.529
    74   1 H        0.924     0.028     2.611     2.527
    75   1 H        0.924     0.036     2.500     2.473
    76   1 H        0.924     0.037     2.496     2.471
    77   1 H        0.924     0.036     2.497     2.471
    78   1 H        0.924     0.041     2.438     2.442
    79   1 H        0.924     0.029     2.600     2.522
    80   1 H        0.924     0.025     2.652     2.547
    81   1 H        0.924     0.030     2.583     2.514
    82   1 H        0.924     0.028     2.614     2.528
    83   1 H        0.925     0.036     2.507     2.476
    84   1 H        0.925     0.032     2.558     2.501
    85   1 H        0.925     0.034     2.530     2.487
    86   1 H        0.926     0.032     2.557     2.501
    87   1 H        0.926     0.035     2.520     2.482
    88   1 H        0.926     0.035     2.519     2.482
    89   1 H        0.926     0.036     2.499     2.472
    90   1 H        0.924     0.039     2.468     2.457
    91   1 H        0.924     0.042     2.419     2.432
    92   1 H        0.924     0.030     2.592     2.518
    93   1 H        0.924     0.025     2.656     2.549
    94   1 H        0.925     0.037     2.492     2.469
    95   1 H        0.925     0.035     2.519     2.482
    96   1 H        0.925     0.035     2.515     2.480
    97   1 H        0.924     0.039     2.467     2.456
    98   1 H        0.924     0.042     2.417     2.431
    99   1 H        0.924     0.025     2.656     2.549
   100   1 H        0.924     0.030     2.593     2.518
   101   1 H        0.925     0.037     2.491     2.468
   102   1 H        0.925     0.035     2.518     2.482
   103   1 H        0.925     0.035     2.514     2.480
   104   1 H        0.926     0.039     2.463     2.454
   105   1 H        0.926     0.038     2.481     2.463
   106   1 H        0.926     0.044     2.399     2.422
   107   1 H        0.926     0.030     2.581     2.512
   108   1 H        0.926     0.030     2.586     2.515
   109   1 H        0.926     0.030     2.589     2.516
   110   1 H        0.926     0.030     2.588     2.516
   111   1 H        0.926     0.034     2.530     2.487
   112   1 H        0.926     0.034     2.525     2.485
   113   1 H        0.926     0.037     2.489     2.467
   114   1 H        0.924     0.043     2.413     2.429
   115   1 H        0.924     0.039     2.466     2.456
   116   1 H        0.924     0.025     2.659     2.550
   117   1 H        0.924     0.030     2.593     2.518
   118   1 H        0.925     0.035     2.520     2.483
   119   1 H        0.925     0.037     2.487     2.466
   120   1 H        0.925     0.035     2.515     2.480
   121   1 H        0.924     0.039     2.467     2.456
   122   1 H        0.924     0.043     2.413     2.429
   123   1 H        0.924     0.025     2.660     2.550
   124   1 H        0.924     0.029     2.595     2.519
   125   1 H        0.925     0.035     2.514     2.480
   126   1 H        0.925     0.037     2.489     2.467
   127   1 H        0.925     0.035     2.521     2.483
   128   1 H        0.926     0.039     2.461     2.453
   129   1 H        0.926     0.037     2.483     2.464
   130   1 H        0.926     0.044     2.402     2.424
   131   1 H        0.926     0.033     2.543     2.494

molecular dipole:
                 x           y           z       tot (Debye)
 q only:       -0.040      -0.433      -0.306
   full:       -0.087      -0.603      -0.479       1.970

 projected vibrational frequencies (cm⁻¹)
eigval :       -0.00    -0.00    -0.00     0.00     0.00     0.00
eigval :        3.20     5.03     6.28    10.22    12.14    14.41
eigval :       21.59    22.05    27.00    38.48    39.60    41.52
eigval :       43.56    47.76    49.33    52.37    54.26    56.23
eigval :       57.34    58.90    62.45    64.72    69.32    71.01
eigval :       77.78    81.51    85.78    87.15    88.98    93.94
eigval :      100.64   102.71   105.33   110.91   113.36   119.97
eigval :      122.55   140.66   141.32   151.40   158.73   169.04
eigval :      173.56   189.56   193.14   204.09   204.74   211.01
eigval :      214.45   221.37   221.89   222.04   227.18   230.70
eigval :      232.13   237.62   243.06   246.64   250.59   253.78
eigval :      256.34   263.77   272.16   283.25   284.65   284.91
eigval :      300.06   302.41   303.35   304.38   329.82   331.35
eigval :      336.69   341.06   354.22   361.46   366.56   384.68
eigval :      405.68   408.64   412.88   417.78   424.25   430.49
eigval :      431.64   438.43   439.70   440.44   441.39   467.41
eigval :      471.05   471.52   471.88   494.81   506.73   508.38
eigval :      509.19   524.52   526.09   547.24   551.79   561.53
eigval :      566.04   572.22   574.10   574.22   584.43   585.66
eigval :      587.60   598.37   601.97   608.57   628.20   636.01
eigval :      642.55   644.45   665.46   689.50   715.18   717.20
eigval :      717.37   720.65   721.55   723.73   723.97   735.45
eigval :      735.96   736.40   740.17   772.00   780.61   783.00
eigval :      785.35   792.48   796.59   819.29   820.20   821.52
eigval :      822.69   827.71   831.89   833.57   834.57   855.17
eigval :      877.14   878.80   879.12   879.70   879.81   881.04
eigval :      882.25   890.06   891.07   892.78   894.54   909.46
eigval :      909.69   911.83   912.53   912.93   914.16   928.38
eigval :      928.54   929.59   937.11   937.87   943.55   951.26
eigval :      959.25   960.40   968.85   980.63   993.88   994.90
eigval :      995.49  1004.57  1013.01  1032.46  1033.14  1034.23
eigval :     1067.88  1077.73  1078.13  1086.96  1087.06  1088.56
eigval :     1088.98  1093.73  1093.79  1094.18  1097.10  1111.42
eigval :     1112.38  1114.75  1117.38  1121.40  1131.00  1135.92
eigval :     1136.19  1136.95  1137.13  1141.10  1142.68  1146.63
eigval :     1148.49  1151.16  1152.77  1155.01  1155.56  1159.88
eigval :     1182.57  1183.17  1192.69  1202.24  1209.78  1213.81
eigval :     1218.55  1219.48  1219.87  1221.92  1229.44  1231.48
eigval :     1232.76  1233.14  1238.78  1247.30  1249.06  1251.17
eigval :     1258.04  1264.88  1265.98  1270.42  1275.89  1278.23
eigval :     1278.84  1278.90  1282.67  1284.33  1284.50  1285.01
eigval :     1285.72  1297.70  1298.16  1298.60  1302.92  1307.50
eigval :     1309.63  1320.58  1323.45  1324.63  1330.91  1331.63
eigval :     1338.60  1350.41  1354.54  1355.40  1355.47  1360.63
eigval :     1365.15  1369.63  1371.49  1373.72  1376.77  1412.25
eigval :     1413.48  1413.57  1413.77  1413.80  1414.46  1419.34
eigval :     1419.86  1422.25  1427.32  1436.23  1436.92  1438.69
eigval :     1438.99  1450.82  1456.59  1474.84  1475.37  1475.55
eigval :     1478.18  1482.26  1484.57  1484.70  1485.44  1489.29
eigval :     1493.27  1494.08  1495.93  1496.35  1497.65  1497.94
eigval :     1499.36  1499.94  1500.03  1500.69  1501.16  1501.88
eigval :     1501.99  1502.10  1503.36  1504.30  1504.38  1505.21
eigval :     1507.94  1557.38  1558.15  1559.71  1572.23  1572.80
eigval :     1574.88  1580.76  1582.12  1586.95  1596.82  1599.51
eigval :     1602.83  2306.76  2307.56  2354.18  2354.52  2954.09
eigval :     2956.86  2958.30  2959.33  2959.69  2959.93  2960.11
eigval :     2960.41  2967.74  2969.57  2969.99  2970.27  2971.47
eigval :     2971.76  2972.16  2974.98  2976.05  2976.58  2976.69
eigval :     2978.01  2979.45  2979.47  2981.09  2981.30  2981.35
eigval :     2984.31  2984.33  2991.64  3023.18  3024.22  3024.35
eigval :     3024.43  3024.78  3024.95  3026.07  3027.49  3027.71
eigval :     3027.89  3028.08  3028.12  3033.17  3035.17  3035.74
eigval :     3035.86  3036.35  3042.39  3071.53  3072.89  3075.80
eigval :     3076.04  3078.33  3078.82  3079.85  3080.58  3082.76
eigval :     3083.10  3083.29  3083.57  3083.98  3085.25  3087.57
eigval :     3087.72  3093.43  3093.76

   temp. (K)  partition function   enthalpy   heat capacity  entropy
                                   cal/mol     cal/K/mol   cal/K/mol   J/K/mol
 298.15  VIB  0.519E+36            40344.184    231.013    264.711
         ROT  0.402E+09              888.752      2.981     42.352
         INT  0.208E+45            41232.936    233.993    307.063
         TR   0.250E+29             1481.254      4.968     46.156
         TOT                       42714.1901   238.9616   353.2195  1477.8705

       T/K    H(0)-H(T)+PV         H(T)/Eh          T*S/Eh         G(T)/Eh
   ------------------------------------------------------------------------
    298.15    0.680694E-01    0.115081E+01    0.167826E+00    0.982985E+00
   ------------------------------------------------------------------------

         :::::::::::::::::::::::::::::::::::::::::::::::::::::
         ::                  THERMODYNAMIC                  ::
         :::::::::::::::::::::::::::::::::::::::::::::::::::::
         :: total free energy        -176.723327958547 Eh   ::
         ::.................................................::
         :: total energy             -177.706313177960 Eh   ::
         :: zero point energy           1.082741814235 Eh   ::
         :: G(RRHO) w/o ZPVE           -0.099756594823 Eh   ::
         :: G(RRHO) contrib.            0.982985219412 Eh   ::
         :::::::::::::::::::::::::::::::::::::::::::::::::::::

           -------------------------------------------------
          | TOTAL ENERGY             -177.706313177960 Eh   |
          | TOTAL ENTHALPY           -176.555501968976 Eh   |
          | TOTAL FREE ENERGY        -176.723327958547 Eh   |
          | GRADIENT NORM               0.000037508120 Eh/α |
          | HOMO-LUMO GAP               2.077630551354 eV   |
           -------------------------------------------------

 * finished run on 2025/09/06 at 13:27:49.766
