   * xtb version 6.7.1 (edcfbbe) compiled by 'albert@albert-system' on 2024-07-22

   ID    Z sym.   atoms
    1    6 C      1-5, 7-20, 22-29
    2    7 N      6, 21
    3    1 H      30-47

          program call               : xtb data2507/toluene/PPI/PPI.xyz --gfn 2 --gbsa toluene --ohess vtight --parallel 40 --molden --ceasefiles --namespace data2507/toluene/PPI/PPI_toluene_S0_preOpt
      * Solvation model:               GBSA
        Solvent                        toluene
        Solvent mass                       9.2140E+01 g/mol
          :  Hamiltonian                  GFN2-xTB          :
 * total energy  :   -72.8952809 Eh     change       -0.1456911E-08 Eh
 * total energy  :   -72.9030867 Eh     change       -0.7805801E-02 Eh
 * total energy  :   -72.9049336 Eh     change       -0.1846902E-02 Eh
 * total energy  :   -72.9052914 Eh     change       -0.3577889E-03 Eh
 * total energy  :   -72.9055384 Eh     change       -0.2469388E-03 Eh
 * total energy  :   -72.9057438 Eh     change       -0.2054519E-03 Eh
 * total energy  :   -72.9060234 Eh     change       -0.2796115E-03 Eh
 * total energy  :   -72.9063571 Eh     change       -0.3336767E-03 Eh
 * total energy  :   -72.9066433 Eh     change       -0.2861822E-03 Eh
 * total energy  :   -72.9068305 Eh     change       -0.1872337E-03 Eh
 * total energy  :   -72.9078576 Eh     change       -0.1928342E-05 Eh
 * total energy  :   -72.9078586 Eh     change       -0.1000855E-05 Eh
 * total energy  :   -72.9078595 Eh     change       -0.8948191E-06 Eh
 * total energy  :   -72.9078608 Eh     change       -0.1274661E-05 Eh
 * total energy  :   -72.9078622 Eh     change       -0.1458580E-05 Eh
 * total energy  :   -72.9078634 Eh     change       -0.1107955E-05 Eh
 * total energy  :   -72.9078638 Eh     change       -0.4838298E-06 Eh
 * total energy  :   -72.9078640 Eh     change       -0.1845419E-06 Eh
 * total energy  :   -72.9078640 Eh     change       -0.3608022E-08 Eh
   *** GEOMETRY OPTIMIZATION CONVERGED AFTER 44 ITERATIONS ***

 final structure:
================
47
 xtb: 6.7.1 (edcfbbe)
C           -5.10577940809559       -2.40178248704984       -0.14059446917850
C           -4.14958591135791       -3.12671419137275        0.55352459894175
C           -2.83470374982844       -2.70413185032255        0.56777441754300
C           -2.45600217550454       -1.54411688802837       -0.11002364114587
C           -1.05437496122615       -1.15370604523036       -0.06436447878513
N           -0.07508747886694       -2.02551753066466       -0.03701862666489
C            1.07290982403906       -1.29817710086943       -0.00052212896745
C            2.41159945090579       -1.78138835082478        0.00591901862883
C            2.68995187534998       -3.15195584311822       -0.04390191132192
C            3.98835922619650       -3.59710364791001       -0.06274749193599
C            5.02920948708626       -2.67051048042600       -0.03492848114220
C            4.76750164855407       -1.32119288801709        0.01843507432801
C            3.45389829025464       -0.82671419586024        0.04674597033980
C            3.14575496814619        0.59102625103826        0.13182840386785
C            4.15663023507923        1.55720914481526        0.24264252005975
C            3.87618345036689        2.89848752153029        0.35742123947375
C            2.55536323807868        3.33533696488246        0.38334874575194
C            1.53562016338968        2.42207339668749        0.27324682857103
C            1.79987222899387        1.05211653642333        0.12902957707376
C            0.78071486738145        0.06450449414725        0.01049501678243
N           -0.59362542825809        0.14345204758603       -0.04353104123802
C           -1.40932960984695        1.29659906229622       -0.06239878676624
C           -2.24773415574227        1.56440473945355        1.01272308142597
C           -3.06965133437295        2.67742347350143        0.97841258363020
C           -3.05729209205458        3.51996843460383       -0.12087021546988
C           -2.22023223185571        3.25100444631345       -1.19253448478017
C           -1.39714626438601        2.13979313343432       -1.16993340276100
C           -3.41853100249789       -0.83445932044325       -0.82565701606993
C           -4.73390490469667       -1.26203374162788       -0.83397690975236
H           -6.13506966741956       -2.72875750924671       -0.14827084463423
H           -4.43061275842832       -4.02338186190050        1.08627812622471
H           -2.07865016057371       -3.25965652817527        1.10141282900166
H            1.85505055236185       -3.83565628552000       -0.07237069682542
H            4.20583522632054       -4.65445499874192       -0.10250279633597
H            6.05329899862516       -3.01489146569681       -0.05579369114964
H            5.60504550685424       -0.64211191644692        0.03494870324699
H            5.19057263621213        1.25235463053136        0.24641962155145
H            4.68289590912252        3.61221044508720        0.43940696901559
H            2.33115135662253        4.38610192310542        0.49390918580554
H            0.51349919701157        2.76276982481244        0.31046178621930
H           -2.25032758575356        0.89932636456736        1.86381857799585
H           -3.72023841947033        2.88531747214188        1.81430499883550
H           -3.69987936016803        4.38694451902143       -0.14387412996268
H           -2.20985771967777        3.90455566779943       -2.05185758333559
H           -0.74110460879003        1.91790084144629       -1.99955002498173
H           -3.14127298868369        0.04009304345500       -1.39392190041296
H           -5.47092335939835       -0.70256125118977       -1.39136312070044

          :  Hamiltonian                  GFN2-xTB          :
         :: gradient norm              0.000051417267 Eh/a0 ::
         :: HOMO-LUMO gap              2.839421755723 eV    ::
         :: SCC energy               -74.279915459071 Eh    ::
         :: -> dispersion             -0.064382504978 Eh    ::
         :: -> Gsolv                  -0.031223151975 Eh    ::
         :: repulsion energy           1.372051429649 Eh    ::

    * Orbital Energies and Occupations

         #    Occupation            Energy/Eh            Energy/eV
      -------------------------------------------------------------
         1        2.0000           -0.6885089             -18.7353
       ...           ...                  ...                  ...
        56        2.0000           -0.4293758             -11.6839
        57        2.0000           -0.4267452             -11.6123
        58        2.0000           -0.4243666             -11.5476
        59        2.0000           -0.4219707             -11.4824
        60        2.0000           -0.4183578             -11.3841
        61        2.0000           -0.4175471             -11.3620
        62        2.0000           -0.4104459             -11.1688
        63        2.0000           -0.4087169             -11.1218
        64        2.0000           -0.4062491             -11.0546
        65        2.0000           -0.3990600             -10.8590
        66        2.0000           -0.3831654             -10.4265
        67        2.0000           -0.3798205             -10.3354
        68        2.0000           -0.3655115              -9.9461 (HOMO)
        69                         -0.2611647              -7.1067 (LUMO)
        70                         -0.2511932              -6.8353
        71                         -0.2423765              -6.5954
        72                         -0.2404244              -6.5423
        73                         -0.2399957              -6.5306
        74                         -0.2275895              -6.1930
        75                         -0.2106642              -5.7325
        76                         -0.1908602              -5.1936
        77                         -0.1744614              -4.7473
        78                         -0.1411277              -3.8403
        79                         -0.1112720              -3.0279
       ...                                ...                  ...
       134                          0.7246835              19.7196
      -------------------------------------------------------------
                  HL-Gap            0.1043468 Eh            2.8394 eV

     #   Z          covCN         q      C6AA      α(0)
     1   6 C        2.919    -0.029    28.716     8.788
     2   6 C        2.918    -0.028    28.693     8.784
     3   6 C        2.928    -0.029    28.717     8.788
     4   6 C        2.974    -0.001    28.054     8.688
     5   6 C        3.190     0.136    24.595     8.089
     6   7 N        1.895    -0.319    29.118     8.000
     7   6 C        3.204     0.060    26.095     8.321
     8   6 C        2.985    -0.003    28.097     8.695
     9   6 C        2.921    -0.033    28.834     8.806
    10   6 C        2.917    -0.032    28.795     8.799
    11   6 C        2.917    -0.034    28.855     8.809
    12   6 C        2.921    -0.037    28.909     8.817
    13   6 C        2.979    -0.005    28.141     8.702
    14   6 C        2.979    -0.002    28.061     8.689
    15   6 C        2.922    -0.035    28.875     8.812
    16   6 C        2.916    -0.034    28.851     8.808
    17   6 C        2.917    -0.033    28.811     8.802
    18   6 C        2.919    -0.041    29.031     8.836
    19   6 C        2.977    -0.005    28.146     8.702
    20   6 C        3.074     0.022    27.442     8.589
    21   7 N        2.840    -0.055    22.296     7.013
    22   6 C        2.912     0.067    26.503     8.442
    23   6 C        2.921    -0.038    28.937     8.822
    24   6 C        2.920    -0.025    28.623     8.773
    25   6 C        2.919    -0.028    28.710     8.787
    26   6 C        2.920    -0.026    28.655     8.778
    27   6 C        2.921    -0.037    28.916     8.818
    28   6 C        2.922    -0.036    28.889     8.814
    29   6 C        2.919    -0.029    28.730     8.790
    30   1 H        0.926     0.041     2.442     2.443
    31   1 H        0.926     0.041     2.439     2.442
    32   1 H        0.926     0.045     2.388     2.417
    33   1 H        0.926     0.043     2.408     2.427
    34   1 H        0.926     0.032     2.553     2.498
    35   1 H        0.926     0.032     2.559     2.502
    36   1 H        0.926     0.035     2.522     2.483
    37   1 H        0.926     0.037     2.490     2.468
    38   1 H        0.926     0.033     2.549     2.497
    39   1 H        0.926     0.032     2.561     2.503
    40   1 H        0.926     0.029     2.595     2.519
    41   1 H        0.926     0.038     2.474     2.460
    42   1 H        0.926     0.048     2.350     2.397
    43   1 H        0.926     0.048     2.344     2.394
    44   1 H        0.926     0.048     2.349     2.397
    45   1 H        0.926     0.041     2.431     2.438
    46   1 H        0.926     0.029     2.597     2.520
    47   1 H        0.926     0.039     2.468     2.457

molecular dipole:
                 x           y           z       tot (Debye)
 q only:       -1.002       1.053       0.011
   full:       -0.969       1.412       0.010       4.354

 projected vibrational frequencies (cm⁻¹)
eigval :       -0.00    -0.00     0.00     0.00     0.00     0.00
eigval :       23.12    35.35    39.53    55.57    64.63    71.71
eigval :       79.97    91.72   129.21   163.77   188.86   209.04
eigval :      234.66   237.11   253.00   269.23   285.72   335.71
eigval :      365.92   373.42   377.87   398.47   402.55   434.89
eigval :      441.76   467.22   473.62   497.44   517.37   523.82
eigval :      533.71   584.66   585.71   590.03   630.30   638.80
eigval :      650.68   653.02   663.97   675.78   678.22   683.39
eigval :      699.89   730.83   734.58   759.47   764.93   766.36
eigval :      782.17   792.31   863.61   871.80   874.50   874.75
eigval :      899.73   903.12   907.40   913.29   923.10   926.56
eigval :      926.67   927.63   931.65   933.34   938.77   944.96
eigval :      975.23  1009.44  1023.94  1067.72  1076.66  1081.84
eigval :     1085.40  1107.66  1112.39  1119.53  1132.68  1151.93
eigval :     1172.50  1176.19  1178.93  1181.09  1184.89  1186.31
eigval :     1197.51  1207.79  1253.24  1256.20  1271.67  1278.33
eigval :     1281.72  1300.28  1310.64  1319.80  1329.79  1336.35
eigval :     1346.49  1372.07  1405.86  1416.06  1424.74  1430.22
eigval :     1431.69  1435.32  1455.30  1476.68  1510.38  1512.60
eigval :     1540.89  1559.53  1565.63  1580.21  1581.50  1590.90
eigval :     1592.68  1595.91  1603.11  3069.79  3073.07  3074.11
eigval :     3077.86  3079.50  3079.92  3082.01  3083.44  3087.05
eigval :     3088.48  3092.57  3096.04  3097.48  3098.62  3100.27
eigval :     3101.30  3108.97  3117.66

   temp. (K)  partition function   enthalpy   heat capacity  entropy
                                   cal/mol     cal/K/mol   cal/K/mol   J/K/mol
 298.15  VIB  0.187E+09            11983.795     80.487     72.648
         ROT  0.149E+08              888.752      2.981     35.804
         INT  0.279E+16            12872.548     83.468    108.451
         TR   0.690E+28             1481.254      4.968     43.602
         TOT                       14353.8015    88.4363   152.0531   636.1903

       T/K    H(0)-H(T)+PV         H(T)/Eh          T*S/Eh         G(T)/Eh
   ------------------------------------------------------------------------
    298.15    0.228742E-01    0.384204E+00    0.722454E-01    0.311959E+00
   ------------------------------------------------------------------------

         :::::::::::::::::::::::::::::::::::::::::::::::::::::
         ::                  THERMODYNAMIC                  ::
         :::::::::::::::::::::::::::::::::::::::::::::::::::::
         :: total free energy         -72.595905205097 Eh   ::
         ::.................................................::
         :: total energy              -72.907864025564 Eh   ::
         :: zero point energy           0.361329935553 Eh   ::
         :: G(RRHO) w/o ZPVE           -0.049371115086 Eh   ::
         :: G(RRHO) contrib.            0.311958820467 Eh   ::
         :::::::::::::::::::::::::::::::::::::::::::::::::::::

           -------------------------------------------------
          | TOTAL ENERGY              -72.907864025564 Eh   |
          | TOTAL ENTHALPY            -72.523659851347 Eh   |
          | TOTAL FREE ENERGY         -72.595905205097 Eh   |
          | GRADIENT NORM               0.000051419783 Eh/α |
          | HOMO-LUMO GAP               2.839421521063 eV   |
           -------------------------------------------------

 * finished run on 2025/09/07 at 05:30:30.503
