   * xtb version 6.7.1 (edcfbbe) compiled by 'albert@albert-system' on 2024-07-22

   ID    Z sym.   atoms
    1    6 C      1-5, 7-20, 22-29
    2    7 N      6, 21
    3    1 H      30-47

          program call               : xtb data2507/toluene/PPI/PPI_toluene_T1_crest.xyz --gfn 2 --uhf 2 --gbsa toluene --ohess vtight --parallel 40 --molden --ceasefiles --namespace data2507/toluene/PPI/PPI_toluene_T1_finalOpt
      * Solvation model:               GBSA
        Solvent                        toluene
        Solvent mass                       9.2140E+01 g/mol
          :  Hamiltonian                  GFN2-xTB          :
 * total energy  :   -72.8122410 Eh     change       -0.6297398E-09 Eh
 * total energy  :   -72.8122680 Eh     change       -0.2702649E-04 Eh
 * total energy  :   -72.8122824 Eh     change       -0.1436409E-04 Eh
 * total energy  :   -72.8122892 Eh     change       -0.6839385E-05 Eh
 * total energy  :   -72.8122980 Eh     change       -0.8767201E-05 Eh
 * total energy  :   -72.8123049 Eh     change       -0.6903971E-05 Eh
 * total energy  :   -72.8123123 Eh     change       -0.7418085E-05 Eh
 * total energy  :   -72.8123210 Eh     change       -0.8665937E-05 Eh
 * total energy  :   -72.8123275 Eh     change       -0.6590578E-05 Eh
 * total energy  :   -72.8123304 Eh     change       -0.2863588E-05 Eh
 * total energy  :   -72.8123331 Eh     change       -0.5614278E-06 Eh
 * total energy  :   -72.8123337 Eh     change       -0.5728322E-06 Eh
 * total energy  :   -72.8123342 Eh     change       -0.4621963E-06 Eh
 * total energy  :   -72.8123345 Eh     change       -0.3649054E-06 Eh
 * total energy  :   -72.8123349 Eh     change       -0.3962461E-06 Eh
 * total energy  :   -72.8123354 Eh     change       -0.4709218E-06 Eh
 * total energy  :   -72.8123359 Eh     change       -0.4771816E-06 Eh
 * total energy  :   -72.8123362 Eh     change       -0.3311189E-06 Eh
 * total energy  :   -72.8123363 Eh     change       -0.6643256E-07 Eh
   *** GEOMETRY OPTIMIZATION CONVERGED AFTER 22 ITERATIONS ***

 final structure:
================
47
 xtb: 6.7.1 (edcfbbe)
C           -5.06825619623099       -2.66317058299131        0.13648944238945
C           -3.96587597585563       -3.44388954345917       -0.22293271436597
C           -2.71126113136629       -2.90112121743949       -0.26151090671449
C           -2.49192717116829       -1.52270997396668        0.04591980774807
C           -1.17716091040498       -1.04842499721846       -0.03287377790108
N           -0.11986995016301       -1.89173957558930       -0.10922137868644
C            0.96951594280278       -1.15813820445757       -0.03347899255558
C            2.32186262216522       -1.61180682156977       -0.00868188724520
C            2.61396309625582       -2.97658004355060       -0.00852551691685
C            3.92413483605988       -3.41294493566450        0.05442048342512
C            4.94283314097206       -2.47569328119288        0.12804189544724
C            4.66270286302955       -1.11896521456539        0.12218060613570
C            3.34994026813555       -0.64023422352834        0.04298700847852
C            3.02407360054869        0.77668153303785       -0.00710014787328
C            4.01677377745683        1.75041650434395       -0.06741502350308
C            3.73030214176565        3.10129603852633       -0.15165842189742
C            2.39999735902490        3.53050537773306       -0.20175501009916
C            1.38713003422405        2.61616413444088       -0.14063694458926
C            1.64841262447827        1.22240052346771       -0.02465562085281
C            0.65186726726358        0.25016868371436        0.03440033723288
N           -0.72383347799590        0.30063605985444        0.03681412970499
C           -1.55002487150838        1.43357926262438        0.00521500627946
C           -1.55368499158067        2.33488134057186        1.07116355239511
C           -2.38650886356121        3.43684933340091        1.03603971722488
C           -3.22021634053715        3.65037850143634       -0.05225920042959
C           -3.21851486834824        2.75462144237400       -1.11076725470648
C           -2.39009324733833        1.64886694832738       -1.08792702548834
C           -3.62501836458170       -0.75828503731836        0.44685133494942
C           -4.87273172838721       -1.32598309592506        0.48266083314421
H           -6.05729178097174       -3.09367848227611        0.16177690591152
H           -4.10924708741249       -4.48507279047196       -0.47401887694299
H           -1.85294399047033       -3.49022165219093       -0.54206331811609
H            1.78902136504984       -3.67083938521856       -0.05233841257807
H            4.14952713878095       -4.46853339246710        0.05314759398216
H            5.97116984860152       -2.80150257297701        0.18920030907130
H            5.49146266644852       -0.43248958873381        0.18424155655414
H            5.05461593545673        1.45827408617628       -0.06050997020017
H            4.53362930568213        3.82088249646124       -0.19392108838021
H            2.17514059275729        4.58279319375749       -0.29424410053237
H            0.36481493100553        2.94949037766379       -0.20165277708674
H           -0.90625705713391        2.15697805887460        1.91786461320039
H           -2.39008054907421        4.12869451969160        1.86517971481242
H           -3.87025498794799        4.51172728509094       -0.07351161521030
H           -3.86396421529268        2.91891220405045       -1.96066320145007
H           -2.38458790810836        0.94343700604976       -1.90591860355396
H           -3.50005873006158        0.26299776221571        0.76501638543531
H           -5.71723083176411       -0.72773146811259        0.79465147645370

          :  Hamiltonian                  GFN2-xTB          :
         :: gradient norm              0.000060336167 Eh/a0 ::
         :: HOMO-LUMO gap              0.537151238155 eV    ::
         :: SCC energy               -74.164580907317 Eh    ::
         :: -> dispersion             -0.064248986939 Eh    ::
         :: -> Gsolv                  -0.030376533789 Eh    ::
         :: repulsion energy           1.352244631642 Eh    ::

    * Orbital Energies and Occupations

         #    Occupation            Energy/Eh            Energy/eV
      -------------------------------------------------------------
         1        2.0000           -0.6877488             -18.7146
       ...           ...                  ...                  ...
        57        2.0000           -0.4290889             -11.6761
        58        2.0000           -0.4245000             -11.5512
        59        2.0000           -0.4211569             -11.4603
        60        2.0000           -0.4206670             -11.4469
        61        2.0000           -0.4151651             -11.2972
        62        2.0000           -0.4112403             -11.1904
        63        2.0000           -0.4060583             -11.0494
        64        2.0000           -0.4022589             -10.9460
        65        2.0000           -0.3998905             -10.8816
        66        2.0000           -0.3872022             -10.5363
        67        2.0000           -0.3837490             -10.4423
        68        1.0000           -0.3621535              -9.8547
        69        1.0000           -0.2758231              -7.5055 (HOMO)
        70        0.0000           -0.2560833              -6.9684 (LUMO)
        71                         -0.2497053              -6.7948
        72                         -0.2351903              -6.3999
        73                         -0.2347411              -6.3876
        74                         -0.2188458              -5.9551
        75                         -0.2130635              -5.7978
        76                         -0.1951792              -5.3111
        77                         -0.1722381              -4.6868
        78                         -0.1508674              -4.1053
        79                         -0.1078465              -2.9347
        80                         -0.1062368              -2.8909
       ...                                ...                  ...
       134                          0.7255631              19.7436
      -------------------------------------------------------------
                  HL-Gap            0.0197398 Eh            0.5371 eV

     #   Z          covCN         q      C6AA      α(0)
     1   6 C        2.917    -0.035    28.867     8.811
     2   6 C        2.911    -0.030    28.737     8.790
     3   6 C        2.926    -0.033    28.823     8.804
     4   6 C        2.967    -0.007    28.200     8.710
     5   6 C        3.124     0.127    25.049     8.196
     6   7 N        1.874    -0.307    28.809     7.956
     7   6 C        3.155     0.090    25.728     8.294
     8   6 C        2.982    -0.006    28.160     8.705
     9   6 C        2.923    -0.026    28.650     8.778
    10   6 C        2.915    -0.033    28.811     8.802
    11   6 C        2.917    -0.025    28.629     8.774
    12   6 C        2.922    -0.036    28.894     8.815
    13   6 C        2.976     0.002    27.978     8.676
    14   6 C        2.975    -0.004    28.122     8.699
    15   6 C        2.918    -0.032    28.788     8.799
    16   6 C        2.915    -0.034    28.843     8.807
    17   6 C        2.912    -0.032    28.807     8.801
    18   6 C        2.916    -0.037    28.915     8.818
    19   6 C        2.970    -0.017    28.420     8.744
    20   6 C        3.020     0.043    27.015     8.526
    21   7 N        2.804    -0.077    22.726     7.080
    22   6 C        2.909     0.064    26.567     8.452
    23   6 C        2.920    -0.041    29.029     8.835
    24   6 C        2.919    -0.029    28.716     8.788
    25   6 C        2.919    -0.034    28.850     8.808
    26   6 C        2.919    -0.027    28.680     8.782
    27   6 C        2.921    -0.041    29.008     8.832
    28   6 C        2.914    -0.042    29.055     8.839
    29   6 C        2.912    -0.029    28.728     8.789
    30   1 H        0.926     0.034     2.528     2.486
    31   1 H        0.926     0.035     2.511     2.478
    32   1 H        0.926     0.048     2.341     2.392
    33   1 H        0.926     0.050     2.321     2.382
    34   1 H        0.926     0.040     2.450     2.448
    35   1 H        0.926     0.041     2.434     2.440
    36   1 H        0.926     0.041     2.431     2.438
    37   1 H        0.926     0.040     2.449     2.447
    38   1 H        0.926     0.035     2.514     2.479
    39   1 H        0.926     0.033     2.543     2.494
    40   1 H        0.926     0.034     2.537     2.491
    41   1 H        0.926     0.037     2.489     2.467
    42   1 H        0.926     0.042     2.425     2.435
    43   1 H        0.926     0.041     2.432     2.439
    44   1 H        0.926     0.042     2.427     2.436
    45   1 H        0.926     0.034     2.533     2.489
    46   1 H        0.926     0.028     2.620     2.531
    47   1 H        0.926     0.032     2.553     2.499

molecular dipole:
                 x           y           z       tot (Debye)
 q only:        0.155       0.623       0.025
   full:        0.167       1.003       0.044       2.588

 projected vibrational frequencies (cm⁻¹)
eigval :       -0.00    -0.00    -0.00    -0.00    -0.00     0.00
eigval :       19.11    29.30    38.68    52.88    66.84    67.81
eigval :       81.19    99.78   125.31   153.57   181.46   211.46
eigval :      216.95   236.88   249.21   256.16   287.04   309.49
eigval :      356.74   371.04   379.89   389.02   392.58   404.60
eigval :      417.80   433.14   451.96   475.68   486.52   511.26
eigval :      516.62   571.91   577.35   579.60   590.95   619.31
eigval :      626.41   635.21   644.91   655.23   659.03   666.54
eigval :      691.32   716.54   721.57   725.55   741.96   755.14
eigval :      765.40   788.68   825.81   840.14   853.95   855.02
eigval :      868.02   888.46   892.15   903.52   906.52   908.85
eigval :      915.79   916.83   919.69   923.76   925.03   926.12
eigval :      943.57   976.82   983.71  1036.36  1059.46  1074.28
eigval :     1074.92  1083.19  1097.30  1114.22  1115.65  1128.42
eigval :     1147.45  1165.86  1168.82  1175.04  1176.35  1179.63
eigval :     1181.82  1185.52  1199.81  1239.68  1242.55  1263.06
eigval :     1266.89  1272.69  1288.69  1313.09  1321.04  1332.02
eigval :     1341.69  1344.43  1366.45  1384.87  1391.70  1401.54
eigval :     1415.39  1428.05  1430.85  1437.27  1468.01  1487.20
eigval :     1490.30  1496.97  1535.47  1547.42  1553.83  1555.78
eigval :     1560.28  1567.18  1584.97  3068.59  3071.24  3075.32
eigval :     3076.84  3077.24  3079.09  3085.57  3087.79  3088.97
eigval :     3089.40  3092.47  3099.21  3100.22  3103.26  3109.52
eigval :     3110.16  3124.19  3129.10

   temp. (K)  partition function   enthalpy   heat capacity  entropy
                                   cal/mol     cal/K/mol   cal/K/mol   J/K/mol
 298.15  VIB  0.411E+09            12350.274     82.589     74.782
         ROT  0.151E+08              888.752      2.981     35.837
         INT  0.623E+16            13239.026     85.570    110.619
         TR   0.690E+28             1481.254      4.968     43.602
         TOT                       14720.2799    90.5385   154.2204   645.2580

       T/K    H(0)-H(T)+PV         H(T)/Eh          T*S/Eh         G(T)/Eh
   ------------------------------------------------------------------------
    298.15    0.234583E-01    0.380078E+00    0.732751E-01    0.306803E+00
   ------------------------------------------------------------------------

         :::::::::::::::::::::::::::::::::::::::::::::::::::::
         ::                  THERMODYNAMIC                  ::
         :::::::::::::::::::::::::::::::::::::::::::::::::::::
         :: total free energy         -72.505533399145 Eh   ::
         ::.................................................::
         :: total energy              -72.812336277138 Eh   ::
         :: zero point energy           0.356619690866 Eh   ::
         :: G(RRHO) w/o ZPVE           -0.049816812873 Eh   ::
         :: G(RRHO) contrib.            0.306802877993 Eh   ::
         :::::::::::::::::::::::::::::::::::::::::::::::::::::

           -------------------------------------------------
          | TOTAL ENERGY              -72.812336277138 Eh   |
          | TOTAL ENTHALPY            -72.432258327061 Eh   |
          | TOTAL FREE ENERGY         -72.505533399145 Eh   |
          | GRADIENT NORM               0.000060734224 Eh/α |
          | HOMO-LUMO GAP               0.537145940519 eV   |
           -------------------------------------------------

 * finished run on 2025/09/07 at 05:32:31.815
