   * xtb version 6.7.1 (edcfbbe) compiled by 'albert@albert-system' on 2024-07-22

   ID    Z sym.   atoms
    1    6 C      1-5, 7-20, 22-29
    2    7 N      6, 21
    3    1 H      30-47

          program call               : xtb data2507/toluene/PPI/PPI_toluene_S0_crest.xyz --gfn 2 --gbsa toluene --ohess vtight --parallel 40 --molden --ceasefiles --namespace data2507/toluene/PPI/PPI_toluene_S0_finalOpt
      * Solvation model:               GBSA
        Solvent                        toluene
        Solvent mass                       9.2140E+01 g/mol
          :  Hamiltonian                  GFN2-xTB          :
 * total energy  :   -72.9077563 Eh     change       -0.1788436E-08 Eh
 * total energy  :   -72.9077811 Eh     change       -0.2482449E-04 Eh
 * total energy  :   -72.9077929 Eh     change       -0.1184472E-04 Eh
 * total energy  :   -72.9077992 Eh     change       -0.6265037E-05 Eh
 * total energy  :   -72.9078066 Eh     change       -0.7382342E-05 Eh
 * total energy  :   -72.9078145 Eh     change       -0.7927892E-05 Eh
 * total energy  :   -72.9078196 Eh     change       -0.5091207E-05 Eh
 * total energy  :   -72.9078223 Eh     change       -0.2731576E-05 Eh
 * total energy  :   -72.9078241 Eh     change       -0.1737928E-05 Eh
 * total energy  :   -72.9078256 Eh     change       -0.1585325E-05 Eh
 * total energy  :   -72.9078300 Eh     change       -0.7116118E-06 Eh
 * total energy  :   -72.9078306 Eh     change       -0.5681979E-06 Eh
 * total energy  :   -72.9078310 Eh     change       -0.4324285E-06 Eh
 * total energy  :   -72.9078315 Eh     change       -0.5054735E-06 Eh
 * total energy  :   -72.9078319 Eh     change       -0.4308946E-06 Eh
 * total energy  :   -72.9078322 Eh     change       -0.2466242E-06 Eh
 * total energy  :   -72.9078323 Eh     change       -0.1632141E-06 Eh
 * total energy  :   -72.9078325 Eh     change       -0.1486189E-06 Eh
 * total energy  :   -72.9078325 Eh     change       -0.1942567E-08 Eh
   *** GEOMETRY OPTIMIZATION CONVERGED AFTER 22 ITERATIONS ***

 final structure:
================
47
 xtb: 6.7.1 (edcfbbe)
C           -5.11974114493164       -2.48250011044835       -0.01379543371360
C           -4.11998442754331       -3.17270843615798        0.65380533827320
C           -2.82134033640219       -2.70283922131949        0.63400850481898
C           -2.50292959224373       -1.52954608354910       -0.05193423032242
C           -1.11553528308851       -1.08896538823130       -0.04260748859179
N           -0.10536789310410       -1.92518197153937       -0.04140607856206
C            1.01642135966676       -1.15734281620358       -0.03280060531930
C            2.37114267334971       -1.59273718324530       -0.05855154479236
C            2.69647685292944       -2.95269506544476       -0.11380131634847
C            4.00904896045792       -3.35165658986590       -0.16239878001847
C            5.01675350393167       -2.38869865455276       -0.16097850782216
C            4.70880775840317       -1.04933697466952       -0.10295233461728
C            3.37956843791084       -0.60166785855227       -0.04289692284996
C            3.02330936076845        0.80415500773273        0.05180296247511
C            4.00152443476328        1.80559507281843        0.14034845190816
C            3.67639052864264        3.13552049336287        0.26831764664848
C            2.34190368464596        3.52471090510770        0.33007001444158
C            1.35295546040006        2.57596306654744        0.24131548444397
C            1.66221115573124        1.21694158432305        0.08411987650296
C            0.67615317197052        0.19400916862367       -0.01244733640854
N           -0.70108010704438        0.22385692248825       -0.03188359616191
C           -1.55811068779185        1.34673463160091       -0.02460047200505
C           -2.37750096032561        1.57895496186357        1.07324580255711
C           -3.23982944800192        2.66139069311038        1.06655018790082
C           -3.28662101030696        3.50895105238771       -0.02792131261450
C           -2.46857589348537        3.27552501016800       -1.12234705603676
C           -1.60556624357503        2.19471898801303       -1.12748733153349
C           -3.50912316094516       -0.85463214655611       -0.74060550430987
C           -4.80791580364505       -1.32950625254379       -0.71484353459488
H           -6.13635131128611       -2.84646549213321        0.00550339759755
H           -4.35447042605517       -4.07912967929482        1.19248608913484
H           -2.03181685568292       -3.23086311416120        1.14676769394651
H            1.88580610834971       -3.66555450327674       -0.12176281510464
H            4.26282603236455       -4.40077717929244       -0.20546655678836
H            6.05163299642432       -2.69671281317508       -0.20573571841567
H            5.52205192713931       -0.34111297166921       -0.10738022344293
H            5.04545202339649        1.53788898120940        0.11658853722502
H            4.45893490116466        3.87737586894975        0.33299762246712
H            2.08326783981713        4.56633328067376        0.45151589541399
H            0.32050013574217        2.87938654386331        0.30630859790753
H           -2.33370015096766        0.91005271513961        1.92024645608313
H           -3.87532208991856        2.84143033020741        1.92035285416239
H           -3.96098694114395        4.35171540744270       -0.02955605539602
H           -2.50437864667719        3.93307881969707       -1.97792681427115
H           -0.96437252496373        2.00074464564697       -1.97552735305003
H           -3.27886557490991        0.03007992820430       -1.31412260231206
H           -5.57935028493019       -0.79669052399968       -1.25144533860513

          :  Hamiltonian                  GFN2-xTB          :
         :: gradient norm              0.000043132611 Eh/a0 ::
         :: HOMO-LUMO gap              2.838906482673 eV    ::
         :: SCC energy               -74.279908081421 Eh    ::
         :: -> dispersion             -0.064382517698 Eh    ::
         :: -> Gsolv                  -0.031189333053 Eh    ::
         :: repulsion energy           1.372075591594 Eh    ::

    * Orbital Energies and Occupations

         #    Occupation            Energy/Eh            Energy/eV
      -------------------------------------------------------------
         1        2.0000           -0.6885152             -18.7355
       ...           ...                  ...                  ...
        56        2.0000           -0.4293651             -11.6836
        57        2.0000           -0.4267457             -11.6123
        58        2.0000           -0.4243719             -11.5477
        59        2.0000           -0.4219615             -11.4822
        60        2.0000           -0.4183640             -11.3843
        61        2.0000           -0.4175466             -11.3620
        62        2.0000           -0.4104530             -11.1690
        63        2.0000           -0.4087356             -11.1223
        64        2.0000           -0.4062375             -11.0543
        65        2.0000           -0.3990505             -10.8587
        66        2.0000           -0.3831666             -10.4265
        67        2.0000           -0.3798196             -10.3354
        68        2.0000           -0.3655102              -9.9460 (HOMO)
        69                         -0.2611823              -7.1071 (LUMO)
        70                         -0.2511917              -6.8353
        71                         -0.2423858              -6.5957
        72                         -0.2404117              -6.5419
        73                         -0.2399692              -6.5299
        74                         -0.2275864              -6.1929
        75                         -0.2106621              -5.7324
        76                         -0.1908662              -5.1937
        77                         -0.1744536              -4.7471
        78                         -0.1411267              -3.8403
        79                         -0.1112497              -3.0273
       ...                                ...                  ...
       134                          0.7246990              19.7201
      -------------------------------------------------------------
                  HL-Gap            0.1043279 Eh            2.8389 eV

     #   Z          covCN         q      C6AA      α(0)
     1   6 C        2.919    -0.029    28.716     8.788
     2   6 C        2.918    -0.028    28.693     8.784
     3   6 C        2.928    -0.029    28.717     8.788
     4   6 C        2.974    -0.001    28.054     8.688
     5   6 C        3.190     0.136    24.594     8.089
     6   7 N        1.895    -0.319    29.118     8.000
     7   6 C        3.204     0.060    26.093     8.321
     8   6 C        2.985    -0.003    28.097     8.695
     9   6 C        2.921    -0.033    28.834     8.806
    10   6 C        2.917    -0.032    28.795     8.799
    11   6 C        2.917    -0.034    28.855     8.809
    12   6 C        2.921    -0.037    28.909     8.817
    13   6 C        2.979    -0.005    28.140     8.702
    14   6 C        2.979    -0.002    28.062     8.689
    15   6 C        2.922    -0.035    28.875     8.812
    16   6 C        2.916    -0.034    28.851     8.808
    17   6 C        2.917    -0.033    28.811     8.802
    18   6 C        2.919    -0.041    29.031     8.836
    19   6 C        2.978    -0.005    28.146     8.702
    20   6 C        3.074     0.022    27.442     8.589
    21   7 N        2.840    -0.055    22.296     7.013
    22   6 C        2.912     0.067    26.503     8.442
    23   6 C        2.921    -0.038    28.938     8.822
    24   6 C        2.920    -0.025    28.623     8.773
    25   6 C        2.919    -0.028    28.710     8.787
    26   6 C        2.920    -0.026    28.655     8.778
    27   6 C        2.921    -0.037    28.917     8.818
    28   6 C        2.922    -0.036    28.889     8.814
    29   6 C        2.919    -0.029    28.730     8.790
    30   1 H        0.926     0.041     2.442     2.443
    31   1 H        0.926     0.041     2.439     2.442
    32   1 H        0.926     0.045     2.388     2.417
    33   1 H        0.926     0.043     2.408     2.427
    34   1 H        0.926     0.032     2.553     2.499
    35   1 H        0.926     0.032     2.560     2.502
    36   1 H        0.926     0.035     2.522     2.483
    37   1 H        0.926     0.037     2.490     2.468
    38   1 H        0.926     0.033     2.549     2.497
    39   1 H        0.926     0.032     2.561     2.503
    40   1 H        0.926     0.029     2.596     2.519
    41   1 H        0.926     0.038     2.475     2.460
    42   1 H        0.926     0.048     2.351     2.398
    43   1 H        0.926     0.048     2.344     2.394
    44   1 H        0.926     0.048     2.349     2.397
    45   1 H        0.926     0.041     2.431     2.438
    46   1 H        0.926     0.029     2.598     2.520
    47   1 H        0.926     0.039     2.468     2.457

molecular dipole:
                 x           y           z       tot (Debye)
 q only:       -1.038       1.016       0.040
   full:       -1.018       1.376       0.041       4.352

 projected vibrational frequencies (cm⁻¹)
eigval :       -0.00    -0.00    -0.00    -0.00     0.00     0.00
eigval :       23.99    34.05    40.08    55.53    64.49    70.21
eigval :       79.54    91.67   129.73   163.62   188.20   208.64
eigval :      234.33   236.91   253.70   269.80   285.52   335.70
eigval :      365.56   373.26   377.40   398.99   403.35   435.17
eigval :      441.83   467.01   473.51   497.36   517.16   523.70
eigval :      535.49   584.33   585.58   589.91   630.37   638.71
eigval :      650.46   652.92   663.91   675.55   678.32   683.23
eigval :      700.02   730.26   734.41   758.87   764.41   765.73
eigval :      782.11   792.10   863.30   873.09   874.52   874.54
eigval :      898.88   902.59   906.66   912.89   922.89   925.77
eigval :      927.04   927.96   930.65   932.28   938.69   944.98
eigval :      975.15  1009.50  1023.95  1067.52  1076.59  1081.92
eigval :     1085.49  1107.04  1112.14  1119.43  1132.52  1150.69
eigval :     1172.15  1176.59  1178.78  1180.70  1183.44  1185.23
eigval :     1197.93  1208.27  1252.48  1256.16  1271.28  1278.52
eigval :     1282.81  1300.45  1310.62  1319.78  1329.70  1336.78
eigval :     1346.64  1372.22  1405.65  1416.25  1424.62  1430.21
eigval :     1431.50  1435.90  1455.41  1476.50  1510.45  1512.67
eigval :     1540.96  1559.51  1565.81  1580.11  1581.46  1590.85
eigval :     1592.87  1595.97  1603.35  3068.85  3072.35  3074.36
eigval :     3077.97  3078.87  3079.12  3081.84  3082.83  3087.06
eigval :     3088.83  3092.28  3095.42  3097.53  3097.64  3100.34
eigval :     3101.22  3108.85  3117.18

   temp. (K)  partition function   enthalpy   heat capacity  entropy
                                   cal/mol     cal/K/mol   cal/K/mol   J/K/mol
 298.15  VIB  0.190E+09            11987.409     80.478     72.669
         ROT  0.149E+08              888.752      2.981     35.804
         INT  0.283E+16            12876.161     83.458    108.473
         TR   0.690E+28             1481.254      4.968     43.602
         TOT                       14357.4151    88.4265   152.0747   636.2804

       T/K    H(0)-H(T)+PV         H(T)/Eh          T*S/Eh         G(T)/Eh
   ------------------------------------------------------------------------
    298.15    0.228800E-01    0.384171E+00    0.722556E-01    0.311916E+00
   ------------------------------------------------------------------------

         :::::::::::::::::::::::::::::::::::::::::::::::::::::
         ::                  THERMODYNAMIC                  ::
         :::::::::::::::::::::::::::::::::::::::::::::::::::::
         :: total free energy         -72.595916852438 Eh   ::
         ::.................................................::
         :: total energy              -72.907832488448 Eh   ::
         :: zero point energy           0.361291218236 Eh   ::
         :: G(RRHO) w/o ZPVE           -0.049375582226 Eh   ::
         :: G(RRHO) contrib.            0.311915636010 Eh   ::
         :::::::::::::::::::::::::::::::::::::::::::::::::::::

           -------------------------------------------------
          | TOTAL ENERGY              -72.907832488448 Eh   |
          | TOTAL ENTHALPY            -72.523661272817 Eh   |
          | TOTAL FREE ENERGY         -72.595916852438 Eh   |
          | GRADIENT NORM               0.000043133293 Eh/α |
          | HOMO-LUMO GAP               2.838906249135 eV   |
           -------------------------------------------------

 * finished run on 2025/09/07 at 05:31:25.602
