   * xtb version 6.7.1 (edcfbbe) compiled by 'albert@albert-system' on 2024-07-22

   ID    Z sym.   atoms
    1    6 C      1-5, 7-20, 22-29
    2    7 N      6, 21
    3    1 H      30-47

          program call               : xtb data2507/toluene/PPI/PPI_toluene_S0_finalOpt.xtbopt.xyz --gfn 2 --uhf 2 --gbsa toluene --ohess vtight --parallel 40 --molden --ceasefiles --namespace data2507/toluene/PPI/PPI_toluene_T1_preOpt
      * Solvation model:               GBSA
        Solvent                        toluene
        Solvent mass                       9.2140E+01 g/mol
          :  Hamiltonian                  GFN2-xTB          :
 * total energy  :   -72.8004148 Eh     change       -0.1053067E-08 Eh
 * total energy  :   -72.8071869 Eh     change       -0.6772093E-02 Eh
 * total energy  :   -72.8096650 Eh     change       -0.2478084E-02 Eh
 * total energy  :   -72.8100995 Eh     change       -0.4344831E-03 Eh
 * total energy  :   -72.8108178 Eh     change       -0.7183434E-03 Eh
 * total energy  :   -72.8111933 Eh     change       -0.3754586E-03 Eh
 * total energy  :   -72.8114908 Eh     change       -0.2975223E-03 Eh
 * total energy  :   -72.8117001 Eh     change       -0.2093295E-03 Eh
 * total energy  :   -72.8118453 Eh     change       -0.1451729E-03 Eh
 * total energy  :   -72.8119693 Eh     change       -0.1239804E-03 Eh
 * total energy  :   -72.8123371 Eh     change       -0.2218004E-06 Eh
 * total energy  :   -72.8123373 Eh     change       -0.1957789E-06 Eh
 * total energy  :   -72.8123375 Eh     change       -0.2429308E-06 Eh
 * total energy  :   -72.8123378 Eh     change       -0.2910428E-06 Eh
 * total energy  :   -72.8123381 Eh     change       -0.2859734E-06 Eh
 * total energy  :   -72.8123383 Eh     change       -0.2303651E-06 Eh
 * total energy  :   -72.8123385 Eh     change       -0.1492058E-06 Eh
 * total energy  :   -72.8123386 Eh     change       -0.1004991E-06 Eh
 * total energy  :   -72.8123387 Eh     change       -0.8657773E-07 Eh
   *** GEOMETRY OPTIMIZATION CONVERGED AFTER 41 ITERATIONS ***

 final structure:
================
47
 xtb: 6.7.1 (edcfbbe)
C           -5.05674627410261       -2.69137304825108       -0.10243071898189
C           -3.94942079093758       -3.46079224939318        0.26606673233624
C           -2.69851443964628       -2.90921580926285        0.29991566086333
C           -2.48816028592581       -1.53264089499755       -0.02175590753206
C           -1.17660222950077       -1.04890296014441        0.05329531696657
N           -0.11413742332369       -1.88471544655219        0.14009366576228
C            0.97087137408571       -1.14519498767032        0.05941287380334
C            2.32617413872389       -1.59037393155096        0.04165182865654
C            2.62711293063492       -2.95314294071748        0.05448313054386
C            3.94024265549589       -3.38154897359403       -0.00177200570734
C            4.95302298350139       -2.43841793864148       -0.08150689798591
C            4.66409900718051       -1.08352246679870       -0.08857657166804
C            3.34808823486846       -0.61263114997778       -0.01669956380216
C            3.01302255654778        0.80254074073060        0.01987300769654
C            3.99920432604987        1.78324465899950        0.07414373565336
C            3.70368831345907        3.13282391505898        0.14670460688612
C            2.37047450526826        3.55376749823370        0.19032332218200
C            1.36374706327218        2.63237903021581        0.13421663756573
C            1.63447835869563        1.23948830389375        0.03014856541861
C            0.64450150731188        0.26026791044136       -0.02299609139704
N           -0.73145565604201        0.30212302713001       -0.02906932574711
C           -1.56309988147783        1.43146035632818       -0.01888581107175
C           -2.40907734050276        1.66059648981264        1.06684172845072
C           -3.24104665089269        2.76394865389889        1.06880599927118
C           -3.24037758039881        3.64354107071610       -0.00319296872295
C           -2.40075435818450        3.41617521795989       -1.08411737697890
C           -1.56437326754252        2.31645422889584       -1.09841591441326
C           -3.62605703007396       -0.78016332653788       -0.43160435989633
C           -4.86987039828618       -1.35662954051353       -0.46259436412174
H           -6.04284988022081       -3.12880144889388       -0.12397735920291
H           -4.08593819188679       -4.50014759170629        0.52827551070940
H           -1.83651746182689       -3.48958373441376        0.58732133384702
H            1.80663146181341       -3.65239423737813        0.10265290595270
H            4.17243275899345       -4.43560999814607        0.00938941750652
H            5.98360063394700       -2.75807398512569       -0.13728038320432
H            5.48855765598007       -0.39228215449643       -0.15489798372728
H            5.03894784834956        1.49785853731657        0.07200172478288
H            4.50219739051503        3.85798879115252        0.18481912691516
H            2.13859037992243        4.60528288213226        0.27386439053453
H            0.33911611520278        2.95944043278936        0.19026594366203
H           -2.40522389362839        0.96775915171101        1.89548708769387
H           -3.89124755939540        2.93909864651150        1.91288786763108
H           -3.89307877535158        4.50312180063271        0.00197668225235
H           -2.40244330374755        4.09517096759513       -1.92383738473346
H           -0.91165990101437        2.12809761057314       -1.93876135145540
H           -3.50770853752573        0.23869639470441       -0.75991678810596
H           -5.71811334933003       -0.76734913175472       -0.78145265405754

          :  Hamiltonian                  GFN2-xTB          :
         :: gradient norm              0.000044446489 Eh/a0 ::
         :: HOMO-LUMO gap              0.536600121556 eV    ::
         :: SCC energy               -74.164572927073 Eh    ::
         :: -> dispersion             -0.064246478651 Eh    ::
         :: -> Gsolv                  -0.030379994748 Eh    ::
         :: repulsion energy           1.352234243995 Eh    ::

    * Orbital Energies and Occupations

         #    Occupation            Energy/Eh            Energy/eV
      -------------------------------------------------------------
         1        2.0000           -0.6877566             -18.7148
       ...           ...                  ...                  ...
        57        2.0000           -0.4290907             -11.6762
        58        2.0000           -0.4245008             -11.5513
        59        2.0000           -0.4211638             -11.4604
        60        2.0000           -0.4206699             -11.4470
        61        2.0000           -0.4151491             -11.2968
        62        2.0000           -0.4112463             -11.1906
        63        2.0000           -0.4060542             -11.0493
        64        2.0000           -0.4022575             -10.9460
        65        2.0000           -0.3999070             -10.8820
        66        2.0000           -0.3872004             -10.5363
        67        2.0000           -0.3837311             -10.4419
        68        1.0000           -0.3621573              -9.8548
        69        1.0000           -0.2758013              -7.5049 (HOMO)
        70        0.0000           -0.2560815              -6.9683 (LUMO)
        71                         -0.2497018              -6.7947
        72                         -0.2352117              -6.4004
        73                         -0.2347444              -6.3877
        74                         -0.2188416              -5.9550
        75                         -0.2130636              -5.7978
        76                         -0.1951795              -5.3111
        77                         -0.1722150              -4.6862
        78                         -0.1508655              -4.1053
        79                         -0.1078458              -2.9346
        80                         -0.1062536              -2.8913
       ...                                ...                  ...
       134                          0.7255594              19.7435
      -------------------------------------------------------------
                  HL-Gap            0.0197198 Eh            0.5366 eV

     #   Z          covCN         q      C6AA      α(0)
     1   6 C        2.917    -0.035    28.867     8.811
     2   6 C        2.911    -0.030    28.737     8.790
     3   6 C        2.926    -0.033    28.823     8.804
     4   6 C        2.967    -0.007    28.200     8.710
     5   6 C        3.124     0.127    25.050     8.196
     6   7 N        1.875    -0.307    28.808     7.956
     7   6 C        3.155     0.090    25.730     8.295
     8   6 C        2.982    -0.006    28.161     8.705
     9   6 C        2.923    -0.026    28.650     8.778
    10   6 C        2.915    -0.033    28.812     8.802
    11   6 C        2.917    -0.025    28.629     8.774
    12   6 C        2.922    -0.036    28.894     8.815
    13   6 C        2.976     0.002    27.978     8.676
    14   6 C        2.975    -0.004    28.122     8.699
    15   6 C        2.918    -0.032    28.788     8.799
    16   6 C        2.915    -0.034    28.843     8.807
    17   6 C        2.912    -0.032    28.807     8.801
    18   6 C        2.916    -0.037    28.914     8.818
    19   6 C        2.970    -0.017    28.420     8.745
    20   6 C        3.020     0.043    27.015     8.526
    21   7 N        2.804    -0.077    22.725     7.080
    22   6 C        2.909     0.064    26.567     8.452
    23   6 C        2.920    -0.041    29.008     8.832
    24   6 C        2.919    -0.027    28.681     8.782
    25   6 C        2.919    -0.034    28.850     8.808
    26   6 C        2.919    -0.029    28.716     8.787
    27   6 C        2.920    -0.041    29.028     8.835
    28   6 C        2.914    -0.043    29.056     8.839
    29   6 C        2.912    -0.029    28.728     8.789
    30   1 H        0.926     0.034     2.528     2.486
    31   1 H        0.926     0.035     2.512     2.478
    32   1 H        0.926     0.048     2.340     2.392
    33   1 H        0.926     0.050     2.321     2.382
    34   1 H        0.926     0.040     2.450     2.448
    35   1 H        0.926     0.041     2.434     2.440
    36   1 H        0.926     0.041     2.431     2.438
    37   1 H        0.926     0.040     2.449     2.447
    38   1 H        0.926     0.035     2.514     2.479
    39   1 H        0.926     0.033     2.543     2.494
    40   1 H        0.926     0.033     2.538     2.491
    41   1 H        0.926     0.034     2.532     2.488
    42   1 H        0.926     0.042     2.426     2.436
    43   1 H        0.926     0.041     2.432     2.439
    44   1 H        0.926     0.042     2.425     2.435
    45   1 H        0.926     0.037     2.491     2.468
    46   1 H        0.926     0.028     2.620     2.531
    47   1 H        0.926     0.032     2.554     2.499

molecular dipole:
                 x           y           z       tot (Debye)
 q only:        0.152       0.625      -0.033
   full:        0.161       1.005      -0.056       2.591

 projected vibrational frequencies (cm⁻¹)
eigval :       -0.00    -0.00    -0.00     0.00     0.00     0.00
eigval :       18.79    19.20    38.09    53.04    66.61    67.60
eigval :       81.39    99.40   124.91   153.08   180.85   211.36
eigval :      216.70   236.44   248.65   256.37   286.98   309.13
eigval :      356.21   368.99   378.84   389.03   392.41   404.50
eigval :      416.83   432.94   451.48   475.89   486.34   510.94
eigval :      516.71   571.63   577.17   579.49   590.88   619.22
eigval :      624.86   634.77   644.88   655.22   659.45   666.02
eigval :      690.97   715.98   721.20   722.74   742.10   753.90
eigval :      765.85   788.43   813.52   840.28   852.33   854.14
eigval :      865.02   888.41   890.44   903.45   906.28   908.45
eigval :      911.51   917.57   918.12   920.96   925.08   925.14
eigval :      943.35   976.84   983.62  1036.25  1058.84  1073.53
eigval :     1074.85  1083.51  1097.07  1113.13  1115.13  1128.24
eigval :     1146.83  1165.17  1168.72  1173.87  1175.01  1178.81
eigval :     1181.55  1184.52  1199.08  1239.35  1243.88  1263.11
eigval :     1266.15  1271.20  1288.46  1312.92  1321.01  1332.30
eigval :     1341.63  1344.51  1366.40  1384.64  1391.42  1401.23
eigval :     1415.18  1428.11  1430.70  1437.50  1467.58  1486.95
eigval :     1489.75  1497.01  1535.74  1547.46  1553.74  1555.63
eigval :     1560.26  1567.10  1584.80  3068.66  3071.08  3075.20
eigval :     3076.49  3076.99  3078.84  3085.22  3087.50  3088.73
eigval :     3089.04  3092.14  3098.92  3100.37  3103.11  3109.55
eigval :     3110.17  3123.85  3128.88

   temp. (K)  partition function   enthalpy   heat capacity  entropy
                                   cal/mol     cal/K/mol   cal/K/mol   J/K/mol
 298.15  VIB  0.647E+09            12379.493     82.575     75.166
         ROT  0.151E+08              888.752      2.981     35.837
         INT  0.979E+16            13268.245     85.556    111.003
         TR   0.690E+28             1481.254      4.968     43.602
         TOT                       14749.4990    90.5237   154.6045   646.8652

       T/K    H(0)-H(T)+PV         H(T)/Eh          T*S/Eh         G(T)/Eh
   ------------------------------------------------------------------------
    298.15    0.235048E-01    0.379955E+00    0.734576E-01    0.306497E+00
   ------------------------------------------------------------------------

         :::::::::::::::::::::::::::::::::::::::::::::::::::::
         ::                  THERMODYNAMIC                  ::
         :::::::::::::::::::::::::::::::::::::::::::::::::::::
         :: total free energy         -72.505841358579 Eh   ::
         ::.................................................::
         :: total energy              -72.812338683584 Eh   ::
         :: zero point energy           0.356450089838 Eh   ::
         :: G(RRHO) w/o ZPVE           -0.049952764834 Eh   ::
         :: G(RRHO) contrib.            0.306497325004 Eh   ::
         :::::::::::::::::::::::::::::::::::::::::::::::::::::

           -------------------------------------------------
          | TOTAL ENERGY              -72.812338683584 Eh   |
          | TOTAL ENTHALPY            -72.432383770937 Eh   |
          | TOTAL FREE ENERGY         -72.505841358579 Eh   |
          | GRADIENT NORM               0.000044551301 Eh/α |
          | HOMO-LUMO GAP               0.536604001359 eV   |
           -------------------------------------------------

 * finished run on 2025/09/07 at 05:31:28.275
