   * xtb version 6.7.1 (edcfbbe) compiled by 'albert@albert-system' on 2024-07-22

   ID    Z sym.   atoms
    1    7 N      1, 21
    2    6 C      2-20, 22-35, 37-45
    3    8 O      36
    4    1 H      46-69

          program call               : xtb data2507/toluene/m-PO-ABN/m-PO-ABN_toluene_T1_crest.xyz --gfn 2 --uhf 2 --gbsa toluene --ohess vtight --parallel 40 --molden --ceasefiles --namespace data2507/toluene/m-PO-ABN/m-PO-ABN_toluene_T1_finalOpt
      * Solvation model:               GBSA
        Solvent                        toluene
        Solvent mass                       9.2140E+01 g/mol
          :  Hamiltonian                  GFN2-xTB          :
 * total energy  :  -112.0764385 Eh     change       -0.2327340E-08 Eh
 * total energy  :  -112.0764733 Eh     change       -0.3488537E-04 Eh
 * total energy  :  -112.0764826 Eh     change       -0.9275892E-05 Eh
 * total energy  :  -112.0764864 Eh     change       -0.3780922E-05 Eh
 * total energy  :  -112.0764890 Eh     change       -0.2577425E-05 Eh
 * total energy  :  -112.0764914 Eh     change       -0.2395101E-05 Eh
 * total energy  :  -112.0764938 Eh     change       -0.2467642E-05 Eh
 * total energy  :  -112.0764970 Eh     change       -0.3154434E-05 Eh
 * total energy  :  -112.0764991 Eh     change       -0.2127093E-05 Eh
 * total energy  :  -112.0765014 Eh     change       -0.2319004E-05 Eh
 * total energy  :  -112.0765245 Eh     change       -0.1883776E-06 Eh
 * total energy  :  -112.0765247 Eh     change       -0.1769921E-06 Eh
 * total energy  :  -112.0765248 Eh     change       -0.1688874E-06 Eh
 * total energy  :  -112.0765250 Eh     change       -0.1804640E-06 Eh
 * total energy  :  -112.0765252 Eh     change       -0.2097338E-06 Eh
 * total energy  :  -112.0765255 Eh     change       -0.2573277E-06 Eh
 * total energy  :  -112.0765257 Eh     change       -0.2289674E-06 Eh
 * total energy  :  -112.0765258 Eh     change       -0.1032765E-06 Eh
 * total energy  :  -112.0765259 Eh     change       -0.5674464E-07 Eh
   *** GEOMETRY OPTIMIZATION CONVERGED AFTER 37 ITERATIONS ***

 final structure:
================
69
 xtb: 6.7.1 (edcfbbe)
N          -10.49660567256844       -2.82851368197590        0.62821953824268
C           -9.46230821530971       -2.33818062070981        0.50818391452047
C           -8.19990682012233       -1.73890533204977        0.36233876683294
C           -7.66974864002563       -1.50716850028785       -0.91460795196310
C           -6.43074288667901       -0.92895068579335       -1.05142156482960
C           -5.68074593993343       -0.53766306590963        0.07150664814580
C           -4.38118457250471        0.08873944516263       -0.08180194876196
C           -4.10069077976066        1.32971672041585        0.57608703062548
C           -5.07993333399473        2.02331120791735        1.29301937003780
C           -4.78094749641022        3.18646213685990        1.99924692352611
C           -3.49046546561859        3.67353755663477        2.00238601926798
C           -2.51225564552040        3.04394380905003        1.23812224971161
C           -2.80171598249360        1.91203258042780        0.46750030230382
C           -1.83242972606400        1.33089055550814       -0.40390353788506
C           -0.53142762153284        1.97455256699671       -0.57836280329378
C           -0.44081522709717        3.30940830214565       -0.99121316422980
C            0.79052255960721        3.91519089668715       -1.16544160711177
C            1.95813588326282        3.21429364859690       -0.92847022032616
C            1.88765494145917        1.88170683144583       -0.51376309262589
C            3.10691526659925        1.14392047903260       -0.26985459736703
N            4.31851934308021        1.61102406128160       -0.37607417876436
C            5.13635108927941        0.56008726549979       -0.06652556516725
C            6.55707704371230        0.48032511362358       -0.01785518762041
C            7.36356735072162        1.58580151526763       -0.30732233305161
C            8.73168576292854        1.47986061559468       -0.25248054138217
C            9.31024447636750        0.26011705562126        0.09349024545470
C            8.52726866721643       -0.83415207058364        0.38008106520076
C            7.12562661163028       -0.76855320917617        0.33605123314622
C            6.28132307830439       -1.91372837841279        0.63552599862721
C            6.80138680686541       -3.16847213167266        0.98729298569800
C            5.98301129522184       -4.23914085915521        1.26581319015355
C            4.59619462596324       -4.11210195119306        1.20672668499114
C            4.04367999442247       -2.90247957576274        0.86698571593796
C            4.86708043642550       -1.80546160385308        0.58139362187359
C            4.34554526943912       -0.53907762069824        0.22377604713798
O            3.04948786912037       -0.16521652191336        0.09413004465219
C            0.64937490687308        1.27023241299043       -0.34395127815885
C           -2.13094568849941        0.12785129439541       -1.11097620003799
C           -1.23458383670233       -0.42833593448831       -2.03093033466483
C           -1.48105696496030       -1.65755645386812       -2.63568450618632
C           -2.62762290806236       -2.35761014594515       -2.32272821797989
C           -3.56778949957950       -1.79536258061553       -1.46194719717236
C           -3.37918878519973       -0.53115878102093       -0.89623945495097
C           -6.23021205908552       -0.76867496123739        1.34470273865093
C           -7.45863325919878       -1.36681021603792        1.49254179096733
H           -8.24678874341824       -1.78243328755751       -1.78577932565087
H           -6.04090387148482       -0.72821643055163       -2.03844371006676
H           -6.09582152387296        1.65989285340247        1.29661379780468
H           -5.56107268061483        3.69056478172685        2.54966735170506
H           -3.23529536999750        4.55053348712419        2.57821578100445
H           -1.50792390313988        3.43830911945439        1.24327974825053
H           -1.34758068529960        3.85655373560738       -1.20272649299899
H            0.83917364600733        4.94301376657691       -1.49298386080277
H            2.92714026814675        3.66821820707630       -1.05777784207813
H            6.87766509558922        2.51279998865298       -0.57132501393133
H            9.35652393180813        2.33188349106918       -0.47524020771110
H           10.38606566159855        0.17221197842160        0.13764090788857
H            9.01728179166794       -1.75754694984639        0.64339981058866
H            7.86789082015915       -3.31301242670910        1.04472776088549
H            6.42049640493905       -5.18983742155402        1.53317599342861
H            3.96399062783437       -4.95921746900253        1.42708064400126
H            2.97267475587039       -2.77191913447053        0.81245376693459
H            0.60471793736762        0.24768444626240        0.00105483653122
H           -0.33130302705043        0.10637679085310       -2.28111521121925
H           -0.76313140042539       -2.06190841836066       -3.33373933335378
H           -2.81080668596806       -3.33251888905228       -2.74904528293259
H           -4.45730064043013       -2.35813233249145       -1.22470309166052
H           -5.65323905146714       -0.51028489439769        2.22041350662458
H           -7.86118461419358       -1.55936006343180        2.47673524678107

          :  Hamiltonian                  GFN2-xTB          :
         :: gradient norm              0.000030552774 Eh/a0 ::
         :: HOMO-LUMO gap              0.595578625303 eV    ::
         :: SCC energy              -114.177642122351 Eh    ::
         :: -> dispersion             -0.097262965484 Eh    ::
         :: -> Gsolv                  -0.051994533468 Eh    ::
         :: repulsion energy           2.101116260738 Eh    ::

    * Orbital Energies and Occupations

         #    Occupation            Energy/Eh            Energy/eV
      -------------------------------------------------------------
         1        2.0000           -0.7566147             -20.5885
       ...           ...                  ...                  ...
        93        2.0000           -0.4208640             -11.4523
        94        2.0000           -0.4200486             -11.4301
        95        2.0000           -0.4161995             -11.3254
        96        2.0000           -0.4137903             -11.2598
        97        2.0000           -0.4108992             -11.1811
        98        2.0000           -0.4097170             -11.1490
        99        2.0000           -0.4063800             -11.0582
       100        2.0000           -0.4061563             -11.0521
       101        2.0000           -0.4012137             -10.9176
       102        2.0000           -0.3931736             -10.6988
       103        1.9999           -0.3783024             -10.2941
       104        1.0001           -0.3601595              -9.8004
       105        1.0000           -0.3005828              -8.1793 (HOMO)
       106        0.0000           -0.2786957              -7.5837 (LUMO)
       107                         -0.2682820              -7.3003
       108                         -0.2598618              -7.0712
       109                         -0.2528929              -6.8816
       110                         -0.2379866              -6.4759
       111                         -0.2373369              -6.4583
       112                         -0.2358092              -6.4167
       113                         -0.2313580              -6.2956
       114                         -0.2178166              -5.9271
       115                         -0.2075812              -5.6486
       116                         -0.1987567              -5.4084
       ...                                ...                  ...
       204                          1.1604824              31.5783
      -------------------------------------------------------------
                  HL-Gap            0.0218871 Eh            0.5956 eV

     #   Z          covCN         q      C6AA      α(0)
     1   7 N        0.911    -0.295    27.600     7.598
     2   6 C        1.911     0.113    28.302     8.592
     3   6 C        2.972     0.007    27.866     8.659
     4   6 C        2.921    -0.022    28.556     8.763
     5   6 C        2.921    -0.030    28.742     8.792
     6   6 C        2.972     0.021    27.539     8.608
     7   6 C        2.971    -0.004    28.109     8.696
     8   6 C        2.976     0.010    27.778     8.645
     9   6 C        2.921    -0.033    28.829     8.805
    10   6 C        2.914    -0.029    28.721     8.788
    11   6 C        2.913    -0.027    28.678     8.781
    12   6 C        2.921    -0.034    28.849     8.808
    13   6 C        2.977     0.011    27.756     8.642
    14   6 C        2.973    -0.006    28.171     8.706
    15   6 C        2.972     0.020    27.566     8.612
    16   6 C        2.923    -0.029    28.715     8.788
    17   6 C        2.915    -0.026    28.640     8.776
    18   6 C        2.924    -0.031    28.763     8.795
    19   6 C        2.972    -0.007    28.187     8.709
    20   6 C        3.225     0.217    22.788     7.756
    21   7 N        1.882    -0.316    29.038     7.988
    22   6 C        3.163     0.056    26.421     8.402
    23   6 C        2.985    -0.003    28.095     8.695
    24   6 C        2.920    -0.030    28.754     8.793
    25   6 C        2.917    -0.029    28.721     8.788
    26   6 C        2.917    -0.030    28.757     8.794
    27   6 C        2.921    -0.033    28.834     8.806
    28   6 C        2.978    -0.002    28.069     8.690
    29   6 C        2.980     0.001    27.994     8.679
    30   6 C        2.921    -0.032    28.804     8.801
    31   6 C        2.917    -0.030    28.743     8.792
    32   6 C        2.917    -0.029    28.720     8.788
    33   6 C        2.919    -0.031    28.783     8.798
    34   6 C        2.982    -0.009    28.247     8.718
    35   6 C        3.111     0.103    25.571     8.284
    36   8 O        1.724    -0.231    17.821     5.700
    37   6 C        2.928    -0.031    28.774     8.797
    38   6 C        2.977     0.011    27.759     8.642
    39   6 C        2.921    -0.034    28.847     8.808
    40   6 C        2.913    -0.027    28.687     8.783
    41   6 C        2.914    -0.029    28.730     8.789
    42   6 C        2.921    -0.034    28.838     8.806
    43   6 C        2.977     0.010    27.779     8.645
    44   6 C        2.921    -0.030    28.745     8.792
    45   6 C        2.921    -0.022    28.556     8.763
    46   1 H        0.926     0.038     2.481     2.463
    47   1 H        0.926     0.045     2.380     2.412
    48   1 H        0.926     0.040     2.443     2.444
    49   1 H        0.926     0.037     2.483     2.464
    50   1 H        0.926     0.038     2.472     2.459
    51   1 H        0.926     0.041     2.437     2.441
    52   1 H        0.926     0.049     2.334     2.389
    53   1 H        0.926     0.049     2.329     2.386
    54   1 H        0.926     0.054     2.272     2.357
    55   1 H        0.926     0.047     2.354     2.399
    56   1 H        0.926     0.040     2.453     2.449
    57   1 H        0.926     0.040     2.453     2.449
    58   1 H        0.926     0.043     2.412     2.429
    59   1 H        0.926     0.045     2.378     2.411
    60   1 H        0.926     0.041     2.433     2.439
    61   1 H        0.926     0.040     2.453     2.449
    62   1 H        0.926     0.038     2.472     2.459
    63   1 H        0.926     0.045     2.381     2.413
    64   1 H        0.926     0.037     2.488     2.467
    65   1 H        0.926     0.035     2.510     2.477
    66   1 H        0.926     0.037     2.493     2.469
    67   1 H        0.926     0.040     2.447     2.446
    68   1 H        0.926     0.045     2.380     2.413
    69   1 H        0.926     0.038     2.482     2.464

molecular dipole:
                 x           y           z       tot (Debye)
 q only:        2.139       0.960      -0.200
   full:        2.360       0.784      -0.155       6.334

 projected vibrational frequencies (cm⁻¹)
eigval :       -0.00    -0.00    -0.00    -0.00     0.00     0.00
eigval :      -11.37     9.39    12.70    24.17    31.60    36.86
eigval :       56.35    62.49    66.03    77.63    82.27    87.51
eigval :      116.82   117.89   125.45   134.62   141.42   175.65
eigval :      179.58   191.02   206.90   218.54   226.55   239.07
eigval :      248.50   251.88   272.64   278.51   286.49   338.45
eigval :      351.90   360.12   370.12   387.76   392.40   394.00
eigval :      398.65   400.95   417.42   418.73   427.59   437.25
eigval :      438.74   449.51   467.54   471.73   502.14   512.28
eigval :      527.12   533.24   535.25   540.09   571.14   582.18
eigval :      582.92   589.73   599.58   602.95   608.07   621.85
eigval :      639.72   655.76   661.82   665.49   667.55   674.85
eigval :      680.19   684.60   693.80   702.80   719.97   736.26
eigval :      739.35   746.98   760.75   765.37   770.35   782.18
eigval :      786.00   796.63   815.94   845.15   847.85   863.89
eigval :      866.34   874.27   881.10   891.98   892.74   899.07
eigval :      904.45   907.86   908.35   909.08   913.65   914.66
eigval :      920.58   924.84   925.67   926.94   928.20   934.28
eigval :      939.99   944.56   981.29   993.80  1009.86  1017.39
eigval :     1051.60  1080.49  1086.59  1098.29  1100.92  1102.85
eigval :     1113.86  1118.64  1128.17  1134.06  1139.94  1154.66
eigval :     1176.14  1178.17  1179.46  1179.89  1180.72  1181.82
eigval :     1186.24  1194.93  1207.41  1228.72  1241.82  1246.96
eigval :     1250.96  1252.43  1254.17  1262.41  1276.16  1278.29
eigval :     1279.90  1300.67  1305.52  1308.76  1309.98  1319.87
eigval :     1337.01  1341.14  1342.00  1357.20  1366.40  1375.60
eigval :     1398.91  1401.92  1406.20  1407.01  1409.29  1417.42
eigval :     1428.18  1432.27  1450.62  1457.60  1476.03  1488.02
eigval :     1498.38  1513.41  1515.38  1521.87  1526.27  1545.37
eigval :     1546.46  1548.60  1558.19  1563.22  1568.66  1574.97
eigval :     1592.67  1603.50  2324.98  3075.37  3075.89  3076.60
eigval :     3077.47  3077.80  3079.15  3080.86  3081.03  3084.91
eigval :     3085.91  3086.90  3088.22  3088.98  3090.30  3091.73
eigval :     3092.07  3096.56  3096.96  3098.44  3099.79  3101.08
eigval :     3102.95  3112.38  3116.76

   temp. (K)  partition function   enthalpy   heat capacity  entropy
                                   cal/mol     cal/K/mol   cal/K/mol   J/K/mol
 298.15  VIB  0.362E+16            20005.147    128.125    124.089
         ROT  0.799E+08              888.752      2.981     39.143
         INT  0.289E+24            20893.899    131.106    163.232
         TR   0.133E+29             1481.254      4.968     44.899
         TOT                       22375.1529   136.0739   208.1313   870.8213

       T/K    H(0)-H(T)+PV         H(T)/Eh          T*S/Eh         G(T)/Eh
   ------------------------------------------------------------------------
    298.15    0.356571E-01    0.548837E+00    0.988899E-01    0.449947E+00
   ------------------------------------------------------------------------

         :::::::::::::::::::::::::::::::::::::::::::::::::::::
         ::                  THERMODYNAMIC                  ::
         :::::::::::::::::::::::::::::::::::::::::::::::::::::
         :: total free energy        -111.626579011613 Eh   ::
         ::.................................................::
         :: total energy             -112.076525863088 Eh   ::
         :: zero point energy           0.513179663054 Eh   ::
         :: G(RRHO) w/o ZPVE           -0.063232811579 Eh   ::
         :: G(RRHO) contrib.            0.449946851475 Eh   ::
         :::::::::::::::::::::::::::::::::::::::::::::::::::::

           -------------------------------------------------
          | TOTAL ENERGY             -112.076525863088 Eh   |
          | TOTAL ENTHALPY           -111.527689124216 Eh   |
          | TOTAL FREE ENERGY        -111.626579011613 Eh   |
          | GRADIENT NORM               0.000030545609 Eh/α |
          | HOMO-LUMO GAP               0.595577690824 eV   |
           -------------------------------------------------

 * finished run on 2025/09/02 at 19:12:44.350
