   * xtb version 6.7.1 (edcfbbe) compiled by 'albert@albert-system' on 2024-07-22

   ID    Z sym.   atoms
    1    7 N      1, 21
    2    6 C      2-20, 22-35, 37-45
    3    8 O      36
    4    1 H      46-69

          program call               : xtb data2507/toluene/m-PO-ABN/m-PO-ABN_toluene_S0_finalOpt.xtbopt.xyz --gfn 2 --uhf 2 --gbsa toluene --ohess vtight --parallel 40 --molden --ceasefiles --namespace data2507/toluene/m-PO-ABN/m-PO-ABN_toluene_T1_preOpt
      * Solvation model:               GBSA
        Solvent                        toluene
        Solvent mass                       9.2140E+01 g/mol
          :  Hamiltonian                  GFN2-xTB          :
 * total energy  :  -112.0665069 Eh     change       -0.1441265E-08 Eh
 * total energy  :  -112.0723584 Eh     change       -0.5851454E-02 Eh
 * total energy  :  -112.0737964 Eh     change       -0.1437992E-02 Eh
 * total energy  :  -112.0739784 Eh     change       -0.1820115E-03 Eh
 * total energy  :  -112.0742232 Eh     change       -0.2448441E-03 Eh
 * total energy  :  -112.0744041 Eh     change       -0.1809178E-03 Eh
 * total energy  :  -112.0745932 Eh     change       -0.1890355E-03 Eh
 * total energy  :  -112.0748321 Eh     change       -0.2389377E-03 Eh
 * total energy  :  -112.0750590 Eh     change       -0.2269204E-03 Eh
 * total energy  :  -112.0752338 Eh     change       -0.1747526E-03 Eh
 * total energy  :  -112.0763740 Eh     change       -0.1111551E-05 Eh
 * total energy  :  -112.0763751 Eh     change       -0.1085330E-05 Eh
 * total energy  :  -112.0763761 Eh     change       -0.1028667E-05 Eh
 * total energy  :  -112.0763771 Eh     change       -0.1006535E-05 Eh
 * total energy  :  -112.0763782 Eh     change       -0.1065258E-05 Eh
 * total energy  :  -112.0763795 Eh     change       -0.1306233E-05 Eh
 * total energy  :  -112.0763813 Eh     change       -0.1754033E-05 Eh
 * total energy  :  -112.0763834 Eh     change       -0.2159373E-05 Eh
 * total energy  :  -112.0763834 Eh     change       -0.6850868E-08 Eh
   *** GEOMETRY OPTIMIZATION CONVERGED AFTER 68 ITERATIONS ***

 final structure:
================
69
 xtb: 6.7.1 (edcfbbe)
N          -10.47919748703294       -2.84417254895776        0.44332259827270
C           -9.44854011442275       -2.33926937457027        0.35745010759296
C           -8.18988614864875       -1.72338004171077        0.25415541360259
C           -7.74077740914400       -1.23266170601788       -0.97979289190156
C           -6.50396819622314       -0.64140900556611       -1.07692912339240
C           -5.67711705626002       -0.49278904993230        0.05007267130364
C           -4.37832927497784        0.14574178439963       -0.05519857144355
C           -4.03921315644754        1.22764124784292        0.82018722667112
C           -4.96318706151451        1.76731049019716        1.71933868940952
C           -4.60571205615874        2.76759101955607        2.62134043734643
C           -3.31245206688210        3.24654842750729        2.63697075074807
C           -2.38995060431530        2.77644483434826        1.70653073345397
C           -2.73901015695171        1.81319751051294        0.75294563393864
C           -1.82531361931339        1.40010598664807       -0.26132154275313
C           -0.51669499230033        2.04697836839966       -0.36624133660117
C           -0.41237466460572        3.42902155373276       -0.55897347598994
C            0.82608573780993        4.03780370824245       -0.65939802166120
C            1.98550866895472        3.29211842588931       -0.55778711244235
C            1.89994445804653        1.91190918161592       -0.35712965808810
C            3.11073576523558        1.13298033475316       -0.22483271612305
N            4.32734359439428        1.59707338200452       -0.26796087681717
C            5.13315041473887        0.50879961563605       -0.07939845261678
C            6.55231832431034        0.41150981371446       -0.01853583335270
C            7.37142324130820        1.53466828656095       -0.17299324762442
C            8.73745349065784        1.41227181177645       -0.10251316624488
C            9.30124613413796        0.15835467725537        0.12542725569447
C            8.50582044442522       -0.95374119476486        0.27768058476563
C            7.10592334715814       -0.87258340891570        0.21126289448163
C            6.24861216738189       -2.03626768448663        0.36930490319033
C            6.75354741437596       -3.32483373584378        0.59968897443311
C            5.92303845258552       -4.41193710614245        0.74826923200478
C            4.53862045921004       -4.26845053941996        0.67278850474175
C            4.00070862997551       -3.02577546055973        0.44861145860232
C            4.83656074514360       -1.91144332527498        0.29808603053359
C            4.32999521763101       -0.60896664900314        0.07346688797272
O            3.03851096891131       -0.20972570977897       -0.02135662597471
C            0.65442405930915        1.29698744272593       -0.27181141862635
C           -2.17953963423001        0.35989889022580       -1.17039756752897
C           -1.33031682501112       -0.02389121633370       -2.21479763072994
C           -1.63371476264421       -1.10309200850559       -3.04006626549607
C           -2.78962420007717       -1.82467802543611       -2.82688602800763
C           -3.68029053974784       -1.42768554385120       -1.83144270236768
C           -3.43389460343656       -0.30798131627187       -1.03205194013935
C           -6.14632405623965       -0.98024725439657        1.28212079657648
C           -7.37143830905448       -1.59427219219704        1.38501886113950
H           -8.37795057173728       -1.31985685230964       -1.84821235634287
H           -6.17533750924285       -0.24186089604287       -2.02500616623503
H           -5.98168260706903        1.41127923853484        1.71540322336715
H           -5.34369305504898        3.15287272932560        3.30879363193989
H           -3.01233883654658        3.99594408361854        3.35398818222545
H           -1.38253120544227        3.16269598173029        1.72423067171866
H           -1.31400026050595        4.01598252456650       -0.65377962080461
H            0.88586005291622        5.10404318199413       -0.81943677228011
H            2.96013865674733        3.74774422251933       -0.62563982392796
H            6.89680036558192        2.48843142246020       -0.34657025289257
H            9.37187239788633        2.27797333787578       -0.22121014735429
H           10.37528892609014        0.05767963252161        0.18308519548172
H            8.98472463357240       -1.90369644926549        0.45174859405651
H            7.81765369271861       -3.48312599452036        0.66470333224663
H            6.34914228113132       -5.38846170370229        0.92573019600621
H            3.89691832260177       -5.12886054709595        0.79024277084937
H            2.93197518939850       -2.88149950289531        0.38539414348583
H            0.59710657253828        0.23244785883178       -0.09823781819797
H           -0.41892556778571        0.52781968451193       -2.38665194177049
H           -0.95254018291667       -1.37714029566950       -3.83200403093642
H           -3.01805423004053       -2.68945649484011       -3.43168008706384
H           -4.57545165792951       -2.00900485023553       -1.67364749302804
H           -5.50975310053414       -0.90857144758143        2.15175081434099
H           -7.71203199278957       -1.98609097599241        2.33273524287354

          :  Hamiltonian                  GFN2-xTB          :
         :: gradient norm              0.000064135263 Eh/a0 ::
         :: HOMO-LUMO gap              0.586600867351 eV    ::
         :: SCC energy              -114.177754539314 Eh    ::
         :: -> dispersion             -0.097153853235 Eh    ::
         :: -> Gsolv                  -0.051941457517 Eh    ::
         :: repulsion energy           2.101371106631 Eh    ::

    * Orbital Energies and Occupations

         #    Occupation            Energy/Eh            Energy/eV
      -------------------------------------------------------------
         1        2.0000           -0.7566380             -20.5892
       ...           ...                  ...                  ...
        93        2.0000           -0.4209341             -11.4542
        94        2.0000           -0.4200657             -11.4306
        95        2.0000           -0.4159449             -11.3184
        96        2.0000           -0.4137983             -11.2600
        97        2.0000           -0.4109079             -11.1814
        98        2.0000           -0.4098277             -11.1520
        99        2.0000           -0.4065294             -11.0622
       100        2.0000           -0.4064142             -11.0591
       101        2.0000           -0.4012499             -10.9186
       102        2.0000           -0.3931900             -10.6992
       103        1.9999           -0.3783260             -10.2948
       104        1.0001           -0.3603209              -9.8048
       105        1.0000           -0.3003336              -8.1725 (HOMO)
       106        0.0000           -0.2787765              -7.5859 (LUMO)
       107                         -0.2683763              -7.3029
       108                         -0.2598734              -7.0715
       109                         -0.2529221              -6.8824
       110                         -0.2379813              -6.4758
       111                         -0.2372127              -6.4549
       112                         -0.2357348              -6.4147
       113                         -0.2314030              -6.2968
       114                         -0.2178271              -5.9274
       115                         -0.2076330              -5.6500
       116                         -0.1987589              -5.4085
       ...                                ...                  ...
       204                          1.1604560              31.5776
      -------------------------------------------------------------
                  HL-Gap            0.0215571 Eh            0.5866 eV

     #   Z          covCN         q      C6AA      α(0)
     1   7 N        0.911    -0.295    27.596     7.598
     2   6 C        1.911     0.114    28.301     8.592
     3   6 C        2.972     0.007    27.865     8.659
     4   6 C        2.921    -0.022    28.554     8.763
     5   6 C        2.921    -0.030    28.742     8.792
     6   6 C        2.972     0.021    27.536     8.608
     7   6 C        2.971    -0.004    28.108     8.696
     8   6 C        2.976     0.010    27.778     8.645
     9   6 C        2.921    -0.033    28.829     8.805
    10   6 C        2.914    -0.029    28.721     8.788
    11   6 C        2.913    -0.027    28.677     8.781
    12   6 C        2.921    -0.034    28.850     8.808
    13   6 C        2.977     0.011    27.756     8.642
    14   6 C        2.973    -0.006    28.170     8.706
    15   6 C        2.972     0.020    27.561     8.611
    16   6 C        2.923    -0.028    28.712     8.787
    17   6 C        2.916    -0.025    28.637     8.775
    18   6 C        2.924    -0.031    28.762     8.795
    19   6 C        2.972    -0.007    28.185     8.708
    20   6 C        3.225     0.217    22.787     7.756
    21   7 N        1.882    -0.316    29.036     7.988
    22   6 C        3.163     0.056    26.422     8.402
    23   6 C        2.985    -0.003    28.095     8.695
    24   6 C        2.920    -0.030    28.754     8.793
    25   6 C        2.917    -0.029    28.721     8.788
    26   6 C        2.917    -0.030    28.757     8.794
    27   6 C        2.921    -0.033    28.833     8.806
    28   6 C        2.978    -0.002    28.069     8.690
    29   6 C        2.980     0.001    27.994     8.679
    30   6 C        2.921    -0.032    28.804     8.801
    31   6 C        2.917    -0.030    28.743     8.792
    32   6 C        2.917    -0.029    28.719     8.788
    33   6 C        2.919    -0.031    28.783     8.798
    34   6 C        2.983    -0.009    28.247     8.718
    35   6 C        3.111     0.103    25.570     8.284
    36   8 O        1.724    -0.231    17.821     5.700
    37   6 C        2.928    -0.031    28.772     8.797
    38   6 C        2.977     0.011    27.759     8.642
    39   6 C        2.921    -0.034    28.846     8.807
    40   6 C        2.913    -0.027    28.686     8.783
    41   6 C        2.914    -0.029    28.729     8.789
    42   6 C        2.921    -0.034    28.841     8.807
    43   6 C        2.976     0.010    27.779     8.645
    44   6 C        2.921    -0.030    28.743     8.792
    45   6 C        2.922    -0.022    28.555     8.763
    46   1 H        0.926     0.038     2.480     2.462
    47   1 H        0.926     0.045     2.377     2.411
    48   1 H        0.926     0.040     2.445     2.445
    49   1 H        0.926     0.037     2.484     2.464
    50   1 H        0.926     0.038     2.474     2.460
    51   1 H        0.926     0.040     2.446     2.446
    52   1 H        0.926     0.049     2.337     2.390
    53   1 H        0.926     0.049     2.327     2.386
    54   1 H        0.926     0.054     2.270     2.356
    55   1 H        0.926     0.047     2.354     2.399
    56   1 H        0.926     0.040     2.453     2.449
    57   1 H        0.926     0.040     2.453     2.449
    58   1 H        0.926     0.043     2.412     2.429
    59   1 H        0.926     0.045     2.378     2.411
    60   1 H        0.926     0.041     2.433     2.439
    61   1 H        0.926     0.040     2.453     2.449
    62   1 H        0.926     0.038     2.473     2.459
    63   1 H        0.926     0.045     2.386     2.416
    64   1 H        0.926     0.037     2.492     2.469
    65   1 H        0.926     0.036     2.508     2.476
    66   1 H        0.926     0.037     2.493     2.469
    67   1 H        0.926     0.040     2.447     2.446
    68   1 H        0.926     0.045     2.382     2.413
    69   1 H        0.926     0.038     2.482     2.463

molecular dipole:
                 x           y           z       tot (Debye)
 q only:        2.135       0.977      -0.098
   full:        2.352       0.797      -0.083       6.316

 projected vibrational frequencies (cm⁻¹)
eigval :       -0.00    -0.00     0.00     0.00     0.00     0.00
eigval :       -3.76     9.30    13.35    28.09    35.97    50.36
eigval :       56.41    64.18    75.64    80.53    82.48    84.84
eigval :      117.63   119.97   124.23   134.31   138.49   179.11
eigval :      180.24   189.34   207.07   217.65   230.79   238.44
eigval :      248.25   250.50   271.59   278.46   285.34   339.32
eigval :      351.99   360.14   370.38   388.33   393.09   394.05
eigval :      398.59   401.59   417.75   418.85   428.86   437.59
eigval :      439.12   449.43   467.47   471.42   502.51   511.44
eigval :      527.11   533.03   536.21   540.52   570.85   582.17
eigval :      582.88   589.35   599.60   604.04   607.82   621.71
eigval :      639.46   655.84   661.87   665.74   669.64   674.13
eigval :      679.97   684.40   693.86   703.11   719.49   736.27
eigval :      739.66   747.66   761.29   765.87   770.32   783.27
eigval :      785.91   799.10   816.21   844.62   848.05   865.56
eigval :      867.14   875.01   886.36   893.01   893.22   899.11
eigval :      904.49   908.37   908.94   910.74   914.41   914.55
eigval :      920.37   924.98   926.66   926.69   930.94   935.09
eigval :      939.95   944.49   981.23   994.36  1010.42  1017.29
eigval :     1051.62  1080.80  1086.62  1098.60  1101.49  1103.52
eigval :     1114.32  1117.66  1128.22  1134.66  1140.81  1155.03
eigval :     1176.75  1178.73  1180.98  1181.19  1181.63  1183.25
eigval :     1186.75  1194.86  1207.65  1229.54  1241.90  1247.56
eigval :     1251.57  1253.01  1254.35  1263.05  1276.77  1278.60
eigval :     1279.85  1300.97  1305.58  1308.76  1309.85  1319.43
eigval :     1337.82  1341.34  1342.09  1358.34  1367.53  1375.09
eigval :     1398.85  1402.12  1406.14  1407.07  1409.25  1418.04
eigval :     1428.36  1432.51  1451.87  1458.07  1476.66  1487.56
eigval :     1498.46  1513.53  1515.50  1521.59  1526.33  1545.67
eigval :     1547.54  1549.43  1558.65  1563.47  1569.59  1575.24
eigval :     1592.62  1603.48  2324.88  3075.99  3076.70  3077.23
eigval :     3077.92  3078.24  3079.58  3080.70  3081.61  3085.44
eigval :     3086.06  3087.30  3088.92  3089.02  3090.72  3091.56
eigval :     3092.42  3096.23  3097.07  3099.15  3100.08  3101.28
eigval :     3103.17  3112.61  3113.49

   temp. (K)  partition function   enthalpy   heat capacity  entropy
                                   cal/mol     cal/K/mol   cal/K/mol   J/K/mol
 298.15  VIB  0.515E+16            19962.603    128.557    124.765
         ROT  0.802E+08              888.752      2.981     39.148
         INT  0.413E+24            20851.356    131.538    163.913
         TR   0.133E+29             1481.254      4.968     44.899
         TOT                       22332.6096   136.5065   208.8124   873.6713

       T/K    H(0)-H(T)+PV         H(T)/Eh          T*S/Eh         G(T)/Eh
   ------------------------------------------------------------------------
    298.15    0.355893E-01    0.548965E+00    0.992135E-01    0.449751E+00
   ------------------------------------------------------------------------

         :::::::::::::::::::::::::::::::::::::::::::::::::::::
         ::                  THERMODYNAMIC                  ::
         :::::::::::::::::::::::::::::::::::::::::::::::::::::
         :: total free energy        -111.626632216179 Eh   ::
         ::.................................................::
         :: total energy             -112.076383431969 Eh   ::
         :: zero point energy           0.513375465606 Eh   ::
         :: G(RRHO) w/o ZPVE           -0.063624249816 Eh   ::
         :: G(RRHO) contrib.            0.449751215790 Eh   ::
         :::::::::::::::::::::::::::::::::::::::::::::::::::::

           -------------------------------------------------
          | TOTAL ENERGY             -112.076383431969 Eh   |
          | TOTAL ENTHALPY           -111.527418687552 Eh   |
          | TOTAL FREE ENERGY        -111.626632216179 Eh   |
          | GRADIENT NORM               0.000064099168 Eh/α |
          | HOMO-LUMO GAP               0.586598964604 eV   |
           -------------------------------------------------

 * finished run on 2025/09/02 at 19:08:42.970
