   * xtb version 6.7.1 (edcfbbe) compiled by 'albert@albert-system' on 2024-07-22

   ID    Z sym.   atoms
    1    7 N      1, 21
    2    6 C      2-20, 22-35, 37-45
    3    8 O      36
    4    1 H      46-69

          program call               : xtb data2507/toluene/m-PO-ABN/m-PO-ABN_toluene_S0_crest.xyz --gfn 2 --gbsa toluene --ohess vtight --parallel 40 --molden --ceasefiles --namespace data2507/toluene/m-PO-ABN/m-PO-ABN_toluene_S0_finalOpt
      * Solvation model:               GBSA
        Solvent                        toluene
        Solvent mass                       9.2140E+01 g/mol
          :  Hamiltonian                  GFN2-xTB          :
 * total energy  :  -112.1441633 Eh     change       -0.8466969E-09 Eh
 * total energy  :  -112.1441914 Eh     change       -0.2808620E-04 Eh
 * total energy  :  -112.1441874 Eh     change        0.3958107E-05 Eh
 * total energy  :  -112.1442016 Eh     change       -0.1418354E-04 Eh
 * total energy  :  -112.1442066 Eh     change       -0.4948260E-05 Eh
 * total energy  :  -112.1442105 Eh     change       -0.3891741E-05 Eh
 * total energy  :  -112.1442180 Eh     change       -0.7558142E-05 Eh
 * total energy  :  -112.1442247 Eh     change       -0.6669920E-05 Eh
 * total energy  :  -112.1442315 Eh     change       -0.6841741E-05 Eh
 * total energy  :  -112.1442389 Eh     change       -0.7392136E-05 Eh
 * total energy  :  -112.1443004 Eh     change       -0.1517066E-06 Eh
 * total energy  :  -112.1443006 Eh     change       -0.1913052E-06 Eh
 * total energy  :  -112.1443009 Eh     change       -0.2793612E-06 Eh
 * total energy  :  -112.1443012 Eh     change       -0.3231115E-06 Eh
 * total energy  :  -112.1443015 Eh     change       -0.3292459E-06 Eh
 * total energy  :  -112.1443018 Eh     change       -0.3075047E-06 Eh
 * total energy  :  -112.1443021 Eh     change       -0.2895376E-06 Eh
 * total energy  :  -112.1443024 Eh     change       -0.2962725E-06 Eh
 * total energy  :  -112.1443024 Eh     change       -0.1187558E-08 Eh
   *** GEOMETRY OPTIMIZATION CONVERGED AFTER 68 ITERATIONS ***

 final structure:
================
69
 xtb: 6.7.1 (edcfbbe)
N          -10.50459823225043       -2.76398464529651        0.60803290040401
C           -9.47160619562362       -2.27670265789730        0.48937040819234
C           -8.20239016596927       -1.67675945197973        0.34406262518372
C           -7.97438539263510       -0.76719254333255       -0.69129008691205
C           -6.73070278774594       -0.18528755978029       -0.82865578171726
C           -5.69971927459222       -0.49275831480670        0.05809554590183
C           -4.36980799339749        0.13523778946004       -0.09462705797859
C           -3.94168710767628        1.09399203617158        0.83497898101406
C           -4.76283757139486        1.50858579951162        1.91729740518838
C           -4.32799963077455        2.42789016453385        2.82187239903581
C           -3.04085440639352        2.99015060581015        2.70223656437423
C           -2.23090829377151        2.63635929046271        1.66727294087517
C           -2.65220849128706        1.69532834187537        0.69023079641828
C           -1.83444299617345        1.33898209118098       -0.39145951362114
C           -0.51077146519800        1.98136385605110       -0.55442937617728
C           -0.41950224543359        3.31523821853030       -0.94596143946496
C            0.81784755516431        3.91808870409900       -1.10479343054887
C            1.97717792451740        3.20323203022102       -0.87558295412861
C            1.89887334295421        1.86589782092399       -0.48297955060922
C            3.11379999900565        1.11686755887625       -0.25246955012494
N            4.32812945771038        1.57356663827438       -0.37249500934559
C            5.14036054643984        0.51694300339854       -0.06783445759030
C            6.56081265775133        0.42547126059456       -0.03504921959270
C            7.37303798743477        1.52291307531689       -0.33877549897247
C            8.74076354871359        1.40535549357351       -0.30076933455603
C            9.31310420785334        0.18181218549446        0.04214409496057
C            8.52444079237106       -0.90452788981812        0.34295775660549
C            7.12295365609782       -0.82670825599794        0.31725096276494
C            6.27247510585059       -1.96280800110346        0.63337436646676
C            6.78605271293746       -3.21934731405202        0.98826507908520
C            5.96206941661241       -4.28112166787327        1.28376543284596
C            4.57579800253169       -4.14279656522104        1.23961564316055
C            4.02957406344219       -2.93104118397690        0.89728138324952
C            4.85865839210786       -1.84296661583674        0.59452653662570
C            4.34353865130414       -0.57442074402689        0.23496549962933
O            3.04933794326150       -0.19021322911429        0.11697538532288
C            0.65318342263885        1.26086615736381       -0.32417378655139
C           -2.26591972083320        0.38555033992931       -1.32465420314298
C           -1.47042726889416        0.01931339012030       -2.44300435743441
C           -1.89226119467699       -0.92023676234530       -3.33275689076554
C           -3.13756860773500       -1.55700294912106       -3.15731507489009
C           -3.93817321710979       -1.22239393286526       -2.10878144951293
C           -3.54617393152876       -0.23263921797312       -1.16841219103640
C           -5.93693416720568       -1.39987224769894        1.08992015551077
C           -7.17466011227088       -1.99222210986946        1.23593969425435
H           -8.77418832258815       -0.52665647145609       -1.37647568335519
H           -6.55043393867259        0.51987900708893       -1.62661965743662
H           -5.74938644703922        1.07976734635169        2.01248434166770
H           -4.96461177428201        2.73182474215516        3.64000947094897
H           -2.70577437987453        3.70665501579980        3.43796313227624
H           -1.24582667881954        3.06889079677565        1.57437283547169
H           -1.32510462702992        3.87462282292004       -1.12981426773085
H            0.87551001414448        4.95211128607773       -1.41030516103186
H            2.95005485502831        3.65247453796642       -0.99434326052357
H            6.89163276202298        2.45288683964857       -0.60056324326629
H            9.37003318694566        2.25113147262163       -0.53456316772293
H           10.38860107251345        0.08457709240345        0.07236725120455
H            9.00981803995178       -1.83132788718886        0.60290248004207
H            7.85191535687101       -3.37223751355112        1.03504249950668
H            6.39462860825171       -5.23343792591439        1.55333689121432
H            3.93901851527543       -4.98281688008981        1.47352005000887
H            2.95917361412018       -2.79168403364644        0.85409316110777
H            0.59557469474230        0.22654716660108       -0.01785229028279
H           -0.51512274554888        0.50476027816510       -2.57725027358556
H           -1.27526516683632       -1.18763946545725       -4.17829149619389
H           -3.45085274652573       -2.31096459941481       -3.86475186162271
H           -4.89132159096846       -1.71271891395601       -1.97711579748271
H           -5.13874092653438       -1.64211096380921        1.77608999458874
H           -7.35748939667870       -2.69750967557466        2.03358067940135

          :  Hamiltonian                  GFN2-xTB          :
         :: gradient norm              0.000077250888 Eh/a0 ::
         :: HOMO-LUMO gap              2.102606714207 eV    ::
         :: SCC energy              -114.265217979575 Eh    ::
         :: -> dispersion             -0.096964087456 Eh    ::
         :: -> Gsolv                  -0.051485886987 Eh    ::
         :: repulsion energy           2.120915576811 Eh    ::

    * Orbital Energies and Occupations

         #    Occupation            Energy/Eh            Energy/eV
      -------------------------------------------------------------
         1        2.0000           -0.7562736             -20.5793
       ...           ...                  ...                  ...
        92        2.0000           -0.4257173             -11.5844
        93        2.0000           -0.4207539             -11.4493
        94        2.0000           -0.4199059             -11.4262
        95        2.0000           -0.4149605             -11.2916
        96        2.0000           -0.4122251             -11.2172
        97        2.0000           -0.4118064             -11.2058
        98        2.0000           -0.4085674             -11.1177
        99        2.0000           -0.4065833             -11.0637
       100        2.0000           -0.4047347             -11.0134
       101        2.0000           -0.4009447             -10.9103
       102        2.0000           -0.3929951             -10.6939
       103        2.0000           -0.3780305             -10.2867
       104        2.0000           -0.3652122              -9.9379 (HOMO)
       105                         -0.2879428              -7.8353 (LUMO)
       106                         -0.2784761              -7.5777
       107                         -0.2736364              -7.4460
       108                         -0.2596659              -7.0659
       109                         -0.2526728              -6.8756
       110                         -0.2436098              -6.6290
       111                         -0.2367339              -6.4419
       112                         -0.2345228              -6.3817
       113                         -0.2255662              -6.1380
       114                         -0.2174714              -5.9177
       115                         -0.2139410              -5.8216
       ...                                ...                  ...
       204                          1.1580014              31.5108
      -------------------------------------------------------------
                  HL-Gap            0.0772694 Eh            2.1026 eV

     #   Z          covCN         q      C6AA      α(0)
     1   7 N        0.911    -0.275    27.118     7.532
     2   6 C        1.912     0.118    28.190     8.575
     3   6 C        2.973     0.014    27.699     8.633
     4   6 C        2.924    -0.019    28.473     8.751
     5   6 C        2.922    -0.027    28.670     8.781
     6   6 C        2.976     0.029    27.342     8.577
     7   6 C        2.977    -0.007    28.187     8.709
     8   6 C        2.983     0.008    27.832     8.654
     9   6 C        2.917    -0.035    28.874     8.812
    10   6 C        2.914    -0.029    28.722     8.788
    11   6 C        2.914    -0.029    28.729     8.789
    12   6 C        2.917    -0.034    28.849     8.808
    13   6 C        2.983     0.008    27.843     8.656
    14   6 C        2.977    -0.004    28.118     8.698
    15   6 C        2.975     0.020    27.546     8.609
    16   6 C        2.924    -0.028    28.701     8.786
    17   6 C        2.917    -0.026    28.642     8.776
    18   6 C        2.924    -0.030    28.761     8.795
    19   6 C        2.973    -0.007    28.192     8.709
    20   6 C        3.225     0.217    22.784     7.756
    21   7 N        1.882    -0.316    29.048     7.990
    22   6 C        3.163     0.056    26.420     8.401
    23   6 C        2.985    -0.003    28.095     8.695
    24   6 C        2.920    -0.030    28.754     8.793
    25   6 C        2.917    -0.029    28.721     8.788
    26   6 C        2.917    -0.030    28.757     8.794
    27   6 C        2.921    -0.033    28.834     8.806
    28   6 C        2.978    -0.002    28.069     8.691
    29   6 C        2.980     0.001    27.995     8.679
    30   6 C        2.921    -0.032    28.804     8.801
    31   6 C        2.917    -0.030    28.745     8.792
    32   6 C        2.917    -0.029    28.720     8.788
    33   6 C        2.919    -0.031    28.783     8.798
    34   6 C        2.982    -0.010    28.248     8.718
    35   6 C        3.111     0.103    25.572     8.284
    36   8 O        1.724    -0.231    17.821     5.700
    37   6 C        2.928    -0.031    28.776     8.797
    38   6 C        2.983     0.007    27.846     8.656
    39   6 C        2.917    -0.034    28.842     8.807
    40   6 C        2.914    -0.029    28.733     8.790
    41   6 C        2.914    -0.029    28.726     8.789
    42   6 C        2.917    -0.035    28.875     8.812
    43   6 C        2.983     0.008    27.834     8.654
    44   6 C        2.922    -0.027    28.671     8.781
    45   6 C        2.924    -0.019    28.475     8.751
    46   1 H        0.926     0.044     2.398     2.422
    47   1 H        0.926     0.048     2.347     2.396
    48   1 H        0.926     0.032     2.551     2.498
    49   1 H        0.926     0.034     2.536     2.490
    50   1 H        0.926     0.034     2.537     2.491
    51   1 H        0.926     0.034     2.533     2.489
    52   1 H        0.926     0.046     2.368     2.407
    53   1 H        0.926     0.049     2.336     2.390
    54   1 H        0.926     0.054     2.273     2.357
    55   1 H        0.926     0.047     2.355     2.400
    56   1 H        0.926     0.040     2.453     2.449
    57   1 H        0.926     0.040     2.452     2.449
    58   1 H        0.926     0.043     2.411     2.428
    59   1 H        0.926     0.046     2.377     2.411
    60   1 H        0.926     0.041     2.432     2.439
    61   1 H        0.926     0.040     2.453     2.449
    62   1 H        0.926     0.038     2.476     2.461
    63   1 H        0.926     0.042     2.420     2.433
    64   1 H        0.926     0.031     2.566     2.505
    65   1 H        0.926     0.032     2.556     2.500
    66   1 H        0.926     0.033     2.540     2.492
    67   1 H        0.926     0.033     2.549     2.497
    68   1 H        0.926     0.047     2.357     2.401
    69   1 H        0.926     0.044     2.402     2.424

molecular dipole:
                 x           y           z       tot (Debye)
 q only:        1.467       0.607      -0.131
   full:        1.685       0.440      -0.082       4.432

 projected vibrational frequencies (cm⁻¹)
eigval :       -0.00    -0.00     0.00     0.00     0.00     0.00
eigval :        4.87    10.69    11.50    30.93    33.68    35.39
eigval :       44.12    60.68    67.67    73.83    76.10    86.87
eigval :      106.54   117.32   121.41   123.47   135.52   178.79
eigval :      179.43   191.30   205.40   211.17   218.39   226.95
eigval :      238.78   249.92   263.93   278.05   283.09   337.28
eigval :      353.18   363.84   382.89   394.40   397.97   398.54
eigval :      400.43   407.91   424.12   429.06   438.46   446.20
eigval :      447.46   457.54   459.16   471.25   503.55   513.78
eigval :      528.93   534.45   534.56   549.97   581.58   583.20
eigval :      586.40   599.22   604.76   608.63   610.39   633.40
eigval :      647.01   655.89   663.25   666.24   669.18   679.92
eigval :      692.62   692.75   695.81   704.54   736.04   737.48
eigval :      743.99   765.45   770.58   773.14   777.48   782.27
eigval :      791.68   802.07   815.99   864.70   869.94   872.73
eigval :      874.87   876.25   892.24   900.15   905.54   908.20
eigval :      913.69   915.48   916.50   918.84   921.46   923.47
eigval :      924.07   926.25   926.31   928.77   931.47   932.37
eigval :      936.84   940.04   981.82   996.47  1017.08  1019.16
eigval :     1051.61  1079.85  1080.56  1080.87  1087.13  1098.32
eigval :     1117.10  1129.94  1133.64  1138.44  1143.91  1153.55
eigval :     1178.69  1179.19  1179.51  1180.57  1182.44  1184.04
eigval :     1197.11  1205.81  1209.78  1227.05  1240.87  1250.92
eigval :     1252.88  1253.44  1258.15  1260.32  1264.81  1276.53
eigval :     1287.61  1306.17  1308.26  1318.33  1326.14  1340.79
eigval :     1341.89  1348.26  1369.01  1382.19  1391.00  1399.91
eigval :     1402.23  1409.72  1416.97  1426.98  1428.16  1432.32
eigval :     1440.77  1459.97  1478.35  1490.18  1513.79  1515.41
eigval :     1525.21  1528.15  1540.07  1544.71  1546.90  1560.28
eigval :     1568.79  1573.51  1584.69  1585.25  1592.73  1603.39
eigval :     1606.60  1620.94  2361.06  3071.61  3072.54  3075.35
eigval :     3076.63  3077.88  3078.30  3080.30  3080.62  3081.26
eigval :     3081.69  3084.96  3087.47  3087.52  3088.56  3091.24
eigval :     3091.31  3092.03  3092.29  3092.82  3094.30  3098.53
eigval :     3103.00  3111.20  3112.54

   temp. (K)  partition function   enthalpy   heat capacity  entropy
                                   cal/mol     cal/K/mol   cal/K/mol   J/K/mol
 298.15  VIB  0.105E+17            19980.310    127.001    125.158
         ROT  0.803E+08              888.752      2.981     39.151
         INT  0.839E+24            20869.063    129.982    164.309
         TR   0.133E+29             1481.254      4.968     44.899
         TOT                       22350.3165   134.9498   209.2086   875.3288

       T/K    H(0)-H(T)+PV         H(T)/Eh          T*S/Eh         G(T)/Eh
   ------------------------------------------------------------------------
    298.15    0.356175E-01    0.551176E+00    0.994018E-01    0.451774E+00
   ------------------------------------------------------------------------

         :::::::::::::::::::::::::::::::::::::::::::::::::::::
         ::                  THERMODYNAMIC                  ::
         :::::::::::::::::::::::::::::::::::::::::::::::::::::
         :: total free energy        -111.692528035591 Eh   ::
         ::.................................................::
         :: total energy             -112.144302405248 Eh   ::
         :: zero point energy           0.515558635115 Eh   ::
         :: G(RRHO) w/o ZPVE           -0.063784265457 Eh   ::
         :: G(RRHO) contrib.            0.451774369658 Eh   ::
         :::::::::::::::::::::::::::::::::::::::::::::::::::::

           -------------------------------------------------
          | TOTAL ENERGY             -112.144302405248 Eh   |
          | TOTAL ENTHALPY           -111.593126273679 Eh   |
          | TOTAL FREE ENERGY        -111.692528035591 Eh   |
          | GRADIENT NORM               0.000077260586 Eh/α |
          | HOMO-LUMO GAP               2.102606705803 eV   |
           -------------------------------------------------

 * finished run on 2025/09/02 at 19:08:36.361
