   * xtb version 6.7.1 (edcfbbe) compiled by 'albert@albert-system' on 2024-07-22

   ID    Z sym.   atoms
    1    7 N      1, 21
    2    6 C      2-20, 22-35, 37-45
    3    8 O      36
    4    1 H      46-69

          program call               : xtb data2507/toluene/m-PO-ABN/m-PO-ABN.xyz --gfn 2 --gbsa toluene --ohess vtight --parallel 40 --molden --ceasefiles --namespace data2507/toluene/m-PO-ABN/m-PO-ABN_toluene_S0_preOpt
      * Solvation model:               GBSA
        Solvent                        toluene
        Solvent mass                       9.2140E+01 g/mol
          :  Hamiltonian                  GFN2-xTB          :
 * total energy  :  -112.1251582 Eh     change       -0.1456414E-08 Eh
 * total energy  :  -112.1393837 Eh     change       -0.1422548E-01 Eh
 * total energy  :  -112.1431161 Eh     change       -0.3732458E-02 Eh
 * total energy  :  -112.1436176 Eh     change       -0.5015082E-03 Eh
 * total energy  :  -112.1437910 Eh     change       -0.1733375E-03 Eh
 * total energy  :  -112.1438263 Eh     change       -0.3534138E-04 Eh
 * total energy  :  -112.1438334 Eh     change       -0.7099991E-05 Eh
 * total energy  :  -112.1438843 Eh     change       -0.5089171E-04 Eh
 * total energy  :  -112.1439029 Eh     change       -0.1856741E-04 Eh
 * total energy  :  -112.1439225 Eh     change       -0.1966074E-04 Eh
 * total energy  :  -112.1440153 Eh     change       -0.2068835E-05 Eh
 * total energy  :  -112.1440180 Eh     change       -0.2645079E-05 Eh
 * total energy  :  -112.1440208 Eh     change       -0.2862265E-05 Eh
 * total energy  :  -112.1440210 Eh     change       -0.1516699E-06 Eh
 * total energy  :  -112.1440208 Eh     change        0.2132935E-06 Eh
 * total energy  :  -112.1440215 Eh     change       -0.6795076E-06 Eh
 * total energy  :  -112.1440216 Eh     change       -0.1090145E-06 Eh
 * total energy  :  -112.1440217 Eh     change       -0.1025877E-06 Eh
 * total energy  :  -112.1440217 Eh     change       -0.8424085E-07 Eh
   *** GEOMETRY OPTIMIZATION CONVERGED AFTER 49 ITERATIONS ***

 final structure:
================
69
 xtb: 6.7.1 (edcfbbe)
N          -10.54152080319258       -3.02367612860304       -0.02110745195303
C           -9.52039437666702       -2.49858992203426       -0.01724505890429
C           -8.26367321734024       -1.85547484945061       -0.01262919515198
C           -8.19234855358411       -0.46063351817777       -0.02370327974475
C           -6.95990616900660        0.16090339973336       -0.01865724924937
C           -5.78688855556702       -0.59051897172478       -0.00309042350622
C           -4.46662845009567        0.08208456605922        0.00230541340909
C           -3.85782582733922        0.40528774162102        1.22156531404233
C           -4.47265667910247        0.10923253158419        2.46723584577920
C           -3.86849579154596        0.42924998906251        3.64400677419580
C           -2.60952010812536        1.06488890347941        3.64895510210243
C           -1.98710911386073        1.36693803976144        2.47690131907763
C           -2.58262775013435        1.05220483466113        1.22649093344773
C           -1.95404123673248        1.35820373700424        0.01289105726359
C           -0.63644699399951        2.03853286311192        0.01819305203223
C           -0.56466590828656        3.42891585133965        0.02887005198563
C            0.66491099693200        4.06812461209125        0.03263935495759
C            1.83372885129729        3.33244751675507        0.02605249862982
C            1.77346914338107        1.93782388382480        0.01582952600569
C            2.99883784346732        1.17074244605685        0.00890440791468
N            4.20631677941992        1.65991102189655        0.00325018389318
C            5.03397810126726        0.57182219390719       -0.00258153966517
C            6.45566427771674        0.49516660424137       -0.01129905510218
C            7.25162306437477        1.64522141688808       -0.01521635847512
C            8.62094684901743        1.54125031181838       -0.02458403985943
C            9.21135778671387        0.27889631924807       -0.03002591364429
C            8.43876822154684       -0.85937182161923       -0.02607831694168
C            7.03628069365232       -0.79746393162121       -0.01648876057466
C            6.20257019805481       -1.98864737008637       -0.01219486018212
C            6.73482828463729       -3.28680796311419       -0.01609747288549
C            5.92681400900484       -4.40062366634902       -0.01188136729290
C            4.53863567577108       -4.27540945395995       -0.00336883149219
C            3.97435737065384       -3.02421943296015        0.00060712371682
C            4.78705739361487       -1.88297413079351       -0.00367781297451
C            4.25319519008747       -0.57188004131847        0.00030787954889
O            2.95339227679618       -0.18825319734881        0.00747881646016
C            0.53570796616107        1.29642282017186        0.01189860306504
C           -2.56321246324570        1.03404126138000       -1.20590243621323
C           -1.94895436982428        1.33245090451457       -2.45124586834151
C           -2.55288375247557        1.01357379273588       -3.62848975471890
C           -3.81106274740822        0.37637397194041       -3.63419356283157
C           -4.43328246683521        0.07241958359997       -2.46258407424410
C           -3.83835667444469        0.38698275309673       -1.21178001670920
C           -5.86604567329312       -1.98146991094780        0.00759248552230
C           -7.09199016394957       -2.61559925003441        0.00314209969066
H           -9.10266982904098        0.12086047928459       -0.03591048082422
H           -6.89896079729833        1.23917199964478       -0.02682563120014
H           -5.43663510644019       -0.37852281209527        2.46384667963518
H           -4.34778464418549        0.19858275061159        4.58431563816119
H           -2.14488052714783        1.30979595646704        4.59299658417572
H           -1.02289548125706        1.85410168161320        2.47870277841777
H           -1.47818878648141        4.00530868735209        0.03379195560105
H            0.70836523494406        5.14698603825105        0.04068571948245
H            2.80101463130059        3.80899923078362        0.02870343088605
H            6.75662842472651        2.60439431139346       -0.01092120890796
H            9.23745722530518        2.42776978998379       -0.02772822819561
H           10.28817085080225        0.19243633116581       -0.03742495982619
H            8.93772756331543       -1.81491936212188       -0.03060820526774
H            7.80283758552879       -3.43138642949015       -0.02241838491992
H            6.37372754308333       -5.38391732454702       -0.01508108934246
H            3.91461843022747       -5.15658280360965       -0.00001627054527
H            2.90199368535837       -2.89386910157873        0.00715324365234
H            0.49142037442319        0.21714677540276        0.00370786713556
H           -0.98559435427196        1.82126499936926       -2.44495476192576
H           -2.07412078127067        1.24636619336899       -4.56853786059326
H           -4.27542256323960        0.13194773619116       -4.57851323603172
H           -5.39687164741573       -0.41611036117481       -2.46733546005186
H           -4.95683549349944       -2.56429169543796        0.01974407293502
H           -7.15500466497006       -3.69403538226958        0.01163066546574

          :  Hamiltonian                  GFN2-xTB          :
         :: gradient norm              0.000063173136 Eh/a0 ::
         :: HOMO-LUMO gap              2.196513003100 eV    ::
         :: SCC energy              -114.265940378280 Eh    ::
         :: -> dispersion             -0.096728472444 Eh    ::
         :: -> Gsolv                  -0.051697721686 Eh    ::
         :: repulsion energy           2.121918627934 Eh    ::

    * Orbital Energies and Occupations

         #    Occupation            Energy/Eh            Energy/eV
      -------------------------------------------------------------
         1        2.0000           -0.7562616             -20.5789
       ...           ...                  ...                  ...
        92        2.0000           -0.4257322             -11.5848
        93        2.0000           -0.4207878             -11.4502
        94        2.0000           -0.4199238             -11.4267
        95        2.0000           -0.4151422             -11.2966
        96        2.0000           -0.4118828             -11.2079
        97        2.0000           -0.4109260             -11.1819
        98        2.0000           -0.4105290             -11.1711
        99        2.0000           -0.4062888             -11.0557
       100        2.0000           -0.4047190             -11.0130
       101        2.0000           -0.4009663             -10.9108
       102        2.0000           -0.3930010             -10.6941
       103        2.0000           -0.3780407             -10.2870
       104        2.0000           -0.3658031              -9.9540 (HOMO)
       105                         -0.2850827              -7.7575 (LUMO)
       106                         -0.2785665              -7.5802
       107                         -0.2759790              -7.5098
       108                         -0.2596749              -7.0661
       109                         -0.2526979              -6.8763
       110                         -0.2440586              -6.6412
       111                         -0.2366746              -6.4402
       112                         -0.2342571              -6.3745
       113                         -0.2256810              -6.1411
       114                         -0.2174360              -5.9167
       115                         -0.2142179              -5.8292
       ...                                ...                  ...
       204                          1.1576401              31.5010
      -------------------------------------------------------------
                  HL-Gap            0.0807204 Eh            2.1965 eV

     #   Z          covCN         q      C6AA      α(0)
     1   7 N        0.911    -0.275    27.099     7.529
     2   6 C        1.912     0.118    28.187     8.574
     3   6 C        2.974     0.014    27.694     8.632
     4   6 C        2.924    -0.018    28.464     8.749
     5   6 C        2.922    -0.027    28.667     8.780
     6   6 C        2.977     0.030    27.325     8.575
     7   6 C        2.978    -0.007    28.186     8.709
     8   6 C        2.984     0.008    27.837     8.655
     9   6 C        2.917    -0.034    28.857     8.809
    10   6 C        2.914    -0.029    28.720     8.788
    11   6 C        2.914    -0.029    28.726     8.789
    12   6 C        2.917    -0.033    28.832     8.805
    13   6 C        2.984     0.007    27.847     8.656
    14   6 C        2.978    -0.004    28.123     8.699
    15   6 C        2.976     0.021    27.534     8.607
    16   6 C        2.924    -0.028    28.704     8.786
    17   6 C        2.917    -0.025    28.636     8.775
    18   6 C        2.924    -0.031    28.765     8.795
    19   6 C        2.973    -0.007    28.187     8.709
    20   6 C        3.225     0.217    22.781     7.755
    21   7 N        1.882    -0.316    29.046     7.989
    22   6 C        3.163     0.056    26.420     8.401
    23   6 C        2.985    -0.003    28.095     8.695
    24   6 C        2.920    -0.030    28.754     8.793
    25   6 C        2.917    -0.029    28.721     8.788
    26   6 C        2.917    -0.030    28.757     8.794
    27   6 C        2.921    -0.033    28.834     8.806
    28   6 C        2.978    -0.002    28.069     8.691
    29   6 C        2.980     0.001    27.995     8.679
    30   6 C        2.921    -0.032    28.804     8.801
    31   6 C        2.917    -0.030    28.745     8.792
    32   6 C        2.917    -0.029    28.720     8.788
    33   6 C        2.919    -0.031    28.783     8.798
    34   6 C        2.982    -0.009    28.248     8.718
    35   6 C        3.111     0.103    25.572     8.284
    36   8 O        1.724    -0.231    17.821     5.700
    37   6 C        2.928    -0.031    28.780     8.798
    38   6 C        2.984     0.007    27.847     8.656
    39   6 C        2.917    -0.033    28.831     8.805
    40   6 C        2.914    -0.029    28.726     8.789
    41   6 C        2.914    -0.029    28.720     8.788
    42   6 C        2.917    -0.034    28.857     8.809
    43   6 C        2.984     0.008    27.837     8.655
    44   6 C        2.922    -0.027    28.668     8.780
    45   6 C        2.924    -0.018    28.466     8.749
    46   1 H        0.926     0.044     2.391     2.418
    47   1 H        0.926     0.047     2.353     2.399
    48   1 H        0.926     0.031     2.569     2.507
    49   1 H        0.926     0.034     2.536     2.490
    50   1 H        0.926     0.033     2.542     2.493
    51   1 H        0.926     0.032     2.564     2.504
    52   1 H        0.926     0.045     2.380     2.412
    53   1 H        0.926     0.049     2.335     2.390
    54   1 H        0.926     0.054     2.272     2.357
    55   1 H        0.926     0.047     2.355     2.400
    56   1 H        0.926     0.040     2.452     2.449
    57   1 H        0.926     0.040     2.451     2.448
    58   1 H        0.926     0.043     2.411     2.428
    59   1 H        0.926     0.046     2.376     2.411
    60   1 H        0.926     0.041     2.431     2.438
    61   1 H        0.926     0.040     2.453     2.449
    62   1 H        0.926     0.038     2.477     2.461
    63   1 H        0.926     0.041     2.432     2.439
    64   1 H        0.926     0.031     2.566     2.505
    65   1 H        0.926     0.033     2.543     2.494
    66   1 H        0.926     0.034     2.536     2.490
    67   1 H        0.926     0.031     2.569     2.506
    68   1 H        0.926     0.046     2.367     2.406
    69   1 H        0.926     0.044     2.397     2.421

molecular dipole:
                 x           y           z       tot (Debye)
 q only:        1.430       0.631       0.007
   full:        1.648       0.464       0.008       4.351

 projected vibrational frequencies (cm⁻¹)
eigval :       -0.00    -0.00    -0.00     0.00     0.00     0.00
eigval :      -19.17    -9.67    -1.00    11.77    33.03    33.23
eigval :       39.22    59.97    68.59    69.79    75.68    83.67
eigval :      104.25   115.55   119.89   124.27   135.21   176.78
eigval :      177.78   189.62   204.59   210.40   215.58   225.43
eigval :      237.77   247.62   259.42   275.82   282.36   337.20
eigval :      354.20   359.52   382.92   392.92   397.98   398.47
eigval :      399.16   409.12   424.02   431.11   436.70   444.43
eigval :      447.03   457.39   458.82   471.62   502.76   513.83
eigval :      528.45   532.90   534.81   549.72   581.24   583.04
eigval :      585.86   599.20   605.78   607.84   609.51   634.79
eigval :      647.63   656.06   663.82   665.27   667.98   679.29
eigval :      691.57   692.57   695.13   705.39   735.37   736.59
eigval :      744.36   766.41   771.27   774.89   775.10   782.61
eigval :      791.83   798.70   813.75   863.92   868.91   874.72
eigval :      876.41   877.01   884.58   897.87   905.94   908.71
eigval :      915.40   915.72   916.50   919.07   919.42   923.94
eigval :      924.43   926.92   927.47   928.59   928.99   929.64
eigval :      933.13   939.97   981.80   996.82  1016.99  1019.31
eigval :     1051.49  1078.64  1079.56  1080.68  1086.83  1098.19
eigval :     1118.95  1129.73  1133.55  1139.02  1144.26  1155.02
eigval :     1179.12  1179.20  1179.54  1180.90  1182.21  1183.78
eigval :     1196.76  1205.57  1209.66  1229.50  1240.91  1250.59
eigval :     1253.29  1253.99  1259.89  1261.26  1263.61  1275.95
eigval :     1288.48  1303.76  1308.27  1316.70  1329.34  1340.79
eigval :     1341.70  1348.45  1369.44  1384.68  1389.97  1400.29
eigval :     1402.66  1410.36  1418.28  1427.93  1428.27  1432.22
eigval :     1442.73  1460.71  1480.36  1492.74  1513.93  1515.27
eigval :     1525.29  1532.60  1542.30  1545.16  1547.23  1560.51
eigval :     1569.57  1573.66  1586.48  1586.83  1592.67  1603.43
eigval :     1606.57  1621.45  2361.95  3070.82  3070.98  3075.71
eigval :     3075.93  3076.03  3076.76  3080.23  3080.55  3081.04
eigval :     3081.87  3084.53  3084.73  3085.26  3088.33  3090.44
eigval :     3090.91  3091.66  3092.08  3092.26  3093.67  3099.27
eigval :     3102.70  3112.51  3112.62

   temp. (K)  partition function   enthalpy   heat capacity  entropy
                                   cal/mol     cal/K/mol   cal/K/mol   J/K/mol
 298.15  VIB  0.590E+15            19466.376    125.779    120.132
         ROT  0.805E+08              888.752      2.981     39.156
         INT  0.475E+23            20355.129    128.759    159.288
         TR   0.133E+29             1481.254      4.968     44.899
         TOT                       21836.3827   133.7276   204.1874   854.3202

       T/K    H(0)-H(T)+PV         H(T)/Eh          T*S/Eh         G(T)/Eh
   ------------------------------------------------------------------------
    298.15    0.347985E-01    0.550192E+00    0.970160E-01    0.453176E+00
   ------------------------------------------------------------------------

         :::::::::::::::::::::::::::::::::::::::::::::::::::::
         ::                  THERMODYNAMIC                  ::
         :::::::::::::::::::::::::::::::::::::::::::::::::::::
         :: total free energy        -111.690845402657 Eh   ::
         ::.................................................::
         :: total energy             -112.144021751194 Eh   ::
         :: zero point energy           0.515393889148 Eh   ::
         :: G(RRHO) w/o ZPVE           -0.062217540610 Eh   ::
         :: G(RRHO) contrib.            0.453176348538 Eh   ::
         :::::::::::::::::::::::::::::::::::::::::::::::::::::

           -------------------------------------------------
          | TOTAL ENERGY             -112.144021751194 Eh   |
          | TOTAL ENTHALPY           -111.593829371125 Eh   |
          | TOTAL FREE ENERGY        -111.690845402657 Eh   |
          | GRADIENT NORM               0.000063143103 Eh/α |
          | HOMO-LUMO GAP               2.196512955904 eV   |
           -------------------------------------------------

 * finished run on 2025/09/02 at 19:05:06.065
