   * xtb version 6.7.1 (edcfbbe) compiled by 'albert@albert-system' on 2024-07-22

   ID    Z sym.   atoms
    1    6 C      1-8, 10-19, 21-30, 32-44, 46-62
    2    7 N      9, 31, 45
    3    5 B      20
    4    1 H      63-124

          program call               : xtb data2507/toluene/2tPAB/2tPAB.xyz --gfn 2 --gbsa toluene --ohess vtight --parallel 40 --molden --ceasefiles --namespace data2507/toluene/2tPAB/2tPAB_toluene_S0_preOpt
      * Solvation model:               GBSA
        Solvent                        toluene
        Solvent mass                       9.2140E+01 g/mol
          :  Hamiltonian                  GFN2-xTB          :
 * total energy  :  -165.8915885 Eh     change       -0.3153332E-08 Eh
 * total energy  :  -165.9522269 Eh     change       -0.6063848E-01 Eh
 * total energy  :  -165.9750453 Eh     change       -0.2281834E-01 Eh
 * total energy  :  -165.9842832 Eh     change       -0.9237917E-02 Eh
 * total energy  :  -165.9901496 Eh     change       -0.5866454E-02 Eh
 * total energy  :  -165.9942138 Eh     change       -0.4064182E-02 Eh
 * total energy  :  -165.9971731 Eh     change       -0.2959265E-02 Eh
 * total energy  :  -165.9994383 Eh     change       -0.2265184E-02 Eh
 * total energy  :  -166.0012875 Eh     change       -0.1849225E-02 Eh
 * total energy  :  -166.0029053 Eh     change       -0.1617847E-02 Eh
 * total energy  :  -166.0172033 Eh     change       -0.4975514E-06 Eh
 * total energy  :  -166.0172037 Eh     change       -0.4710878E-06 Eh
 * total energy  :  -166.0172042 Eh     change       -0.4969928E-06 Eh
 * total energy  :  -166.0172048 Eh     change       -0.5889590E-06 Eh
 * total energy  :  -166.0172055 Eh     change       -0.7115707E-06 Eh
 * total energy  :  -166.0172063 Eh     change       -0.8002129E-06 Eh
 * total energy  :  -166.0172071 Eh     change       -0.7852042E-06 Eh
 * total energy  :  -166.0172078 Eh     change       -0.6748044E-06 Eh
 * total energy  :  -166.0172078 Eh     change       -0.2937810E-08 Eh
   *** GEOMETRY OPTIMIZATION CONVERGED AFTER 185 ITERATIONS ***

 final structure:
================
124
 xtb: 6.7.1 (edcfbbe)
C            7.41329221147165        3.87345183672012       -0.61454727365450
C            6.89043967598726        3.31618566835877        0.71291831171861
C            6.42027479619721        4.49896042537231        1.57298905284229
C            8.04361038424880        2.58541557356997        1.41671038968705
C            5.73142516095236        2.34896787563676        0.52604310516740
C            5.12084646088257        1.78400256825030        1.64422306410824
C            4.05122294153875        0.91744359679147        1.52604964475804
C            3.56310764191425        0.58637349635604        0.26997256389412
N            2.43205786000589       -0.27467763695110        0.13777371682665
C            2.65009153312492       -1.62616175321067       -0.05744592947032
C            3.96878063968916       -2.09692458859408       -0.10650166482041
C            4.23935870908347       -3.41531654005513       -0.37931013412831
C            3.21452963879081       -4.32797826299232       -0.64262860661425
C            3.56846475074391       -5.76255203724982       -1.00751320670385
C            2.33387322678411       -6.62062365478064       -1.29780460525097
C            4.33132546454700       -6.40400841803782        0.16138909562044
C            4.45231056172227       -5.75885763742374       -2.26399757797115
C            1.91816062528389       -3.85943163883948       -0.54746543083685
C            1.58460858980113       -2.53773105827215       -0.21926001284782
B            0.14350782237434       -2.00054356268099       -0.04954318304446
C           -1.20603270991314       -2.74547905483670        0.08426604760524
C           -1.34536999899244       -4.12024399675451        0.32210976223923
C           -2.56145059508495       -4.77168694788068        0.39899913606501
C           -2.70371761020114       -6.26528769995621        0.65462514099465
C           -1.35366354860363       -6.96900832948913        0.81868451629177
C           -3.51476990185993       -6.48134361436083        1.94100965222546
C           -3.43430759582126       -6.90976018649729       -0.53327484246968
C           -3.70931532687207       -3.99406725040725        0.22493117860716
C           -3.63047904138710       -2.63604923668426        0.03727541767478
C           -2.39109724252783       -1.98424808347658       -0.00774179875835
N           -2.36719027559206       -0.60677646323132       -0.12805891617908
C           -3.60948836606934        0.09079759128422       -0.21998699516742
C           -4.27045591036614        0.50238578826495        0.92753567965318
C           -5.45577248484092        1.21034432034485        0.83498371450999
C           -6.01372945927363        1.52683980752390       -0.39850153370015
C           -7.30484524390279        2.31805112461922       -0.54268213750610
C           -7.89367495998600        2.73726944143730        0.80770255577273
C           -7.02075874310353        3.59088688685497       -1.35430267215402
C           -8.34350646560046        1.45394383960179       -1.27324043914717
C           -5.34280722992450        1.09250730020405       -1.54022346037404
C           -4.15737015041295        0.38733849170668       -1.46001472910079
C           -1.22032939016386        0.15367464992551       -0.05320116410284
C           -1.31144458515644        1.54388039465227       -0.05293521744747
C           -0.16184530869675        2.31480719159802        0.06595892408285
N           -0.26042871208945        3.71403438208560        0.09696351949067
C            0.72571855842633        4.49777461313802       -0.51046640561761
C            1.14184050936741        5.69303708958311        0.07721362229950
C            2.12280150755776        6.46042418316251       -0.52058479280782
C            2.71213723228730        6.04929966794723       -1.70530968566323
C            2.30168081080518        4.86451321770588       -2.29501809071711
C            1.31490510542447        4.09559717673764       -1.70970075574699
C           -1.34714025606175        4.32339683291810        0.73183920271665
C           -1.87334095365073        3.78914408688636        1.90860943323794
C           -2.95921229979355        4.38384765676381        2.52070646289771
C           -3.53379645681620        5.52321807321401        1.98044110854567
C           -3.00855260674585        6.06576127628258        0.81865022433595
C           -1.92836154930173        5.47246935767070        0.19433890567745
C            1.08485875486449        1.70818034624551        0.15465567512684
C            1.18993780419082        0.32054179163750        0.08882166047612
C            0.03619332848820       -0.48817859248474       -0.00243860581984
C            4.16918777816534        1.12500234159279       -0.85497799222432
C            5.23827452664455        1.99370771951240       -0.72441264632448
H            7.79537083976590        3.07876586909166       -1.25129686567036
H            6.63221364358593        4.41412613856789       -1.14459659979058
H            8.22908750891045        4.56655789185255       -0.41893930467460
H            6.10470576398688        4.17370688152827        2.56036528848043
H            5.58115780164789        5.00094920060905        1.09497789429206
H            7.22912692265960        5.21643133853036        1.69414046483826
H            8.88597028008175        3.26046520110618        1.55195944250058
H            7.74187428499942        2.21699300596053        2.39339602629662
H            8.37305802726183        1.73758975355725        0.81899438520705
H            5.47731628580966        2.02369041857372        2.63438613103002
H            3.58522249984355        0.49628031772475        2.40524630364476
H            4.79090048613218       -1.41591243255742        0.05873049783022
H            5.27241101052363       -3.73009476678426       -0.40690775532200
H            2.64617578635168       -7.62710172729664       -1.57093089760436
H            1.75710606215542       -6.21040533628630       -2.12399707682788
H            1.69809981022028       -6.69436189891858       -0.41899982351136
H            3.71793412295569       -6.39509954903783        1.06066133888607
H            5.25307111921899       -5.86858372785109        0.37362140107053
H            4.58326476103360       -7.43620323304121       -0.07476137309210
H            4.69522743745671       -6.77885755494424       -2.55623326033847
H            5.38295763279829       -5.22425117265029       -2.09314758692152
H            3.92967129938991       -5.27787491525693       -3.08891418092867
H            1.10103956300978       -4.52657508582136       -0.75787598619412
H           -0.43895739811017       -4.67907675511555        0.47412244902991
H           -0.79611878528259       -6.55787292257243        1.65748744887634
H           -0.75805655644921       -6.87881055050511       -0.08658717873491
H           -1.51659635078746       -8.02835647475244        1.00939656329122
H           -4.50743710551116       -6.04612805246178        1.86081886983262
H           -3.62423457194751       -7.54532603698839        2.14269190132144
H           -3.00796991049344       -6.01967344449674        2.78664030553736
H           -2.87994478035712       -6.73636666872413       -1.45390238823292
H           -4.43277344761303       -6.49833220955184       -0.65530915345275
H           -3.52512315459725       -7.98369627147365       -0.38136677519962
H           -4.68829979839299       -4.45000080688286        0.25410944427657
H           -4.54297100442709       -2.06687559188189       -0.06377213804825
H           -3.84865461670875        0.26930913767614        1.89465381204340
H           -5.93447140334088        1.51720726376330        1.74998203371866
H           -8.80752142232385        3.30461531353947        0.64273929109114
H           -8.14372970636419        1.86940095739912        1.41374793091638
H           -7.19936023653404        3.37012454334027        1.35603893770749
H           -7.92571241462836        4.18874534129316       -1.43953805023666
H           -6.67428226778251        3.35509640617444       -2.35667289361499
H           -6.25628132606129        4.18834967479061       -0.86101588561410
H           -9.27947929100098        1.99949595320316       -1.37273924624200
H           -8.53435694471935        0.54033839358193       -0.71328443561957
H           -8.00236610497435        1.17914917611612       -2.26756062559460
H           -5.74342246128574        1.30930453992438       -2.51870728293153
H           -3.64773172150439        0.06535643325023       -2.35674395366163
H           -2.26689775288092        2.03751118589315       -0.13083212835647
H            0.69247195126215        6.01147139015952        1.00694705707863
H            2.43703659535149        7.38160745520324       -0.05104243398229
H            3.48308021442736        6.64867861545316       -2.16628113836622
H            2.74892999620086        4.53890095815978       -3.22327664152617
H            0.99020291660881        3.17690253962475       -2.17600184673414
H           -1.42220882552022        2.90518737059999        2.33522422913753
H           -3.35550880113552        3.95780351664518        3.43126813088496
H           -4.38197746352819        5.98656615849323        2.46224565989362
H           -3.45008372078302        6.95308200279990        0.38784711152187
H           -1.52870800303453        5.89167989106737       -0.71790486032756
H            1.96143197892342        2.32737504574421        0.25878972943226
H            3.79445376405654        0.86476381345255       -1.83449235416263
H            5.67609534895687        2.39571765456879       -1.62289493711749

          :  Hamiltonian                  GFN2-xTB          :
         :: gradient norm              0.000047159290 Eh/a0 ::
         :: HOMO-LUMO gap              2.364918241927 eV    ::
         :: SCC energy              -168.929037252992 Eh    ::
         :: -> dispersion             -0.167512580310 Eh    ::
         :: -> Gsolv                  -0.062182492413 Eh    ::
         :: repulsion energy           2.911829464088 Eh    ::

    * Orbital Energies and Occupations

         #    Occupation            Energy/Eh            Energy/eV
      -------------------------------------------------------------
         1        2.0000           -0.6593954             -17.9431
       ...           ...                  ...                  ...
       144        2.0000           -0.4031636             -10.9706
       145        2.0000           -0.4023066             -10.9473
       146        2.0000           -0.3959893             -10.7754
       147        2.0000           -0.3952364             -10.7549
       148        2.0000           -0.3933513             -10.7036
       149        2.0000           -0.3880857             -10.5603
       150        2.0000           -0.3869421             -10.5292
       151        2.0000           -0.3841827             -10.4541
       152        2.0000           -0.3713598             -10.1052
       153        2.0000           -0.3712564             -10.1024
       154        2.0000           -0.3544233              -9.6443
       155        2.0000           -0.3444255              -9.3723
       156        2.0000           -0.3350320              -9.1167 (HOMO)
       157                         -0.2481229              -6.7518 (LUMO)
       158                         -0.2278789              -6.2009
       159                         -0.2267769              -6.1709
       160                         -0.2261196              -6.1530
       161                         -0.2249401              -6.1209
       162                         -0.2246773              -6.1138
       163                         -0.2234130              -6.0794
       164                         -0.2195116              -5.9732
       165                         -0.2166072              -5.8942
       166                         -0.2132911              -5.8039
       167                         -0.2034347              -5.5357
       ...                                ...                  ...
       310                          0.7221235              19.6500
      -------------------------------------------------------------
                  HL-Gap            0.0869092 Eh            2.3649 eV

     #   Z          covCN         q      C6AA      α(0)
     1   6 C        3.761    -0.109    22.624     6.781
     2   6 C        3.902     0.026    20.083     6.370
     3   6 C        3.761    -0.106    22.567     6.772
     4   6 C        3.761    -0.106    22.572     6.773
     5   6 C        2.973     0.010    27.797     8.648
     6   6 C        2.928    -0.035    28.874     8.812
     7   6 C        2.920    -0.042    29.037     8.837
     8   6 C        2.933     0.065    26.535     8.448
     9   7 N        2.755    -0.061    22.413     7.031
    10   6 C        2.927     0.057    26.714     8.476
    11   6 C        2.918    -0.061    29.507     8.908
    12   6 C        2.927    -0.037    28.918     8.819
    13   6 C        2.968    -0.009    28.228     8.715
    14   6 C        3.902     0.024    20.122     6.376
    15   6 C        3.761    -0.105    22.548     6.769
    16   6 C        3.761    -0.103    22.510     6.763
    17   6 C        3.761    -0.103    22.511     6.764
    18   6 C        2.930    -0.047    29.173     8.858
    19   6 C        2.885    -0.088    30.203     9.010
    20   5 B        2.723     0.186    18.581     7.223
    21   6 C        2.885    -0.088    30.203     9.010
    22   6 C        2.930    -0.047    29.173     8.858
    23   6 C        2.968    -0.008    28.226     8.715
    24   6 C        3.902     0.024    20.122     6.376
    25   6 C        3.761    -0.105    22.544     6.768
    26   6 C        3.761    -0.103    22.511     6.764
    27   6 C        3.761    -0.103    22.512     6.764
    28   6 C        2.927    -0.037    28.918     8.819
    29   6 C        2.918    -0.061    29.507     8.908
    30   6 C        2.927     0.057    26.715     8.476
    31   7 N        2.755    -0.061    22.411     7.031
    32   6 C        2.933     0.065    26.536     8.448
    33   6 C        2.921    -0.040    29.006     8.832
    34   6 C        2.925    -0.039    28.973     8.827
    35   6 C        2.973     0.010    27.797     8.648
    36   6 C        3.902     0.026    20.083     6.370
    37   6 C        3.761    -0.109    22.624     6.781
    38   6 C        3.761    -0.106    22.566     6.772
    39   6 C        3.761    -0.106    22.573     6.773
    40   6 C        2.928    -0.035    28.873     8.812
    41   6 C        2.920    -0.042    29.036     8.836
    42   6 C        2.927     0.062    26.612     8.460
    43   6 C        2.922    -0.092    30.308     9.028
    44   6 C        2.923     0.065    26.541     8.448
    45   7 N        2.754    -0.086    22.915     7.110
    46   6 C        2.923     0.068    26.472     8.437
    47   6 C        2.922    -0.049    29.221     8.865
    48   6 C        2.919    -0.032    28.787     8.798
    49   6 C        2.919    -0.041    29.019     8.834
    50   6 C        2.919    -0.031    28.774     8.797
    51   6 C        2.922    -0.048    29.184     8.859
    52   6 C        2.923     0.068    26.472     8.437
    53   6 C        2.922    -0.048    29.185     8.859
    54   6 C        2.919    -0.031    28.774     8.796
    55   6 C        2.919    -0.041    29.020     8.834
    56   6 C        2.919    -0.032    28.787     8.798
    57   6 C        2.922    -0.049    29.223     8.865
    58   6 C        2.922    -0.092    30.307     9.028
    59   6 C        2.928     0.062    26.612     8.460
    60   6 C        2.897    -0.112    30.846     9.106
    61   6 C        2.921    -0.040    29.006     8.832
    62   6 C        2.925    -0.039    28.972     8.827
    63   1 H        0.925     0.037     2.484     2.465
    64   1 H        0.925     0.037     2.484     2.465
    65   1 H        0.925     0.040     2.451     2.448
    66   1 H        0.925     0.038     2.480     2.463
    67   1 H        0.925     0.033     2.542     2.493
    68   1 H        0.925     0.041     2.432     2.439
    69   1 H        0.925     0.041     2.431     2.438
    70   1 H        0.925     0.038     2.478     2.462
    71   1 H        0.925     0.034     2.530     2.488
    72   1 H        0.926     0.040     2.455     2.450
    73   1 H        0.926     0.036     2.500     2.472
    74   1 H        0.926     0.016     2.798     2.616
    75   1 H        0.926     0.019     2.741     2.589
    76   1 H        0.925     0.034     2.533     2.489
    77   1 H        0.925     0.034     2.536     2.491
    78   1 H        0.925     0.036     2.499     2.472
    79   1 H        0.925     0.031     2.570     2.507
    80   1 H        0.925     0.033     2.546     2.495
    81   1 H        0.925     0.035     2.515     2.480
    82   1 H        0.925     0.035     2.521     2.483
    83   1 H        0.925     0.033     2.543     2.494
    84   1 H        0.925     0.030     2.584     2.514
    85   1 H        0.926     0.039     2.459     2.452
    86   1 H        0.926     0.039     2.459     2.452
    87   1 H        0.925     0.034     2.537     2.491
    88   1 H        0.925     0.036     2.502     2.474
    89   1 H        0.925     0.034     2.532     2.489
    90   1 H        0.925     0.033     2.544     2.494
    91   1 H        0.925     0.035     2.520     2.482
    92   1 H        0.925     0.030     2.583     2.513
    93   1 H        0.925     0.031     2.571     2.507
    94   1 H        0.925     0.033     2.543     2.494
    95   1 H        0.925     0.035     2.517     2.481
    96   1 H        0.926     0.019     2.741     2.589
    97   1 H        0.926     0.016     2.797     2.616
    98   1 H        0.926     0.036     2.507     2.476
    99   1 H        0.926     0.047     2.363     2.404
   100   1 H        0.925     0.040     2.451     2.448
   101   1 H        0.925     0.037     2.484     2.465
   102   1 H        0.925     0.037     2.483     2.464
   103   1 H        0.925     0.041     2.431     2.438
   104   1 H        0.925     0.038     2.481     2.463
   105   1 H        0.925     0.033     2.542     2.493
   106   1 H        0.925     0.041     2.431     2.438
   107   1 H        0.925     0.034     2.531     2.488
   108   1 H        0.925     0.038     2.477     2.461
   109   1 H        0.926     0.040     2.455     2.450
   110   1 H        0.926     0.036     2.501     2.473
   111   1 H        0.926     0.018     2.765     2.601
   112   1 H        0.926     0.028     2.609     2.526
   113   1 H        0.926     0.031     2.566     2.505
   114   1 H        0.926     0.030     2.581     2.512
   115   1 H        0.926     0.032     2.561     2.503
   116   1 H        0.926     0.030     2.585     2.514
   117   1 H        0.926     0.030     2.584     2.514
   118   1 H        0.926     0.032     2.561     2.503
   119   1 H        0.926     0.030     2.582     2.513
   120   1 H        0.926     0.031     2.567     2.505
   121   1 H        0.926     0.028     2.610     2.527
   122   1 H        0.926     0.018     2.766     2.601
   123   1 H        0.926     0.036     2.509     2.477
   124   1 H        0.926     0.047     2.363     2.404

molecular dipole:
                 x           y           z       tot (Debye)
 q only:       -0.059       0.775       0.017
   full:       -0.066       0.894       0.021       2.279

 projected vibrational frequencies (cm⁻¹)
eigval :       -0.00    -0.00    -0.00    -0.00     0.00     0.00
eigval :        9.10    12.59    16.81    20.66    23.74    25.74
eigval :       29.41    30.69    32.07    36.93    38.73    41.86
eigval :       49.33    57.98    58.58    62.80    65.60    69.02
eigval :       76.71    81.55    92.43    96.23    97.35   101.36
eigval :      106.64   138.90   144.64   155.27   163.10   170.52
eigval :      174.55   178.03   179.47   182.16   187.79   196.91
eigval :      207.31   209.64   213.83   221.09   223.00   225.72
eigval :      232.49   234.86   239.75   246.12   249.17   251.69
eigval :      255.20   275.12   280.23   297.76   309.49   310.57
eigval :      313.07   316.56   319.00   320.72   323.77   327.03
eigval :      335.31   345.97   357.16   358.93   362.64   368.83
eigval :      370.07   373.85   378.55   383.43   384.10   385.53
eigval :      392.31   398.41   399.69   406.23   415.10   418.34
eigval :      426.67   431.85   445.97   449.18   449.70   454.90
eigval :      464.78   466.86   470.72   474.17   484.12   493.61
eigval :      499.99   514.44   527.55   528.84   551.35   553.76
eigval :      566.36   573.11   583.55   584.22   588.42   589.38
eigval :      596.10   607.64   610.94   614.97   617.22   619.53
eigval :      632.36   660.50   660.99   665.37   665.51   684.42
eigval :      689.19   698.51   710.20   711.99   716.47   723.85
eigval :      732.66   754.88   756.04   776.28   793.63   813.83
eigval :      814.90   818.96   820.47   822.16   836.58   864.91
eigval :      870.22   871.15   871.57   872.37   872.83   873.34
eigval :      875.11   880.57   887.35   888.79   891.32   904.06
eigval :      909.63   916.36   917.03   917.98   918.96   924.10
eigval :      926.45   928.04   928.69   929.30   929.91   931.96
eigval :      933.40   946.82   957.93   959.09   959.98   960.32
eigval :      960.51   961.45   961.51   962.16   962.69   963.09
eigval :      963.98   965.26   969.89   978.14  1003.78  1012.47
eigval :     1015.66  1033.74  1033.88  1034.18  1034.52  1035.20
eigval :     1035.32  1035.57  1036.93  1066.67  1081.84  1082.93
eigval :     1097.69  1107.57  1119.09  1122.84  1138.64  1139.08
eigval :     1142.92  1143.44  1143.58  1159.98  1169.70  1176.62
eigval :     1178.13  1178.49  1192.77  1194.58  1197.09  1201.23
eigval :     1202.91  1220.12  1224.61  1226.19  1226.35  1226.38
eigval :     1229.17  1231.08  1231.70  1231.84  1232.42  1243.31
eigval :     1252.44  1260.93  1270.41  1273.83  1274.28  1276.83
eigval :     1277.73  1282.69  1284.26  1291.42  1294.56  1295.05
eigval :     1304.43  1308.30  1309.29  1313.95  1315.08  1317.09
eigval :     1319.20  1326.36  1347.19  1349.81  1354.45  1376.31
eigval :     1395.54  1395.58  1397.61  1401.26  1402.27  1402.42
eigval :     1402.44  1403.62  1406.72  1406.79  1408.29  1423.72
eigval :     1426.52  1426.54  1426.67  1427.18  1427.57  1435.35
eigval :     1438.77  1448.86  1456.43  1470.47  1474.40  1478.32
eigval :     1485.98  1487.14  1487.56  1488.07  1489.89  1490.46
eigval :     1490.87  1490.93  1493.99  1494.75  1498.54  1499.28
eigval :     1499.47  1501.56  1502.39  1503.06  1503.78  1504.61
eigval :     1510.03  1511.46  1511.55  1513.43  1516.92  1516.97
eigval :     1517.62  1520.46  1535.48  1541.47  1542.37  1562.82
eigval :     1569.04  1569.24  1574.76  1579.09  1591.94  1597.67
eigval :     1599.52  1600.05  1601.74  1602.03  3014.60  3015.38
eigval :     3015.77  3016.10  3020.16  3020.89  3021.37  3021.46
eigval :     3021.48  3021.76  3022.70  3022.72  3024.14  3024.86
eigval :     3025.31  3025.56  3027.80  3027.95  3029.17  3029.40
eigval :     3029.81  3030.27  3032.48  3032.50  3033.97  3037.21
eigval :     3037.38  3038.89  3040.48  3040.63  3043.75  3043.80
eigval :     3045.06  3045.28  3048.34  3048.79  3067.49  3067.56
eigval :     3067.68  3068.52  3069.29  3069.51  3076.53  3077.59
eigval :     3078.92  3079.15  3079.54  3079.99  3082.42  3082.93
eigval :     3083.08  3083.68  3090.67  3091.00  3091.47  3091.64
eigval :     3104.69  3106.36  3117.99  3118.06  3134.77  3141.56

   temp. (K)  partition function   enthalpy   heat capacity  entropy
                                   cal/mol     cal/K/mol   cal/K/mol   J/K/mol
 298.15  VIB  0.401E+28            35627.331    218.006    221.536
         ROT  0.171E+09              888.752      2.981     40.654
         INT  0.686E+36            36516.084    220.987    262.190
         TR   0.224E+29             1481.254      4.968     45.940
         TOT                       37997.3375   225.9549   308.1298  1289.2151

       T/K    H(0)-H(T)+PV         H(T)/Eh          T*S/Eh         G(T)/Eh
   ------------------------------------------------------------------------
    298.15    0.605526E-01    0.109283E+01    0.146402E+00    0.946432E+00
   ------------------------------------------------------------------------

         :::::::::::::::::::::::::::::::::::::::::::::::::::::
         ::                  THERMODYNAMIC                  ::
         :::::::::::::::::::::::::::::::::::::::::::::::::::::
         :: total free energy        -165.070775527092 Eh   ::
         ::.................................................::
         :: total energy             -166.017207784493 Eh   ::
         :: zero point energy           1.032282063101 Eh   ::
         :: G(RRHO) w/o ZPVE           -0.085849805700 Eh   ::
         :: G(RRHO) contrib.            0.946432257401 Eh   ::
         :::::::::::::::::::::::::::::::::::::::::::::::::::::

           -------------------------------------------------
          | TOTAL ENERGY             -166.017207784493 Eh   |
          | TOTAL ENTHALPY           -164.924373109770 Eh   |
          | TOTAL FREE ENERGY        -165.070775527092 Eh   |
          | GRADIENT NORM               0.000047160419 Eh/α |
          | HOMO-LUMO GAP               2.364918989234 eV   |
           -------------------------------------------------

 * finished run on 2025/09/11 at 06:12:21.794
