   * xtb version 6.7.1 (edcfbbe) compiled by 'albert@albert-system' on 2024-07-22

   ID    Z sym.   atoms
    1    6 C      1-8, 10-19, 21-30, 32-44, 46-62
    2    7 N      9, 31, 45
    3    5 B      20
    4    1 H      63-124

          program call               : xtb data2507/toluene/2tPAB/2tPAB_toluene_T1_crest.xyz --gfn 2 --uhf 2 --gbsa toluene --ohess vtight --parallel 40 --molden --ceasefiles --namespace data2507/toluene/2tPAB/2tPAB_toluene_T1_finalOpt
      * Solvation model:               GBSA
        Solvent                        toluene
        Solvent mass                       9.2140E+01 g/mol
          :  Hamiltonian                  GFN2-xTB          :
 * total energy  :  -165.9231140 Eh     change       -0.3904987E-07 Eh
 * total energy  :  -165.9232149 Eh     change       -0.1009080E-03 Eh
 * total energy  :  -165.9233140 Eh     change       -0.9911355E-04 Eh
 * total energy  :  -165.9233607 Eh     change       -0.4673905E-04 Eh
 * total energy  :  -165.9234252 Eh     change       -0.6452605E-04 Eh
 * total energy  :  -165.9234796 Eh     change       -0.5433587E-04 Eh
 * total energy  :  -165.9235261 Eh     change       -0.4649810E-04 Eh
 * total energy  :  -165.9235510 Eh     change       -0.2489071E-04 Eh
 * total energy  :  -165.9235761 Eh     change       -0.2509147E-04 Eh
 * total energy  :  -165.9235958 Eh     change       -0.1976839E-04 Eh
 * total energy  :  -165.9254006 Eh     change       -0.3881791E-06 Eh
 * total energy  :  -165.9254010 Eh     change       -0.4036125E-06 Eh
 * total energy  :  -165.9254014 Eh     change       -0.4635449E-06 Eh
 * total energy  :  -165.9254018 Eh     change       -0.3689630E-06 Eh
 * total energy  :  -165.9254021 Eh     change       -0.2429819E-06 Eh
 * total energy  :  -165.9254023 Eh     change       -0.2061531E-06 Eh
 * total energy  :  -165.9254025 Eh     change       -0.2299874E-06 Eh
 * total energy  :  -165.9254028 Eh     change       -0.2898742E-06 Eh
 * total energy  :  -165.9254028 Eh     change       -0.7564921E-08 Eh
   *** GEOMETRY OPTIMIZATION CONVERGED AFTER 94 ITERATIONS ***

 final structure:
================
124
 xtb: 6.7.1 (edcfbbe)
C            7.72180971222635        2.55594009618324       -1.51849993646212
C            7.32143514641800        2.09099799993813       -0.11517138189522
C            7.16019516816356        3.33512069428654        0.77155786810652
C            8.44462692209910        1.20015676566662        0.43639639657453
C            6.01784083571897        1.30793886521263       -0.10768774542652
C            5.50661854111186        0.83680749767849        1.10125703920225
C            4.31926328114800        0.13564181815642        1.16210081472456
C            3.60136825582191       -0.11846250429697       -0.00077277426804
N            2.35868651435372       -0.81190543421446        0.04742427083607
C            2.37234434196350       -2.18598823111487        0.19483486496842
C            3.60102750525667       -2.84497292230623        0.28111337674517
C            3.66359751576646       -4.20381066288211        0.53260803752116
C            2.49869191741661       -4.94885486969895        0.73682550653602
C            2.61517305580085       -6.42340255501941        1.08827689355755
C            3.33149102867865       -7.15896753858654       -0.05478402035778
C            1.25612290856579       -7.09422365019405        1.30679227346650
C            3.42995090971200       -6.56317601626791        2.38377134734232
C            1.28509008347197       -4.29407567675364        0.58978114735601
C            1.16161109951269       -2.93436708895531        0.25659799424864
B           -0.16219011931512       -2.19927445078218       -0.01559460116484
C           -1.57759246043083       -2.73981745402859       -0.28432369438060
C           -1.89381040954769       -4.07583120583081       -0.58400696828128
C           -3.18636866369168       -4.54669721500862       -0.75920549523658
C           -3.51040919128283       -6.00204232248861       -1.05805153370782
C           -2.26155111966067       -6.88214418916778       -1.16129380643766
C           -4.39382042985047       -6.56096575586068        0.06825237108075
C           -4.26383181765675       -6.08479791703144       -2.39460445606282
C           -4.23154619259050       -3.62685152318387       -0.63585469854305
C           -3.97419522855006       -2.28744275795480       -0.40506949100231
C           -2.66502319022068       -1.82024205553681       -0.26782761263720
N           -2.45290781751069       -0.46277417045640       -0.11928167592562
C           -3.58358498754248        0.40274686649445       -0.06233254557295
C           -4.06617741725046        0.83162352154953        1.16459979845461
C           -5.14409788278888        1.69758837059314        1.22671779806205
C           -5.76824410337943        2.15987106533427        0.07388416985689
C           -6.94821414218865        3.11900480750254        0.09996255704200
C           -7.33044027938011        3.54435087556283        1.52080810830542
C           -6.58534890468462        4.38271656646564       -0.69427306237969
C           -8.16283922304510        2.43119460837951       -0.54116391101368
C           -5.27570484823722        1.70930177615200       -1.15021952250614
C           -4.20017455424017        0.84677053624631       -1.22549993343788
C           -1.19957688065071        0.13189896429657       -0.07358557402518
C           -1.10071965045922        1.52024834055835       -0.07911026318799
C            0.15244283211423        2.13923695538159       -0.00346357954539
N            0.25231628546415        3.53721051675679        0.01754344312860
C            1.28235586855760        4.16561846275143       -0.68523297775766
C            1.90855388965197        5.30201493918506       -0.16658260573067
C            2.93873705150325        5.90730570409816       -0.85789723417097
C            3.37042085155748        5.39291899967657       -2.07123921737856
C            2.75472302391609        4.26406314152160       -2.59019553407264
C            1.72091994369718        3.65393863522247       -1.90907694308801
C           -0.67720005789279        4.28525582940506        0.74237518068803
C           -1.19543934235824        3.79942630204467        1.94563320177701
C           -2.13163443613071        4.53069664064216        2.64817879710555
C           -2.56756015156198        5.75813540031549        2.17281438235354
C           -2.05529595100627        6.24769496582235        0.98065146252588
C           -1.12383517796590        5.52096111316437        0.26669369676305
C            1.30366152847207        1.34597661981443        0.05292609471912
C            1.20288095786315       -0.04205383071746        0.01888481282415
C           -0.05159985147219       -0.68973638720718       -0.02792081361531
C            4.09994800945289        0.33339647970437       -1.21383597021156
C            5.29252306636261        1.03380363923035       -1.26164628312579
H            7.88340742136478        1.70934271824658       -2.18196553514364
H            6.96143631157518        3.20632444210875       -1.94506733710453
H            8.65169248544342        3.11824337284203       -1.46109601076105
H            6.95422175722751        3.06484579433070        1.80350926079209
H            6.33911953375236        3.95116999265621        0.40975677939737
H            8.07223344422924        3.92788867744414        0.75169115070109
H            9.38879213061650        1.74048923176625        0.42558542010734
H            8.24086988196649        0.89176024787011        1.45818754224041
H            8.55151811692405        0.30602823728182       -0.17488732210548
H            6.03803417143026        1.02153499471841        2.02222420836335
H            3.93766633190425       -0.21786157270584        2.10920010275963
H            4.52313037491806       -2.29569310012621        0.16268007015391
H            4.63577012278955       -4.66937406178136        0.58915633431227
H            3.42063573263269       -8.21831465107271        0.17865898202835
H            4.32935955033563       -6.76067505838896       -0.21808977013841
H            2.76763090240243       -7.05479613407431       -0.97999875994891
H            0.65868748531147       -7.06338680604462        0.39894526745778
H            0.70648927994282       -6.61317207443079        2.11298526418326
H            1.40521134626539       -8.13869368222390        1.57529063173158
H            3.50526713752911       -7.61103039932124        2.66853873273294
H            2.94529720343872       -6.01860850611960        3.19216076530130
H            4.43590534545097       -6.17014133483633        2.26362082921471
H            0.36927728236356       -4.83634058442086        0.74518274034497
H           -1.06550289793511       -4.75362808879140       -0.68945852841146
H           -1.71462162019525       -6.88873433656432       -0.22160124913826
H           -1.60331097477361       -6.53775109335703       -1.95597124743109
H           -2.55551257525882       -7.90596392518876       -1.38635532326181
H           -5.33011219547565       -6.01477949761271        0.14578697372803
H           -4.62431424977491       -7.60787549161749       -0.12031447636512
H           -3.87610764286216       -6.48712311665388        1.02291148668554
H           -3.64843690247401       -5.68326688499801       -3.19771796000142
H           -5.19212298134792       -5.52066159424071       -2.36198468500082
H           -4.50222483942643       -7.12112754279477       -2.62676167052225
H           -5.25957428320450       -3.94075608234801       -0.73494967800712
H           -4.80578923230840       -1.60122469462190       -0.34359497012229
H           -3.59154012493600        0.48529744511139        2.07115652996713
H           -5.48627664146842        2.00894601225554        2.19949657473440
H           -8.16678002328261        4.23910998633827        1.47710966021448
H           -7.63737220550002        2.68874183522365        2.11809150238420
H           -6.50118502243261        4.04740867320742        2.01329275051467
H           -7.40768838726570        5.09406135279456       -0.65816497478609
H           -6.38107641815017        4.15398752800627       -1.73648172727813
H           -5.70136304032216        4.85370710972536       -0.26868666698884
H           -9.02375932370972        3.09589071791399       -0.51860257797776
H           -8.41329978764896        1.52341529363916        0.00453013374460
H           -7.96635094376334        2.16335545421433       -1.57576396334946
H           -5.73255886680286        2.03716522552402       -2.07133997678643
H           -3.82961783827529        0.51256376018040       -2.18390485478474
H           -1.98126562544815        2.14155073089728       -0.13005157559901
H            1.58233568902676        5.69895684972047        0.78392984646534
H            3.41551445548203        6.78352560222728       -0.44210266102088
H            4.17847663376988        5.86816616942964       -2.60706819484864
H            3.07884061257731        3.85956154782890       -3.53834551821386
H            1.23688252126397        2.77972689442228       -2.31954879475204
H           -0.84925186246693        2.84845926736999        2.32352472111276
H           -2.51974520472555        4.14291090636352        3.57916769222674
H           -3.29905956483326        6.32827377461390        2.72574590147688
H           -2.39267903423694        7.20066103682870        0.59861582972333
H           -0.73630225504966        5.90013368390416       -0.66799675325668
H            2.26393905758826        1.83347977593300        0.11807146205381
H            3.54786623523354        0.13400060324645       -2.12071078461138
H            5.64471585631271        1.36651472824884       -2.22373537127557

          :  Hamiltonian                  GFN2-xTB          :
         :: gradient norm              0.000056946521 Eh/a0 ::
         :: HOMO-LUMO gap              0.418385898808 eV    ::
         :: SCC energy              -168.821116820279 Eh    ::
         :: -> dispersion             -0.167393879219 Eh    ::
         :: -> Gsolv                  -0.062249151012 Eh    ::
         :: repulsion energy           2.895714033964 Eh    ::

    * Orbital Energies and Occupations

         #    Occupation            Energy/Eh            Energy/eV
      -------------------------------------------------------------
         1        2.0000           -0.6633320             -18.0502
       ...           ...                  ...                  ...
       145        2.0000           -0.4019428             -10.9374
       146        2.0000           -0.3969479             -10.8015
       147        2.0000           -0.3955589             -10.7637
       148        2.0000           -0.3920735             -10.6689
       149        2.0000           -0.3900336             -10.6134
       150        2.0000           -0.3830286             -10.4227
       151        2.0000           -0.3790616             -10.3148
       152        2.0000           -0.3674297              -9.9983
       153        2.0000           -0.3655900              -9.9482
       154        2.0000           -0.3536064              -9.6221
       155        1.9313           -0.3453846              -9.3984
       156        1.0687           -0.3404316              -9.2636
       157        0.9996           -0.2444819              -6.6527 (HOMO)
       158        0.0002           -0.2291066              -6.2343 (LUMO)
       159        0.0001           -0.2278241              -6.1994
       160        0.0001           -0.2276557              -6.1948
       161        0.0000           -0.2269612              -6.1759
       162        0.0000           -0.2263400              -6.1590
       163        0.0000           -0.2229590              -6.0670
       164                         -0.2189544              -5.9581
       165                         -0.2171684              -5.9095
       166                         -0.2163280              -5.8866
       167                         -0.2003715              -5.4524
       168                         -0.1983980              -5.3987
       ...                                ...                  ...
       310                          0.7278828              19.8067
      -------------------------------------------------------------
                  HL-Gap            0.0153753 Eh            0.4184 eV

     #   Z          covCN         q      C6AA      α(0)
     1   6 C        3.761    -0.109    22.629     6.781
     2   6 C        3.902     0.026    20.080     6.370
     3   6 C        3.761    -0.106    22.571     6.772
     4   6 C        3.761    -0.106    22.575     6.773
     5   6 C        2.972     0.010    27.799     8.648
     6   6 C        2.927    -0.035    28.869     8.811
     7   6 C        2.919    -0.040    29.006     8.832
     8   6 C        2.932     0.062    26.612     8.460
     9   7 N        2.755    -0.038    21.973     6.962
    10   6 C        2.924     0.058    26.691     8.472
    11   6 C        2.915    -0.064    29.597     8.921
    12   6 C        2.923    -0.050    29.240     8.868
    13   6 C        2.967     0.003    27.961     8.673
    14   6 C        3.902     0.024    20.118     6.376
    15   6 C        3.761    -0.102    22.496     6.761
    16   6 C        3.761    -0.104    22.534     6.767
    17   6 C        3.761    -0.102    22.496     6.761
    18   6 C        2.926    -0.062    29.532     8.912
    19   6 C        2.883    -0.074    29.841     8.956
    20   5 B        2.724     0.136    19.336     7.368
    21   6 C        2.883    -0.074    29.846     8.956
    22   6 C        2.926    -0.062    29.533     8.912
    23   6 C        2.967     0.002    27.967     8.674
    24   6 C        3.902     0.024    20.119     6.376
    25   6 C        3.761    -0.104    22.529     6.766
    26   6 C        3.761    -0.102    22.497     6.761
    27   6 C        3.761    -0.102    22.495     6.761
    28   6 C        2.923    -0.050    29.235     8.867
    29   6 C        2.915    -0.064    29.600     8.922
    30   6 C        2.923     0.058    26.693     8.473
    31   7 N        2.755    -0.039    21.991     6.965
    32   6 C        2.933     0.063    26.591     8.457
    33   6 C        2.921    -0.040    29.003     8.832
    34   6 C        2.925    -0.038    28.949     8.824
    35   6 C        2.972     0.011    27.777     8.645
    36   6 C        3.902     0.026    20.079     6.369
    37   6 C        3.761    -0.109    22.632     6.782
    38   6 C        3.761    -0.106    22.574     6.773
    39   6 C        3.761    -0.106    22.575     6.773
    40   6 C        2.927    -0.035    28.862     8.810
    41   6 C        2.919    -0.040    29.002     8.831
    42   6 C        2.925     0.053    26.817     8.492
    43   6 C        2.919    -0.066    29.644     8.928
    44   6 C        2.920     0.042    27.050     8.529
    45   7 N        2.752    -0.076    22.719     7.079
    46   6 C        2.923     0.064    26.565     8.452
    47   6 C        2.922    -0.050    29.232     8.866
    48   6 C        2.919    -0.032    28.794     8.799
    49   6 C        2.918    -0.043    29.057     8.840
    50   6 C        2.919    -0.031    28.782     8.798
    51   6 C        2.922    -0.049    29.215     8.864
    52   6 C        2.923     0.064    26.566     8.452
    53   6 C        2.922    -0.049    29.223     8.865
    54   6 C        2.919    -0.031    28.784     8.798
    55   6 C        2.918    -0.043    29.062     8.840
    56   6 C        2.919    -0.032    28.796     8.800
    57   6 C        2.922    -0.050    29.235     8.867
    58   6 C        2.918    -0.065    29.629     8.926
    59   6 C        2.924     0.052    26.834     8.495
    60   6 C        2.894    -0.107    30.703     9.085
    61   6 C        2.921    -0.041    29.016     8.833
    62   6 C        2.925    -0.038    28.957     8.825
    63   1 H        0.925     0.038     2.482     2.464
    64   1 H        0.925     0.038     2.479     2.462
    65   1 H        0.925     0.040     2.449     2.447
    66   1 H        0.925     0.038     2.479     2.462
    67   1 H        0.925     0.033     2.538     2.491
    68   1 H        0.925     0.041     2.430     2.438
    69   1 H        0.925     0.041     2.429     2.437
    70   1 H        0.925     0.038     2.477     2.461
    71   1 H        0.925     0.034     2.530     2.487
    72   1 H        0.926     0.041     2.439     2.442
    73   1 H        0.926     0.037     2.490     2.468
    74   1 H        0.926     0.013     2.841     2.636
    75   1 H        0.926     0.014     2.832     2.632
    76   1 H        0.925     0.036     2.508     2.476
    77   1 H        0.925     0.034     2.535     2.490
    78   1 H        0.925     0.031     2.566     2.505
    79   1 H        0.925     0.036     2.501     2.473
    80   1 H        0.925     0.034     2.532     2.488
    81   1 H        0.925     0.034     2.537     2.491
    82   1 H        0.925     0.035     2.511     2.478
    83   1 H        0.925     0.031     2.578     2.511
    84   1 H        0.925     0.034     2.529     2.487
    85   1 H        0.926     0.033     2.542     2.493
    86   1 H        0.926     0.033     2.541     2.493
    87   1 H        0.925     0.036     2.505     2.475
    88   1 H        0.925     0.034     2.534     2.489
    89   1 H        0.925     0.033     2.538     2.491
    90   1 H        0.925     0.034     2.534     2.489
    91   1 H        0.925     0.035     2.510     2.478
    92   1 H        0.925     0.031     2.568     2.506
    93   1 H        0.925     0.031     2.576     2.510
    94   1 H        0.925     0.034     2.531     2.488
    95   1 H        0.925     0.035     2.510     2.478
    96   1 H        0.926     0.014     2.834     2.632
    97   1 H        0.926     0.013     2.847     2.639
    98   1 H        0.926     0.038     2.479     2.462
    99   1 H        0.926     0.049     2.332     2.388
   100   1 H        0.925     0.040     2.446     2.446
   101   1 H        0.925     0.038     2.479     2.462
   102   1 H        0.925     0.038     2.478     2.461
   103   1 H        0.925     0.042     2.427     2.436
   104   1 H        0.925     0.038     2.477     2.461
   105   1 H        0.925     0.034     2.535     2.490
   106   1 H        0.925     0.042     2.426     2.436
   107   1 H        0.925     0.034     2.529     2.487
   108   1 H        0.925     0.038     2.476     2.461
   109   1 H        0.926     0.041     2.430     2.438
   110   1 H        0.926     0.038     2.481     2.463
   111   1 H        0.926     0.027     2.628     2.535
   112   1 H        0.926     0.028     2.610     2.526
   113   1 H        0.926     0.030     2.582     2.513
   114   1 H        0.926     0.029     2.601     2.522
   115   1 H        0.926     0.031     2.573     2.508
   116   1 H        0.926     0.029     2.602     2.522
   117   1 H        0.926     0.029     2.604     2.523
   118   1 H        0.926     0.031     2.576     2.510
   119   1 H        0.926     0.029     2.603     2.523
   120   1 H        0.926     0.030     2.582     2.513
   121   1 H        0.926     0.028     2.610     2.526
   122   1 H        0.926     0.027     2.628     2.535
   123   1 H        0.926     0.037     2.487     2.466
   124   1 H        0.926     0.048     2.342     2.393

molecular dipole:
                 x           y           z       tot (Debye)
 q only:        0.029       1.103       0.009
   full:        0.041       1.219       0.007       3.101

 projected vibrational frequencies (cm⁻¹)
eigval :       -0.00    -0.00    -0.00    -0.00     0.00     0.00
eigval :        6.33     7.12    16.16    18.12    21.53    26.52
eigval :       28.58    29.45    32.21    35.81    38.66    40.00
eigval :       49.23    54.97    58.36    62.75    66.22    70.39
eigval :       71.74    81.40    89.46    93.83    98.39   102.25
eigval :      104.24   137.82   144.49   151.84   165.18   173.61
eigval :      176.28   178.73   180.29   183.44   185.27   192.11
eigval :      207.44   213.78   219.25   221.86   226.83   227.95
eigval :      232.06   233.85   235.80   240.28   248.47   249.54
eigval :      255.99   258.98   279.09   295.08   303.98   304.99
eigval :      309.01   311.73   313.26   319.50   320.40   323.00
eigval :      334.19   339.92   350.06   352.35   361.16   362.71
eigval :      367.94   371.12   379.02   381.43   382.01   385.45
eigval :      389.54   391.43   396.31   397.72   406.22   416.17
eigval :      421.88   426.79   431.43   444.76   447.35   453.07
eigval :      457.98   464.58   468.42   469.40   479.25   490.64
eigval :      494.89   505.60   520.55   523.75   526.07   551.66
eigval :      554.09   559.08   578.59   582.97   588.16   590.13
eigval :      595.69   598.74   604.94   606.78   613.15   615.82
eigval :      619.31   651.11   655.96   661.16   661.30   662.00
eigval :      685.80   688.17   696.18   707.77   714.02   720.87
eigval :      727.78   751.49   757.13   769.90   781.14   788.31
eigval :      790.26   793.95   813.43   819.56   834.81   838.54
eigval :      861.49   867.41   867.78   869.14   869.55   871.18
eigval :      871.41   873.13   873.43   875.89   878.43   882.99
eigval :      888.32   898.25   906.60   914.35   914.89   921.38
eigval :      923.08   923.62   926.07   927.05   927.96   929.08
eigval :      929.72   943.59   957.07   957.87   960.25   960.79
eigval :      961.00   961.67   961.87   962.06   962.43   963.64
eigval :      963.92   964.57   965.17   975.37   997.25  1007.63
eigval :     1013.29  1031.92  1033.33  1034.36  1034.46  1034.75
eigval :     1035.58  1035.64  1035.98  1047.88  1079.31  1080.71
eigval :     1087.79  1089.35  1121.05  1123.97  1133.17  1138.29
eigval :     1138.77  1141.96  1142.76  1150.94  1158.81  1159.71
eigval :     1177.25  1178.41  1186.29  1192.72  1193.80  1198.84
eigval :     1199.94  1204.76  1218.45  1221.46  1223.09  1223.80
eigval :     1225.74  1226.11  1226.99  1227.90  1231.65  1231.76
eigval :     1241.57  1244.50  1257.97  1264.61  1269.31  1272.63
eigval :     1272.90  1275.30  1277.62  1280.81  1284.47  1287.13
eigval :     1294.23  1301.15  1306.70  1307.41  1311.99  1312.88
eigval :     1315.16  1324.24  1329.53  1334.56  1339.24  1354.07
eigval :     1361.37  1369.38  1382.89  1395.49  1395.67  1400.51
eigval :     1400.96  1401.88  1403.15  1403.22  1403.42  1406.42
eigval :     1407.02  1407.75  1414.97  1424.82  1426.29  1427.15
eigval :     1427.37  1432.70  1441.57  1446.46  1465.33  1467.41
eigval :     1469.40  1475.48  1481.32  1483.56  1487.78  1488.62
eigval :     1488.92  1490.10  1491.47  1491.59  1491.90  1493.17
eigval :     1493.54  1498.07  1498.85  1499.44  1499.52  1501.65
eigval :     1503.09  1503.25  1503.36  1507.97  1508.73  1508.96
eigval :     1510.75  1511.60  1516.82  1517.24  1517.84  1520.09
eigval :     1527.76  1551.13  1553.92  1555.69  1558.44  1561.31
eigval :     1573.86  1588.08  1590.67  1594.63  3013.73  3013.94
eigval :     3015.44  3015.84  3020.44  3020.72  3020.96  3021.45
eigval :     3021.71  3021.73  3023.14  3023.56  3024.10  3025.64
eigval :     3025.76  3026.57  3028.22  3028.38  3029.44  3030.20
eigval :     3030.22  3030.49  3032.55  3033.26  3034.84  3037.23
eigval :     3037.77  3039.28  3041.22  3041.60  3044.41  3044.61
eigval :     3044.90  3045.15  3048.32  3048.82  3068.09  3068.84
eigval :     3069.51  3069.84  3071.82  3072.42  3076.52  3077.26
eigval :     3079.59  3080.92  3081.79  3081.91  3082.94  3083.40
eigval :     3084.97  3085.46  3091.01  3091.56  3091.95  3092.19
eigval :     3098.67  3099.83  3118.60  3119.41  3133.75  3140.36

   temp. (K)  partition function   enthalpy   heat capacity  entropy
                                   cal/mol     cal/K/mol   cal/K/mol   J/K/mol
 298.15  VIB  0.214E+29            35931.649    219.572    224.299
         ROT  0.172E+09              888.752      2.981     40.660
         INT  0.368E+37            36820.401    222.553    264.959
         TR   0.224E+29             1481.254      4.968     45.940
         TOT                       38301.6549   227.5211   310.8991  1300.8019

       T/K    H(0)-H(T)+PV         H(T)/Eh          T*S/Eh         G(T)/Eh
   ------------------------------------------------------------------------
    298.15    0.610376E-01    0.108899E+01    0.147718E+00    0.941269E+00
   ------------------------------------------------------------------------

         :::::::::::::::::::::::::::::::::::::::::::::::::::::
         ::                  THERMODYNAMIC                  ::
         :::::::::::::::::::::::::::::::::::::::::::::::::::::
         :: total free energy        -164.984133372471 Eh   ::
         ::.................................................::
         :: total energy             -165.925402790071 Eh   ::
         :: zero point energy           1.027950051450 Eh   ::
         :: G(RRHO) w/o ZPVE           -0.086680633850 Eh   ::
         :: G(RRHO) contrib.            0.941269417600 Eh   ::
         :::::::::::::::::::::::::::::::::::::::::::::::::::::

           -------------------------------------------------
          | TOTAL ENERGY             -165.925402790071 Eh   |
          | TOTAL ENTHALPY           -164.836415166398 Eh   |
          | TOTAL FREE ENERGY        -164.984133372471 Eh   |
          | GRADIENT NORM               0.000056568667 Eh/α |
          | HOMO-LUMO GAP               0.418383751080 eV   |
           -------------------------------------------------

 * finished run on 2025/09/11 at 07:03:20.080
