   * xtb version 6.7.1 (edcfbbe) compiled by 'albert@albert-system' on 2024-07-22

   ID    Z sym.   atoms
    1    6 C      1-8, 10-19, 21-30, 32-44, 46-62
    2    7 N      9, 31, 45
    3    5 B      20
    4    1 H      63-124

          program call               : xtb data2507/toluene/2tPAB/2tPAB_toluene_S0_finalOpt.xtbopt.xyz --gfn 2 --uhf 2 --gbsa toluene --ohess vtight --parallel 40 --molden --ceasefiles --namespace data2507/toluene/2tPAB/2tPAB_toluene_T1_preOpt
      * Solvation model:               GBSA
        Solvent                        toluene
        Solvent mass                       9.2140E+01 g/mol
          :  Hamiltonian                  GFN2-xTB          :
 * total energy  :  -165.9241307 Eh     change       -0.1529287E-08 Eh
 * total energy  :  -165.9250733 Eh     change       -0.9425803E-03 Eh
 * total energy  :  -165.9252783 Eh     change       -0.2049989E-03 Eh
 * total energy  :  -165.9252940 Eh     change       -0.1572790E-04 Eh
 * total energy  :  -165.9253043 Eh     change       -0.1027109E-04 Eh
 * total energy  :  -165.9253089 Eh     change       -0.4630481E-05 Eh
 * total energy  :  -165.9253228 Eh     change       -0.1390435E-04 Eh
 * total energy  :  -165.9253112 Eh     change        0.1165068E-04 Eh
 * total energy  :  -165.9253243 Eh     change       -0.1314335E-04 Eh
 * total energy  :  -165.9253287 Eh     change       -0.4396593E-05 Eh
 * total energy  :  -165.9253683 Eh     change       -0.5333680E-06 Eh
 * total energy  :  -165.9253691 Eh     change       -0.7893252E-06 Eh
 * total energy  :  -165.9253701 Eh     change       -0.9813598E-06 Eh
 * total energy  :  -165.9253708 Eh     change       -0.7167643E-06 Eh
 * total energy  :  -165.9253712 Eh     change       -0.4310075E-06 Eh
 * total energy  :  -165.9253715 Eh     change       -0.3099840E-06 Eh
 * total energy  :  -165.9253718 Eh     change       -0.2715589E-06 Eh
 * total energy  :  -165.9253721 Eh     change       -0.2786876E-06 Eh
 * total energy  :  -165.9253721 Eh     change       -0.3864784E-08 Eh
   *** GEOMETRY OPTIMIZATION CONVERGED AFTER 44 ITERATIONS ***

 final structure:
================
124
 xtb: 6.7.1 (edcfbbe)
C            7.67925172668264        2.65300380743192       -1.52347075700143
C            7.27675285757526        2.23830599113018       -0.10507927419824
C            7.08929816428434        3.51455297529481        0.72895385066680
C            8.41028267414782        1.38929895781212        0.48973696488030
C            5.98787192995932        1.43161147896152       -0.07520312010114
C            5.46721999917707        1.01282679856347        1.14868904496756
C            4.29432702505527        0.28890260026954        1.22814800231385
C            3.60327982423358       -0.04344996982260        0.06916699472786
N            2.37477571623251       -0.76185633036767        0.12927574810706
C            2.41446033931038       -2.13359034916061        0.29431210202392
C            3.65288411635718       -2.76192290627459        0.44469756236166
C            3.73620775732901       -4.11842600941769        0.70356733056535
C            2.58173787396921       -4.89406296672991        0.84269047184611
C            2.71587630434031       -6.36703684753366        1.19479315835028
C            3.55418352010145       -7.07216155710264        0.11737242756363
C            1.36589173327467       -7.08385946626282        1.28764843582919
C            3.41612010140211       -6.48800156210969        2.55732799743035
C            1.36090528415801       -4.26783014668279        0.64172443110934
C            1.21995620533784       -2.90928990575864        0.31180507636825
B           -0.11213724520096       -2.20177928595617        0.00946259162780
C           -1.50905913543863       -2.77073039671662       -0.29319655172929
C           -1.78729117489821       -4.10686539184043       -0.62731390992851
C           -3.06531772404653       -4.60458395651495       -0.83222436434531
C           -3.34825127505345       -6.05407300294395       -1.19318115846802
C           -2.07722618244973       -6.90145464033151       -1.29964417194059
C           -4.24663255224919       -6.67905051186896       -0.11473551893599
C           -4.06500107873035       -6.09405663272156       -2.55195671286783
C           -4.13526384439078       -3.71659703455356       -0.68934001943301
C           -3.91466904250958       -2.37646675263463       -0.42584307903708
C           -2.61866207512556       -1.87793801596460       -0.27447079567115
N           -2.43995529405702       -0.51745586360023       -0.11024869227320
C           -3.58977415885392        0.32208835663036       -0.05783534637418
C           -4.07472641997026        0.75591383576919        1.16661807357453
C           -5.17192278489417        1.59747486085799        1.22466013426566
C           -5.81374558228361        2.03067911195027        0.07016336367436
C           -7.01542646261413        2.96261987783623        0.09176913381665
C           -7.40001483137427        3.39522633823278        1.50979866302157
C           -6.68616878521407        4.22519906584289       -0.71874258437123
C           -8.21738386696973        2.24009933994644       -0.53495490494915
C           -5.31807464980849        1.57607728653316       -1.15133269970031
C           -4.22406970344641        0.73691338646194       -1.22252560535086
C           -1.20031408374877        0.10559060426005       -0.05353803824267
C           -1.13089618768092        1.49554659733744       -0.07069228945781
C            0.10821741471921        2.14152014964623        0.00990022014175
N            0.17923983124422        3.54144694373694        0.00897781750600
C            1.20316082717186        4.17948486493213       -0.69389883645345
C            1.79781187168849        5.33920302640327       -0.18980585915831
C            2.82254314880763        5.95424357936090       -0.88051331111512
C            3.28078562507490        5.42637744317081       -2.07829476770369
C            2.69658193234972        4.27442799762279       -2.58268885229903
C            1.66774648984509        3.65483359437302       -1.90263175075241
C           -0.77361881642658        4.28221579402270        0.71052417037959
C           -1.29429499193301        3.80713657332743        1.91696304961412
C           -2.25226519991645        4.53145172185053        2.59699978702020
C           -2.70845481341742        5.74088488239853        2.09522187083302
C           -2.19448954669276        6.21938167175776        0.89929268494211
C           -1.24086028402412        5.49958316334064        0.20802404121292
C            1.27552836770952        1.37344329532192        0.09071049676008
C            1.20427581133254       -0.01651669088773        0.07266798152265
C           -0.03534861594750       -0.69059118176581        0.00977424737749
C            4.11224297690040        0.35448253599955       -1.15793848524132
C            5.28869145540067        1.08030623798409       -1.22420964888573
H            7.86624641203927        1.78332471826450       -2.14928071629044
H            6.90798556753893        3.26707911352056       -1.98311082154934
H            8.59566001230883        3.23835688092136       -1.48244609234885
H            6.87888050919885        3.28406246158620        1.76955883296621
H            6.26261010083719        4.10303511287087        0.33576401055698
H            7.99275644413171        4.11951461553115        0.69188604457990
H            9.34501604222532        1.94542247171576        0.46614328073447
H            8.20196821053307        1.11677456240254        1.52081437793575
H            8.53810891226069        0.47445051514298       -0.08586102635527
H            5.97969865885145        1.25660300321790        2.06666217356684
H            3.90413223828170       -0.02184511480690        2.18667437280271
H            4.56601781360242       -2.18987293224189        0.37307424250341
H            4.71554166013945       -4.55826733041543        0.81576007199915
H            3.63937621126647       -8.13335652640139        0.34385281020405
H            4.55624059153092       -6.65605896991159        0.05770982988169
H            3.08125809870929       -6.96319667583493       -0.85697373238833
H            0.84596571018824       -7.05415904968813        0.33313748791513
H            0.73532534751405       -6.63582981305790        2.05244094003802
H            1.52594755731421       -8.12787071240753        1.55167306369368
H            3.52733342171639       -7.53566232865091        2.83080550861226
H            2.82798889884239       -5.99022320773387        3.32626756809351
H            4.40314685464591       -6.03359519732169        2.53630095204111
H            0.45200344824900       -4.83251655111119        0.75096179301000
H           -0.94055191292045       -4.76078555471174       -0.73835646518109
H           -1.55127312377220       -6.93064558411273       -0.34844285004573
H           -1.40950587391584       -6.51299663861478       -2.06548351535082
H           -2.34204229618726       -7.92245990487523       -1.56931701278314
H           -5.20036895645804       -6.16304877984604       -0.04415329122296
H           -4.44143699035568       -7.72410877425485       -0.34834572072849
H           -3.75802350860881       -6.62680484643774        0.85656560814335
H           -3.43800630779084       -5.64406492309073       -3.31968803872125
H           -5.00548741669586       -5.55042514610536       -2.51925418466072
H           -4.27467547570430       -7.12370536785142       -2.83581403350761
H           -5.15411354874246       -4.05452586570671       -0.80268824700129
H           -4.76446850744376       -1.71413914182056       -0.35230035249048
H           -3.58669528514138        0.43240582184901        2.07447711224733
H           -5.51560046081317        1.91265353737316        2.19567794322842
H           -8.25554542924965        4.06606695055490        1.46326056041942
H           -7.67968287116594        2.53908600830458        2.11954209399215
H           -6.58166328911126        3.92680609117850        1.99047549569691
H           -7.52405634032765        4.91826881031087       -0.68502909058636
H           -6.48345250916182        3.98938703718663       -1.75968814366299
H           -5.81037365069485        4.72071635491485       -0.30431190788319
H           -9.09257683538923        2.88607140592720       -0.51691610708479
H           -8.44551087659431        1.33409303412409        0.02334647212185
H           -8.01954520418970        1.96348582917409       -1.56699028298045
H           -5.78751226078425        1.88210252780434       -2.07365054823979
H           -3.85179194627930        0.39908199786686       -2.17899222411180
H           -2.02366351798353        2.09749848023759       -0.13928230316877
H            1.45143236808130        5.74676351515237        0.74901695577206
H            3.27452361655021        6.84873012325879       -0.47610167794836
H            4.08500663137456        5.90902781663823       -2.61328875293665
H            3.04142797625438        3.85899177185508       -3.51872194127998
H            1.20784420743542        2.76275677688910       -2.30226124923916
H           -0.93280014029816        2.87022979288645        2.31505360266123
H           -2.64167559665945        4.15248559380190        3.53107135207940
H           -3.45711319374193        6.30554747300286        2.63053444881804
H           -2.54762241307935        7.15800115619891        0.49657546291212
H           -0.85170407606725        5.86987598248179       -0.72955417067116
H            2.22456150570485        1.88190725324446        0.16033185618591
H            3.58035736899854        0.09388684665406       -2.06140851562337
H            5.64839810858798        1.37129129433319       -2.19696508696460

          :  Hamiltonian                  GFN2-xTB          :
         :: gradient norm              0.000039650081 Eh/a0 ::
         :: HOMO-LUMO gap              0.415455018999 eV    ::
         :: SCC energy              -168.821222337126 Eh    ::
         :: -> dispersion             -0.167362978165 Eh    ::
         :: -> Gsolv                  -0.062222352502 Eh    ::
         :: repulsion energy           2.895850254508 Eh    ::

    * Orbital Energies and Occupations

         #    Occupation            Energy/Eh            Energy/eV
      -------------------------------------------------------------
         1        2.0000           -0.6632125             -18.0469
       ...           ...                  ...                  ...
       145        2.0000           -0.4019040             -10.9364
       146        2.0000           -0.3970102             -10.8032
       147        2.0000           -0.3956412             -10.7659
       148        2.0000           -0.3920446             -10.6681
       149        2.0000           -0.3899786             -10.6119
       150        2.0000           -0.3829423             -10.4204
       151        2.0000           -0.3790414             -10.3142
       152        2.0000           -0.3673681              -9.9966
       153        2.0000           -0.3655002              -9.9458
       154        2.0000           -0.3536389              -9.6230
       155        1.9295           -0.3453390              -9.3972
       156        1.0705           -0.3404389              -9.2638
       157        0.9996           -0.2443639              -6.6495 (HOMO)
       158        0.0003           -0.2290962              -6.2340 (LUMO)
       159        0.0001           -0.2278087              -6.1990
       160        0.0001           -0.2276650              -6.1951
       161        0.0000           -0.2268016              -6.1716
       162        0.0000           -0.2266543              -6.1676
       163        0.0000           -0.2229281              -6.0662
       164                         -0.2189192              -5.9571
       165                         -0.2171009              -5.9076
       166                         -0.2162247              -5.8838
       167                         -0.2003064              -5.4506
       168                         -0.1983405              -5.3971
       ...                                ...                  ...
       310                          0.7281894              19.8150
      -------------------------------------------------------------
                  HL-Gap            0.0152677 Eh            0.4155 eV

     #   Z          covCN         q      C6AA      α(0)
     1   6 C        3.761    -0.109    22.631     6.782
     2   6 C        3.902     0.026    20.079     6.370
     3   6 C        3.761    -0.106    22.573     6.773
     4   6 C        3.761    -0.106    22.574     6.773
     5   6 C        2.972     0.010    27.787     8.647
     6   6 C        2.927    -0.035    28.867     8.811
     7   6 C        2.919    -0.040    29.005     8.832
     8   6 C        2.932     0.062    26.601     8.458
     9   7 N        2.755    -0.039    21.987     6.964
    10   6 C        2.923     0.058    26.692     8.473
    11   6 C        2.915    -0.064    29.599     8.921
    12   6 C        2.923    -0.050    29.238     8.867
    13   6 C        2.967     0.003    27.964     8.674
    14   6 C        3.902     0.024    20.119     6.376
    15   6 C        3.761    -0.102    22.498     6.762
    16   6 C        3.761    -0.104    22.533     6.767
    17   6 C        3.761    -0.102    22.494     6.761
    18   6 C        2.926    -0.062    29.532     8.912
    19   6 C        2.883    -0.074    29.844     8.956
    20   5 B        2.724     0.136    19.334     7.368
    21   6 C        2.883    -0.074    29.845     8.956
    22   6 C        2.926    -0.062    29.533     8.912
    23   6 C        2.967     0.003    27.964     8.674
    24   6 C        3.902     0.024    20.119     6.376
    25   6 C        3.761    -0.104    22.533     6.767
    26   6 C        3.761    -0.102    22.497     6.762
    27   6 C        3.761    -0.102    22.494     6.761
    28   6 C        2.923    -0.050    29.237     8.867
    29   6 C        2.915    -0.064    29.599     8.921
    30   6 C        2.923     0.058    26.691     8.472
    31   7 N        2.755    -0.039    21.988     6.964
    32   6 C        2.932     0.063    26.597     8.458
    33   6 C        2.921    -0.041    29.007     8.832
    34   6 C        2.925    -0.038    28.951     8.824
    35   6 C        2.972     0.010    27.784     8.646
    36   6 C        3.902     0.026    20.079     6.369
    37   6 C        3.761    -0.109    22.631     6.782
    38   6 C        3.761    -0.106    22.573     6.773
    39   6 C        3.761    -0.106    22.574     6.773
    40   6 C        2.927    -0.035    28.865     8.811
    41   6 C        2.919    -0.040    29.003     8.831
    42   6 C        2.925     0.052    26.825     8.494
    43   6 C        2.918    -0.066    29.638     8.927
    44   6 C        2.920     0.042    27.056     8.530
    45   7 N        2.752    -0.076    22.714     7.078
    46   6 C        2.923     0.064    26.566     8.452
    47   6 C        2.922    -0.050    29.232     8.866
    48   6 C        2.919    -0.032    28.795     8.800
    49   6 C        2.918    -0.043    29.059     8.840
    50   6 C        2.919    -0.031    28.783     8.798
    51   6 C        2.922    -0.049    29.218     8.864
    52   6 C        2.923     0.064    26.566     8.452
    53   6 C        2.922    -0.049    29.221     8.865
    54   6 C        2.919    -0.031    28.784     8.798
    55   6 C        2.918    -0.043    29.061     8.840
    56   6 C        2.919    -0.032    28.795     8.800
    57   6 C        2.922    -0.050    29.235     8.867
    58   6 C        2.918    -0.066    29.634     8.927
    59   6 C        2.925     0.052    26.827     8.494
    60   6 C        2.894    -0.107    30.703     9.085
    61   6 C        2.921    -0.041    29.009     8.832
    62   6 C        2.925    -0.038    28.952     8.824
    63   1 H        0.925     0.038     2.481     2.463
    64   1 H        0.925     0.038     2.478     2.462
    65   1 H        0.925     0.040     2.448     2.447
    66   1 H        0.925     0.038     2.478     2.462
    67   1 H        0.925     0.034     2.536     2.490
    68   1 H        0.925     0.041     2.429     2.437
    69   1 H        0.925     0.042     2.427     2.436
    70   1 H        0.925     0.038     2.477     2.461
    71   1 H        0.925     0.034     2.529     2.487
    72   1 H        0.926     0.041     2.435     2.440
    73   1 H        0.926     0.037     2.484     2.465
    74   1 H        0.926     0.013     2.844     2.637
    75   1 H        0.926     0.014     2.833     2.632
    76   1 H        0.925     0.035     2.511     2.478
    77   1 H        0.925     0.034     2.533     2.489
    78   1 H        0.925     0.031     2.568     2.506
    79   1 H        0.925     0.036     2.503     2.474
    80   1 H        0.925     0.034     2.532     2.488
    81   1 H        0.925     0.033     2.538     2.491
    82   1 H        0.925     0.036     2.509     2.477
    83   1 H        0.925     0.031     2.576     2.510
    84   1 H        0.925     0.034     2.532     2.488
    85   1 H        0.926     0.033     2.542     2.493
    86   1 H        0.926     0.033     2.542     2.493
    87   1 H        0.925     0.036     2.502     2.474
    88   1 H        0.925     0.034     2.532     2.488
    89   1 H        0.925     0.033     2.538     2.491
    90   1 H        0.925     0.034     2.534     2.489
    91   1 H        0.925     0.035     2.511     2.478
    92   1 H        0.925     0.031     2.567     2.506
    93   1 H        0.925     0.031     2.577     2.510
    94   1 H        0.925     0.034     2.531     2.488
    95   1 H        0.925     0.036     2.509     2.477
    96   1 H        0.926     0.014     2.832     2.632
    97   1 H        0.926     0.013     2.846     2.638
    98   1 H        0.926     0.038     2.481     2.463
    99   1 H        0.926     0.049     2.335     2.390
   100   1 H        0.925     0.040     2.447     2.446
   101   1 H        0.925     0.038     2.480     2.463
   102   1 H        0.925     0.038     2.478     2.462
   103   1 H        0.925     0.042     2.428     2.437
   104   1 H        0.925     0.038     2.478     2.462
   105   1 H        0.925     0.034     2.536     2.490
   106   1 H        0.925     0.042     2.427     2.436
   107   1 H        0.925     0.034     2.529     2.487
   108   1 H        0.925     0.038     2.477     2.461
   109   1 H        0.926     0.041     2.434     2.440
   110   1 H        0.926     0.037     2.484     2.465
   111   1 H        0.926     0.027     2.630     2.536
   112   1 H        0.926     0.028     2.609     2.526
   113   1 H        0.926     0.030     2.582     2.513
   114   1 H        0.926     0.029     2.602     2.522
   115   1 H        0.926     0.031     2.574     2.509
   116   1 H        0.926     0.029     2.603     2.523
   117   1 H        0.926     0.029     2.603     2.523
   118   1 H        0.926     0.031     2.576     2.510
   119   1 H        0.926     0.029     2.603     2.523
   120   1 H        0.926     0.030     2.582     2.513
   121   1 H        0.926     0.028     2.610     2.526
   122   1 H        0.926     0.027     2.631     2.536
   123   1 H        0.926     0.037     2.484     2.465
   124   1 H        0.926     0.049     2.337     2.390

molecular dipole:
                 x           y           z       tot (Debye)
 q only:        0.046       1.102      -0.007
   full:        0.053       1.220      -0.008       3.103

 projected vibrational frequencies (cm⁻¹)
eigval :       -0.00    -0.00    -0.00     0.00     0.00     0.00
eigval :      -15.49     6.66     8.21    15.37    16.69    17.57
eigval :       25.50    27.68    29.32    30.16    32.62    37.47
eigval :       46.36    55.18    55.95    61.43    65.84    69.80
eigval :       70.50    80.67    90.11    92.08    99.23   100.28
eigval :      103.80   136.58   144.03   144.71   156.05   170.82
eigval :      172.83   177.62   180.81   181.70   185.02   190.77
eigval :      205.08   206.13   216.18   218.74   220.43   227.51
eigval :      229.19   231.87   235.08   240.22   248.19   248.67
eigval :      256.53   258.21   279.28   294.07   304.72   308.39
eigval :      310.40   313.81   315.25   318.54   319.36   323.49
eigval :      334.28   339.22   350.13   352.29   360.18   361.52
eigval :      366.98   369.41   375.41   378.87   382.26   385.37
eigval :      389.45   391.07   395.02   398.00   405.57   415.98
eigval :      421.28   425.82   431.17   444.41   445.71   452.56
eigval :      457.94   464.54   468.42   469.62   479.29   490.93
eigval :      494.86   504.87   520.71   523.44   526.00   551.90
eigval :      554.72   559.16   578.74   583.05   588.22   589.66
eigval :      596.11   598.66   604.96   607.19   613.19   615.85
eigval :      619.31   651.11   656.03   661.19   661.68   663.18
eigval :      685.15   687.84   695.84   707.17   713.93   720.82
eigval :      727.85   753.22   756.59   769.82   781.36   788.38
eigval :      790.50   793.82   813.62   819.73   834.45   838.70
eigval :      861.67   867.64   867.75   869.35   869.69   871.43
eigval :      871.80   873.89   874.27   875.80   878.61   885.12
eigval :      887.65   898.19   906.59   914.45   914.93   921.44
eigval :      923.07   924.50   926.39   927.32   927.35   929.31
eigval :      929.60   943.81   957.08   957.82   960.08   960.30
eigval :      960.47   961.34   961.78   962.50   962.65   963.75
eigval :      963.81   964.02   964.82   975.32   997.12  1007.91
eigval :     1013.53  1032.02  1032.60  1033.92  1035.33  1035.42
eigval :     1035.78  1036.15  1036.42  1047.54  1079.18  1080.72
eigval :     1087.80  1089.44  1121.57  1124.80  1133.37  1138.82
eigval :     1139.20  1142.72  1142.82  1151.04  1158.83  1160.03
eigval :     1177.57  1178.86  1186.08  1192.69  1194.46  1199.50
eigval :     1200.05  1205.06  1218.84  1221.46  1222.70  1223.74
eigval :     1225.48  1225.67  1226.84  1228.07  1231.78  1231.87
eigval :     1242.69  1244.70  1257.86  1264.79  1269.48  1272.92
eigval :     1273.11  1275.44  1277.80  1281.00  1284.50  1287.27
eigval :     1294.34  1301.17  1306.76  1307.42  1311.82  1312.37
eigval :     1315.02  1324.31  1329.63  1334.29  1339.11  1353.94
eigval :     1361.41  1369.73  1382.92  1395.51  1395.92  1399.74
eigval :     1400.46  1401.72  1402.88  1403.12  1403.77  1406.80
eigval :     1407.27  1408.09  1415.58  1425.07  1425.69  1427.05
eigval :     1427.93  1432.83  1441.75  1446.39  1465.37  1467.42
eigval :     1469.24  1475.58  1481.89  1483.60  1487.72  1488.34
eigval :     1488.85  1488.94  1489.91  1490.52  1491.69  1491.99
eigval :     1492.58  1497.61  1497.84  1499.27  1499.49  1500.58
eigval :     1502.32  1503.59  1503.91  1507.34  1508.27  1508.73
eigval :     1510.37  1511.88  1515.96  1516.60  1517.12  1519.74
eigval :     1527.93  1550.81  1555.77  1557.65  1558.13  1558.88
eigval :     1573.57  1589.39  1591.24  1593.26  3014.65  3014.93
eigval :     3015.80  3015.94  3020.62  3021.00  3021.09  3021.12
eigval :     3021.16  3021.56  3022.87  3023.22  3024.68  3024.79
eigval :     3025.58  3026.18  3028.29  3028.64  3029.75  3029.86
eigval :     3030.22  3030.57  3032.72  3033.38  3034.35  3036.80
eigval :     3037.61  3038.72  3041.11  3041.13  3044.34  3044.60
eigval :     3045.18  3045.22  3048.71  3048.90  3067.96  3068.57
eigval :     3069.10  3070.27  3071.83  3072.28  3077.41  3077.49
eigval :     3079.61  3080.90  3081.61  3081.75  3082.56  3083.64
eigval :     3084.91  3085.29  3090.81  3091.35  3091.94  3092.17
eigval :     3098.63  3099.61  3118.86  3119.29  3133.16  3139.22

   temp. (K)  partition function   enthalpy   heat capacity  entropy
                                   cal/mol     cal/K/mol   cal/K/mol   J/K/mol
 298.15  VIB  0.109E+30            36060.766    219.085    225.746
         ROT  0.172E+09              888.752      2.981     40.660
         INT  0.187E+38            36949.518    222.066    266.406
         TR   0.224E+29             1481.254      4.968     45.940
         TOT                       38430.7721   227.0345   312.3455  1306.8535

       T/K    H(0)-H(T)+PV         H(T)/Eh          T*S/Eh         G(T)/Eh
   ------------------------------------------------------------------------
    298.15    0.612433E-01    0.108893E+01    0.148405E+00    0.940523E+00
   ------------------------------------------------------------------------

         :::::::::::::::::::::::::::::::::::::::::::::::::::::
         ::                  THERMODYNAMIC                  ::
         :::::::::::::::::::::::::::::::::::::::::::::::::::::
         :: total free energy        -164.984849365996 Eh   ::
         ::.................................................::
         :: total energy             -165.925372080262 Eh   ::
         :: zero point energy           1.027684800348 Eh   ::
         :: G(RRHO) w/o ZPVE           -0.087162086081 Eh   ::
         :: G(RRHO) contrib.            0.940522714267 Eh   ::
         :::::::::::::::::::::::::::::::::::::::::::::::::::::

           -------------------------------------------------
          | TOTAL ENERGY             -165.925372080262 Eh   |
          | TOTAL ENTHALPY           -164.836443946193 Eh   |
          | TOTAL FREE ENERGY        -164.984849365996 Eh   |
          | GRADIENT NORM               0.000039189390 Eh/α |
          | HOMO-LUMO GAP               0.415455734453 eV   |
           -------------------------------------------------

 * finished run on 2025/09/11 at 06:37:51.376
