   * xtb version 6.7.1 (edcfbbe) compiled by 'albert@albert-system' on 2024-07-22

   ID    Z sym.   atoms
    1    6 C      1-8, 10-19, 21-30, 32-44, 46-62
    2    7 N      9, 31, 45
    3    5 B      20
    4    1 H      63-124

          program call               : xtb data2507/toluene/2tPAB/2tPAB_toluene_S0_crest.xyz --gfn 2 --gbsa toluene --ohess vtight --parallel 40 --molden --ceasefiles --namespace data2507/toluene/2tPAB/2tPAB_toluene_S0_finalOpt
      * Solvation model:               GBSA
        Solvent                        toluene
        Solvent mass                       9.2140E+01 g/mol
          :  Hamiltonian                  GFN2-xTB          :
 * total energy  :  -166.0149108 Eh     change       -0.5378581E-08 Eh
 * total energy  :  -166.0150012 Eh     change       -0.9032590E-04 Eh
 * total energy  :  -166.0150989 Eh     change       -0.9771457E-04 Eh
 * total energy  :  -166.0151519 Eh     change       -0.5300878E-04 Eh
 * total energy  :  -166.0152258 Eh     change       -0.7389030E-04 Eh
 * total energy  :  -166.0152914 Eh     change       -0.6560389E-04 Eh
 * total energy  :  -166.0153366 Eh     change       -0.4524924E-04 Eh
 * total energy  :  -166.0153668 Eh     change       -0.3019186E-04 Eh
 * total energy  :  -166.0153946 Eh     change       -0.2777728E-04 Eh
 * total energy  :  -166.0154191 Eh     change       -0.2448814E-04 Eh
 * total energy  :  -166.0174994 Eh     change       -0.9418947E-06 Eh
 * total energy  :  -166.0175005 Eh     change       -0.1088765E-05 Eh
 * total energy  :  -166.0175009 Eh     change       -0.3651209E-06 Eh
 * total energy  :  -166.0175016 Eh     change       -0.7556326E-06 Eh
 * total energy  :  -166.0175018 Eh     change       -0.2244392E-06 Eh
 * total energy  :  -166.0175024 Eh     change       -0.5112241E-06 Eh
 * total energy  :  -166.0175030 Eh     change       -0.6853855E-06 Eh
 * total energy  :  -166.0175034 Eh     change       -0.3364571E-06 Eh
 * total energy  :  -166.0175035 Eh     change       -0.9967061E-07 Eh
   *** GEOMETRY OPTIMIZATION CONVERGED AFTER 74 ITERATIONS ***

 final structure:
================
124
 xtb: 6.7.1 (edcfbbe)
C            7.72300734361646        2.54578602162331       -1.60224991259545
C            7.29898110388630        2.20350311671329       -0.17086834391484
C            7.12406341966946        3.52020434855898        0.60040482479286
C            8.41183402983300        1.36534899960870        0.47633213098575
C            5.99899924566430        1.41540902445611       -0.11872384965176
C            5.44723931447183        1.08261043435850        1.11747019768973
C            4.26592634038723        0.37429420473024        1.21629400126041
C            3.60238629493397       -0.03314733087809        0.06612419167367
N            2.36771039151844       -0.74470832180121        0.14602554397783
C            2.40131001377487       -2.11559754536303        0.32671234765547
C            3.63920753476429       -2.74470682638823        0.51277792115557
C            3.71674996319751       -4.09163262399503        0.76921162003743
C            2.56754901726080       -4.88001220658933        0.87345258413064
C            2.70309330215731       -6.35733570136691        1.21404306639304
C            3.54972653409052       -7.04743313797938        0.13370777649004
C            1.35169116828815       -7.07391685624393        1.28642625406606
C            3.39169678054988       -6.49791098458157        2.57984357120888
C            1.35639213561879       -4.25425707334882        0.64896862282099
C            1.22389765790328       -2.89407480359018        0.33585110340836
B           -0.11295657022401       -2.18333466108884        0.02030846655534
C           -1.51375904739400       -2.75553672502786       -0.29954927569772
C           -1.78040345892979       -4.09377128680922       -0.62138195220459
C           -3.04678896337255       -4.59317078751024       -0.85721479075466
C           -3.32673915937173       -6.04514449876585       -1.21754802477457
C           -2.05506693710455       -6.89654558581753       -1.27222200736186
C           -4.26217937555180       -6.65631042558330       -0.16334289095604
C           -3.99713846613685       -6.09715557512918       -2.59860845848202
C           -4.11197754718576       -3.69478802745515       -0.75088807338114
C           -3.90130281099486       -2.36428533384497       -0.48341551019636
C           -2.60725066551815       -1.86303234067569       -0.29120013046675
N           -2.43666748780268       -0.50274536527379       -0.10766881304387
C           -3.59311772614547        0.33122460460797       -0.04219476286783
C           -4.10941935019562        0.70458914573082        1.18819246486087
C           -5.21187813370771        1.53916142500249        1.25911085985738
C           -5.82959928732607        2.02000426660236        0.11062317349917
C           -7.04340243489374        2.93618641100252        0.14571131303691
C           -7.44881173240365        3.32258525979964        1.57126485299218
C           -6.72625513107352        4.22660043645686       -0.62462819413670
C           -8.22713151010669        2.21291109822210       -0.51423097475824
C           -5.30273848109305        1.62513725736393       -1.11825981411606
C           -4.20030126319747        0.79778080019343       -1.20107708638382
C           -1.20740481154700        0.11731154294273       -0.04613694996050
C           -1.13219571843325        1.50835445548554       -0.05758349074696
C            0.10487352994752        2.13635019604143        0.01519169255577
N            0.17542810619940        3.53843844388332        0.01116461961566
C            1.21350129323244        4.18030247420174       -0.67025118502314
C            1.79702218825184        5.33622655748297       -0.14996010031694
C            2.82632742152553        5.96314835734503       -0.82514648266456
C            3.29846615253318        5.44819610972264       -2.02180003349920
C            2.72479293470918        4.29937905178756       -2.54246431038338
C            1.68883621824951        3.67120467116736       -1.87948995361497
C           -0.78909666784991        4.28564590911675        0.69321788035326
C           -1.31087783990096        3.83167335211051        1.90523521602137
C           -2.27163981115866        4.56714133600468        2.57104742047129
C           -2.72261096469914        5.76930532925285        2.05016217432363
C           -2.20474236969329        6.22853831375738        0.84974226524326
C           -1.25075229874124        5.49484147038160        0.17153125276031
C            1.27235026727092        1.38718517340366        0.09091258301359
C            1.20698546994178       -0.00439172263895        0.08436345119459
C           -0.03682002320706       -0.66865728045728        0.02062629332508
C            4.14248991489953        0.27782230142448       -1.17144905399746
C            5.32445668644249        0.99346248741762       -1.25834305623004
H            7.91164204560487        1.64563643215405       -2.18278983203228
H            6.96166309830335        3.14156074179403       -2.10099247368762
H            8.64315514780048        3.12620233348746       -1.57778504916196
H            6.90443974691884        3.34312368205525        1.64944771023096
H            6.30799962621338        4.10043315669265        0.17448750702974
H            8.03604877872243        4.11045660616907        0.54068733825317
H            9.35518976229308        1.90619367083780        0.44220549814351
H            8.18407397145664        1.14132715875209        1.51504479045544
H            8.53368747944464        0.42429085418313       -0.05678039307894
H            5.94139463028028        1.38210742288238        2.02907229545531
H            3.84996478464752        0.13214666117635        2.18388691306993
H            4.55076459329494       -2.16711129647692        0.46631388943122
H            4.69450029868655       -4.52957548474041        0.90835631396518
H            3.63943045631744       -8.11063460538334        0.34875612815385
H            4.55005608150150       -6.62552577372595        0.08386265861656
H            3.08190944402157       -6.93060283603392       -0.84220467010096
H            0.84277816047528       -7.03843873290982        0.32624456574441
H            0.71306694399422       -6.63061230797574        2.04738699313915
H            1.50797778787072       -8.11971902415122        1.54535851775268
H            3.49629828520486       -7.54908783529237        2.84228364332676
H            2.80047798575974       -6.00660626186235        3.35059237329224
H            4.38160451020064       -6.04927439206230        2.57242561050958
H            0.44599422017040       -4.82070393485391        0.73665184880945
H           -0.93092552829135       -4.74807729486555       -0.70845843237705
H           -1.56213768329983       -6.91796552270538       -0.30325448860556
H           -1.36091878632620       -6.51783780300065       -2.01932347775778
H           -2.31328629849493       -7.91951279066689       -1.54066302300071
H           -5.21693754760980       -6.13822770336694       -0.13133676179966
H           -4.45162461285732       -7.70369528014890       -0.39081599736790
H           -3.80736076038498       -6.59366602434606        0.82364700263019
H           -3.34074816877678       -5.66331675355100       -3.35091112464415
H           -4.93325088720207       -5.54488659764813       -2.60492572247157
H           -4.20731083797619       -7.12828451635886       -2.87679929782000
H           -5.12789252634066       -4.03144949416666       -0.89811011929243
H           -4.75064079382432       -1.69871485048464       -0.43479386122475
H           -3.64077429839951        0.34240061679835        2.09188926531120
H           -5.57887905646659        1.81009121255958        2.23507221962154
H           -8.30824079050654        3.98906463431651        1.53446351527973
H           -7.73048748795393        2.44666484555110        2.15123043052011
H           -6.63968663534934        3.84384739295111        2.07817611790522
H           -7.57311185774390        4.90774424499044       -0.57478732623582
H           -6.51533792147230        4.02575839040581       -1.67121734918285
H           -5.85902228176595        4.72045986738504       -0.19079455881363
H           -9.11233542891227        2.84495319960514       -0.49056263009514
H           -8.44806381381155        1.28928963279071        0.01751673019427
H           -8.01153456551216        1.96610164895053       -1.55034900112033
H           -5.75415080246387        1.96875963765555       -2.03642638946650
H           -3.80228182314593        0.50787031320610       -2.16306556133442
H           -2.02248053119071        2.11259337400198       -0.13082448331469
H            1.43928324423603        5.73483172285803        0.78850210818733
H            3.26970213685452        6.85586438124134       -0.40761131316967
H            4.10674414854339        5.93855219386455       -2.54377412323092
H            3.08154006085186        3.89244675343204       -3.47774428591053
H            1.23751584997897        2.78062329932081       -2.29174926557858
H           -0.95385155822848        2.89939716804187        2.31772125221414
H           -2.66516692357783        4.20207183167956        3.50890026992820
H           -3.47154541635409        6.34373736950924        2.57481998792941
H           -2.55382686867953        7.16192684190183        0.43176093901574
H           -0.85719807245200        5.85137707289976       -0.76960413611680
H            2.21926980967295        1.89845444172065        0.16165786784781
H            3.63008013743033       -0.03998989764215       -2.06807519752470
H            5.70793545220340        1.21927264781660       -2.23942963549074

          :  Hamiltonian                  GFN2-xTB          :
         :: gradient norm              0.000093456457 Eh/a0 ::
         :: HOMO-LUMO gap              2.371978173297 eV    ::
         :: SCC energy              -168.929594060919 Eh    ::
         :: -> dispersion             -0.167459227140 Eh    ::
         :: -> Gsolv                  -0.062119164192 Eh    ::
         :: repulsion energy           2.912090580555 Eh    ::

    * Orbital Energies and Occupations

         #    Occupation            Energy/Eh            Energy/eV
      -------------------------------------------------------------
         1        2.0000           -0.6593744             -17.9425
       ...           ...                  ...                  ...
       144        2.0000           -0.4030256             -10.9669
       145        2.0000           -0.4021769             -10.9438
       146        2.0000           -0.3964499             -10.7879
       147        2.0000           -0.3955470             -10.7634
       148        2.0000           -0.3932958             -10.7021
       149        2.0000           -0.3882447             -10.5647
       150        2.0000           -0.3867329             -10.5235
       151        2.0000           -0.3845654             -10.4646
       152        2.0000           -0.3716664             -10.1136
       153        2.0000           -0.3710323             -10.0963
       154        2.0000           -0.3548111              -9.6549
       155        2.0000           -0.3442479              -9.3675
       156        2.0000           -0.3354808              -9.1289 (HOMO)
       157                         -0.2483123              -6.7569 (LUMO)
       158                         -0.2276673              -6.1951
       159                         -0.2266864              -6.1685
       160                         -0.2257619              -6.1433
       161                         -0.2250114              -6.1229
       162                         -0.2249521              -6.1213
       163                         -0.2231818              -6.0731
       164                         -0.2192282              -5.9655
       165                         -0.2164490              -5.8899
       166                         -0.2134346              -5.8079
       167                         -0.2035803              -5.5397
       ...                                ...                  ...
       310                          0.7224459              19.6588
      -------------------------------------------------------------
                  HL-Gap            0.0871684 Eh            2.3720 eV

     #   Z          covCN         q      C6AA      α(0)
     1   6 C        3.761    -0.109    22.625     6.781
     2   6 C        3.902     0.026    20.082     6.370
     3   6 C        3.761    -0.106    22.569     6.772
     4   6 C        3.761    -0.106    22.568     6.772
     5   6 C        2.973     0.010    27.796     8.648
     6   6 C        2.927    -0.035    28.881     8.813
     7   6 C        2.919    -0.041    29.022     8.834
     8   6 C        2.933     0.065    26.543     8.449
     9   7 N        2.755    -0.060    22.407     7.030
    10   6 C        2.926     0.057    26.717     8.477
    11   6 C        2.918    -0.061    29.507     8.908
    12   6 C        2.927    -0.037    28.918     8.819
    13   6 C        2.968    -0.008    28.223     8.714
    14   6 C        3.902     0.024    20.122     6.376
    15   6 C        3.761    -0.103    22.512     6.764
    16   6 C        3.761    -0.105    22.548     6.769
    17   6 C        3.761    -0.103    22.511     6.764
    18   6 C        2.930    -0.047    29.169     8.857
    19   6 C        2.886    -0.088    30.201     9.010
    20   5 B        2.724     0.187    18.578     7.222
    21   6 C        2.886    -0.088    30.201     9.010
    22   6 C        2.930    -0.047    29.170     8.857
    23   6 C        2.968    -0.008    28.224     8.714
    24   6 C        3.902     0.024    20.122     6.376
    25   6 C        3.761    -0.105    22.546     6.769
    26   6 C        3.761    -0.103    22.513     6.764
    27   6 C        3.761    -0.103    22.510     6.763
    28   6 C        2.927    -0.037    28.918     8.819
    29   6 C        2.918    -0.061    29.506     8.908
    30   6 C        2.926     0.057    26.716     8.476
    31   7 N        2.755    -0.060    22.408     7.031
    32   6 C        2.933     0.065    26.543     8.449
    33   6 C        2.921    -0.041    29.024     8.835
    34   6 C        2.925    -0.039    28.966     8.826
    35   6 C        2.972     0.010    27.797     8.648
    36   6 C        3.902     0.026    20.082     6.370
    37   6 C        3.761    -0.109    22.625     6.781
    38   6 C        3.761    -0.106    22.568     6.772
    39   6 C        3.761    -0.106    22.568     6.772
    40   6 C        2.927    -0.035    28.881     8.813
    41   6 C        2.920    -0.041    29.021     8.834
    42   6 C        2.928     0.062    26.612     8.460
    43   6 C        2.922    -0.091    30.282     9.024
    44   6 C        2.923     0.065    26.542     8.449
    45   7 N        2.754    -0.086    22.911     7.109
    46   6 C        2.923     0.068    26.473     8.438
    47   6 C        2.922    -0.049    29.228     8.866
    48   6 C        2.919    -0.032    28.788     8.799
    49   6 C        2.919    -0.041    29.025     8.835
    50   6 C        2.919    -0.031    28.776     8.797
    51   6 C        2.922    -0.048    29.193     8.860
    52   6 C        2.923     0.068    26.473     8.438
    53   6 C        2.923    -0.048    29.194     8.861
    54   6 C        2.919    -0.031    28.776     8.797
    55   6 C        2.919    -0.041    29.026     8.835
    56   6 C        2.919    -0.032    28.788     8.799
    57   6 C        2.922    -0.049    29.228     8.866
    58   6 C        2.922    -0.091    30.282     9.024
    59   6 C        2.928     0.062    26.612     8.460
    60   6 C        2.897    -0.112    30.843     9.106
    61   6 C        2.921    -0.041    29.023     8.835
    62   6 C        2.925    -0.039    28.965     8.826
    63   1 H        0.925     0.037     2.483     2.464
    64   1 H        0.925     0.037     2.483     2.464
    65   1 H        0.925     0.040     2.451     2.448
    66   1 H        0.925     0.038     2.482     2.464
    67   1 H        0.925     0.033     2.539     2.492
    68   1 H        0.925     0.041     2.434     2.440
    69   1 H        0.925     0.041     2.429     2.437
    70   1 H        0.925     0.038     2.481     2.463
    71   1 H        0.925     0.034     2.531     2.488
    72   1 H        0.926     0.039     2.460     2.453
    73   1 H        0.926     0.036     2.503     2.474
    74   1 H        0.926     0.016     2.791     2.613
    75   1 H        0.926     0.020     2.739     2.588
    76   1 H        0.925     0.035     2.516     2.481
    77   1 H        0.925     0.033     2.544     2.494
    78   1 H        0.925     0.031     2.571     2.507
    79   1 H        0.925     0.036     2.499     2.472
    80   1 H        0.925     0.034     2.536     2.491
    81   1 H        0.925     0.034     2.532     2.488
    82   1 H        0.925     0.035     2.520     2.483
    83   1 H        0.925     0.030     2.582     2.513
    84   1 H        0.925     0.033     2.544     2.494
    85   1 H        0.926     0.039     2.460     2.453
    86   1 H        0.926     0.039     2.460     2.453
    87   1 H        0.925     0.036     2.501     2.473
    88   1 H        0.925     0.034     2.537     2.491
    89   1 H        0.925     0.034     2.532     2.489
    90   1 H        0.925     0.033     2.543     2.494
    91   1 H        0.925     0.035     2.517     2.481
    92   1 H        0.925     0.031     2.571     2.507
    93   1 H        0.925     0.030     2.582     2.513
    94   1 H        0.925     0.033     2.544     2.494
    95   1 H        0.925     0.035     2.519     2.482
    96   1 H        0.926     0.020     2.739     2.588
    97   1 H        0.926     0.016     2.792     2.613
    98   1 H        0.926     0.036     2.504     2.474
    99   1 H        0.926     0.047     2.359     2.402
   100   1 H        0.925     0.040     2.451     2.448
   101   1 H        0.925     0.038     2.482     2.464
   102   1 H        0.925     0.037     2.483     2.464
   103   1 H        0.925     0.041     2.434     2.439
   104   1 H        0.925     0.038     2.482     2.464
   105   1 H        0.925     0.033     2.540     2.492
   106   1 H        0.925     0.041     2.429     2.437
   107   1 H        0.925     0.034     2.531     2.488
   108   1 H        0.925     0.038     2.481     2.463
   109   1 H        0.926     0.039     2.460     2.453
   110   1 H        0.926     0.036     2.505     2.475
   111   1 H        0.926     0.018     2.765     2.600
   112   1 H        0.926     0.028     2.609     2.526
   113   1 H        0.926     0.031     2.568     2.506
   114   1 H        0.926     0.030     2.585     2.514
   115   1 H        0.926     0.032     2.564     2.504
   116   1 H        0.926     0.030     2.589     2.516
   117   1 H        0.926     0.030     2.589     2.516
   118   1 H        0.926     0.032     2.564     2.504
   119   1 H        0.926     0.030     2.585     2.514
   120   1 H        0.926     0.031     2.568     2.506
   121   1 H        0.926     0.028     2.608     2.526
   122   1 H        0.926     0.018     2.766     2.601
   123   1 H        0.926     0.036     2.505     2.475
   124   1 H        0.926     0.047     2.359     2.402

molecular dipole:
                 x           y           z       tot (Debye)
 q only:        0.037       0.712      -0.009
   full:        0.043       0.830      -0.012       2.113

 projected vibrational frequencies (cm⁻¹)
eigval :       -0.00    -0.00    -0.00    -0.00     0.00     0.00
eigval :       -8.76    10.03    11.91    16.67    21.52    24.40
eigval :       25.91    28.97    29.90    30.90    35.47    36.79
eigval :       46.30    56.80    59.09    65.36    66.64    71.25
eigval :       75.62    79.46    91.51    94.39    98.35   101.59
eigval :      106.33   138.36   146.25   156.57   166.27   172.45
eigval :      178.06   180.81   181.25   183.17   186.11   194.22
eigval :      205.69   208.98   218.05   220.17   222.92   228.11
eigval :      229.94   236.01   238.17   242.20   248.55   250.94
eigval :      258.25   271.07   283.92   295.43   307.63   309.01
eigval :      311.03   314.79   316.49   319.31   320.25   324.15
eigval :      333.97   342.94   357.47   358.56   363.82   368.37
eigval :      369.17   375.32   378.73   381.48   383.90   385.20
eigval :      390.20   398.88   400.04   404.85   414.49   417.35
eigval :      426.30   431.11   447.19   447.75   449.98   454.52
eigval :      464.32   466.56   472.17   474.51   483.62   494.68
eigval :      499.24   514.86   527.06   529.19   552.01   554.44
eigval :      566.79   572.22   582.45   584.47   588.62   589.55
eigval :      595.72   607.96   610.34   615.59   617.10   623.05
eigval :      631.39   660.42   660.72   665.21   665.37   685.71
eigval :      689.21   697.68   709.70   712.57   716.79   723.35
eigval :      732.85   756.46   758.36   776.41   793.56   814.32
eigval :      815.30   820.06   821.51   822.07   838.31   865.00
eigval :      870.43   870.87   871.14   872.92   873.68   874.21
eigval :      876.00   880.78   889.66   891.32   895.59   905.18
eigval :      909.63   915.09   915.81   917.90   919.66   925.97
eigval :      927.47   928.16   928.61   929.42   929.56   931.82
eigval :      933.58   946.93   958.01   959.28   960.39   960.47
eigval :      960.51   961.51   961.95   962.51   962.68   964.07
eigval :      964.70   964.72   969.65   978.10  1003.84  1012.24
eigval :     1015.43  1033.97  1034.48  1034.72  1034.78  1035.37
eigval :     1035.89  1036.12  1036.82  1065.96  1082.71  1083.61
eigval :     1097.20  1107.50  1121.14  1124.82  1138.86  1139.01
eigval :     1142.68  1142.89  1143.50  1158.80  1168.82  1175.64
eigval :     1177.95  1179.34  1194.28  1195.56  1198.05  1201.26
eigval :     1202.33  1219.20  1224.61  1225.92  1225.98  1226.38
eigval :     1229.03  1230.88  1231.84  1232.02  1232.42  1244.45
eigval :     1251.03  1261.34  1270.05  1273.83  1273.87  1277.28
eigval :     1278.67  1282.48  1285.07  1291.18  1293.97  1294.41
eigval :     1304.40  1308.05  1309.45  1314.87  1316.47  1318.02
eigval :     1319.73  1326.74  1346.47  1348.97  1354.67  1376.36
eigval :     1395.62  1396.00  1397.74  1401.23  1402.15  1402.75
eigval :     1402.86  1403.67  1406.99  1407.27  1408.45  1423.69
eigval :     1426.24  1426.52  1427.00  1427.44  1427.86  1435.42
eigval :     1438.79  1448.45  1455.62  1471.00  1474.89  1477.70
eigval :     1485.95  1487.00  1487.80  1488.36  1489.08  1489.71
eigval :     1490.70  1492.25  1493.60  1493.74  1497.90  1499.90
eigval :     1500.03  1500.79  1503.06  1503.23  1503.68  1504.68
eigval :     1508.68  1509.17  1511.03  1511.06  1516.58  1517.15
eigval :     1517.16  1519.79  1535.17  1541.04  1542.21  1562.86
eigval :     1569.27  1569.29  1574.68  1579.08  1592.24  1597.21
eigval :     1599.48  1599.97  1601.75  1602.02  3014.96  3015.32
eigval :     3016.05  3016.19  3021.05  3021.10  3021.23  3021.29
eigval :     3021.49  3021.61  3022.78  3022.82  3024.75  3025.12
eigval :     3025.34  3025.42  3028.54  3028.68  3029.35  3029.81
eigval :     3030.26  3030.32  3033.10  3033.60  3034.37  3036.98
eigval :     3037.22  3038.55  3040.52  3040.75  3043.88  3044.03
eigval :     3044.18  3044.40  3048.90  3048.92  3067.59  3067.86
eigval :     3067.95  3068.63  3069.93  3071.14  3074.88  3076.15
eigval :     3079.55  3079.63  3079.99  3080.86  3083.26  3083.66
eigval :     3083.99  3084.44  3090.68  3091.03  3091.40  3092.33
eigval :     3102.58  3104.35  3117.55  3117.64  3132.90  3139.27

   temp. (K)  partition function   enthalpy   heat capacity  entropy
                                   cal/mol     cal/K/mol   cal/K/mol   J/K/mol
 298.15  VIB  0.193E+29            35687.416    217.566    222.583
         ROT  0.172E+09              888.752      2.981     40.660
         INT  0.330E+37            36576.168    220.546    263.244
         TR   0.224E+29             1481.254      4.968     45.940
         TOT                       38057.4221   225.5146   309.1834  1293.6233

       T/K    H(0)-H(T)+PV         H(T)/Eh          T*S/Eh         G(T)/Eh
   ------------------------------------------------------------------------
    298.15    0.606484E-01    0.109286E+01    0.146903E+00    0.945961E+00
   ------------------------------------------------------------------------

         :::::::::::::::::::::::::::::::::::::::::::::::::::::
         ::                  THERMODYNAMIC                  ::
         :::::::::::::::::::::::::::::::::::::::::::::::::::::
         :: total free energy        -165.071542291177 Eh   ::
         ::.................................................::
         :: total energy             -166.017503480154 Eh   ::
         :: zero point energy           1.032215833219 Eh   ::
         :: G(RRHO) w/o ZPVE           -0.086254644242 Eh   ::
         :: G(RRHO) contrib.            0.945961188977 Eh   ::
         :::::::::::::::::::::::::::::::::::::::::::::::::::::

           -------------------------------------------------
          | TOTAL ENERGY             -166.017503480154 Eh   |
          | TOTAL ENTHALPY           -164.924639284393 Eh   |
          | TOTAL FREE ENERGY        -165.071542291177 Eh   |
          | GRADIENT NORM               0.000093420368 Eh/α |
          | HOMO-LUMO GAP               2.371973944356 eV   |
           -------------------------------------------------

 * finished run on 2025/09/11 at 06:37:32.635
