   * xtb version 6.7.1 (edcfbbe) compiled by 'albert@albert-system' on 2024-07-22

   ID    Z sym.   atoms
    1    8 O      1, 30
    2   15 P      2, 29
    3    6 C      3-18, 20-28, 31-47
    4    7 N      19
    5    1 H      48-78

          program call               : xtb data2507/toluene/PPO21/PPO21.xyz --gfn 2 --gbsa toluene --ohess vtight --parallel 40 --molden --ceasefiles --namespace data2507/toluene/PPO21/PPO21_toluene_S0_preOpt
      * Solvation model:               GBSA
        Solvent                        toluene
        Solvent mass                       9.2140E+01 g/mol
          :  Hamiltonian                  GFN2-xTB          :
 * total energy  :  -121.9819788 Eh     change       -0.3425228E-08 Eh
 * total energy  :  -121.9953574 Eh     change       -0.1337855E-01 Eh
 * total energy  :  -121.9988396 Eh     change       -0.3482205E-02 Eh
 * total energy  :  -121.9993667 Eh     change       -0.5271261E-03 Eh
 * total energy  :  -121.9997595 Eh     change       -0.3928050E-03 Eh
 * total energy  :  -121.9999233 Eh     change       -0.1638262E-03 Eh
 * total energy  :  -122.0000755 Eh     change       -0.1521272E-03 Eh
 * total energy  :  -122.0002031 Eh     change       -0.1276719E-03 Eh
 * total energy  :  -122.0003278 Eh     change       -0.1246239E-03 Eh
 * total energy  :  -122.0004181 Eh     change       -0.9028624E-04 Eh
 * total energy  :  -122.0010907 Eh     change       -0.2175943E-06 Eh
 * total energy  :  -122.0010909 Eh     change       -0.1637272E-06 Eh
 * total energy  :  -122.0010911 Eh     change       -0.1958240E-06 Eh
 * total energy  :  -122.0010914 Eh     change       -0.2779140E-06 Eh
 * total energy  :  -122.0010917 Eh     change       -0.3608374E-06 Eh
 * total energy  :  -122.0010922 Eh     change       -0.4354484E-06 Eh
 * total energy  :  -122.0010926 Eh     change       -0.3988849E-06 Eh
 * total energy  :  -122.0010929 Eh     change       -0.2918255E-06 Eh
 * total energy  :  -122.0010929 Eh     change       -0.2217391E-08 Eh
   *** GEOMETRY OPTIMIZATION CONVERGED AFTER 122 ITERATIONS ***

 final structure:
================
78
 xtb: 6.7.1 (edcfbbe)
O           -6.08187451746861        0.91991369497476        2.42410932673699
P           -5.72699385049302        0.67843808610817        1.01292776429945
C           -6.73383702671929       -0.63012699490366        0.24011533921314
C           -8.02991217476395       -0.77940831543007        0.71613423082074
C           -8.86275961508005       -1.74005278843813        0.17095619859929
C           -8.39932233904885       -2.55360162540644       -0.85108945047944
C           -7.10423194147464       -2.40922456668143       -1.32329994037243
C           -6.26851474626270       -1.44848116809113       -0.78094523714488
C           -5.93546743213797        2.15141149342456       -0.03879805200414
C           -5.86413706670802        3.38829474025382        0.58806601841144
C           -6.00306406197126        4.54932436732862       -0.15157823912795
C           -6.21472287217075        4.47364256937354       -1.51914565315142
C           -6.29291563110637        3.23911673564874       -2.14506707191507
C           -6.15507662539045        2.07574159812655       -1.40851392243786
C           -3.99391116574468        0.15351489764543        0.80352559750763
C           -3.40580053738056       -0.50415227522704        1.87654593017078
C           -2.10120232803199       -0.94856270123759        1.79523219331556
C           -1.37197232575238       -0.74415320071047        0.62527546461414
N           -0.04958579923518       -1.19936879762036        0.53301461860923
C            0.38833783132722       -2.47535104621465        0.84446789391540
C           -0.33850530861206       -3.58677165909043        1.24709104460800
C            0.35286288963699       -4.76308768232680        1.46859784274134
C            1.73214530571141       -4.84343196274433        1.28626906616085
C            2.45713720637540       -3.74780280343090        0.86167830719179
C            1.78314529860685       -2.55457750937147        0.63315930585407
C            2.20084351712522       -1.25641493345071        0.18005656948272
C            3.43353255830135       -0.72364629598300       -0.16400857688189
C            3.49143828344617        0.60676994815862       -0.54678544780775
P            5.04740109869122        1.43526104561678       -0.99411688632638
O            4.86517356242064        2.52581849134781       -1.97224183954770
C            5.77746304171372        2.00754564085777        0.57571053330887
C            6.61016724596909        3.11697337022634        0.51557815277677
C            7.21464855450538        3.59385748893381        1.66503884229488
C            6.98636280324790        2.96091197629036        2.87673170732523
C            6.15056760298554        1.85687696546591        2.93931950202382
C            5.54414365024351        1.37768448134368        1.79139916226179
C            6.16121934559104        0.12235569838000       -1.59373418283009
C            6.24569940845808       -0.05277755513630       -2.96854342641086
C            7.06111084086579       -1.03937173870775       -3.49387580146103
C            7.79379649628057       -1.85261309326300       -2.64389500169534
C            7.71525955647735       -1.67521723544057       -1.27135940643660
C            6.90082276402503       -0.68917092748100       -0.74277390566106
C            2.33925640036118        1.39741920491036       -0.57532720477835
C            1.10355294946777        0.88686112955576       -0.23626038215347
C            1.03515940030738       -0.45243230096871        0.12928720122987
C           -1.96103043153706       -0.08208579805494       -0.45047548964544
C           -3.26351520988629        0.36901861547990       -0.35858696336569
H           -8.36393345983199       -0.13992277244342        1.52193658085122
H           -9.87054574681013       -1.85467724340386        0.54242968888811
H           -9.04741971581059       -3.30511036360196       -1.27740202110247
H           -6.74323375243626       -3.04838253114517       -2.11592141368938
H           -5.25538082045671       -1.33957421308946       -1.14096713118221
H           -5.70871455422384        3.41996454063519        1.65784270035444
H           -5.94830979133720        5.51091107670652        0.33753522080972
H           -6.32420940635726        5.37876609215721       -2.09817916185620
H           -6.46536910883816        3.18334510255428       -3.21003205807258
H           -6.22871772252517        1.11111184698586       -1.89035241036818
H           -3.98367395598541       -0.64335013258065        2.77951490688745
H           -1.63625416629590       -1.43928231662082        2.63701823317389
H           -1.40919313544785       -3.54109402730758        1.37546195462585
H           -0.18982408733611       -5.64120723253854        1.78617512683221
H            2.23543144222689       -5.78058187700024        1.47229466475573
H            3.52291554597750       -3.81310987714084        0.70300825117705
H            4.32566057508789       -1.33145246176353       -0.13866922605655
H            6.76459112278328        3.59850697009673       -0.44054952859026
H            7.86174954532231        4.45751371957003        1.61643525986199
H            7.45690995883498        3.33171787827543        3.77546729794147
H            5.96901638335158        1.36886352007834        3.88596946195455
H            4.88318641873222        0.52347000252662        1.83639454628377
H            5.67237025467880        0.60178822376663       -3.61086223466937
H            7.12608708106354       -1.17326138024719       -4.56380742694048
H            8.43142645751150       -2.62309805318141       -3.05183836416552
H            8.29246816721681       -2.30569620080593       -0.61062173289030
H            6.84505974802576       -0.54062931613673        0.32630907888686
H            2.44071290076817        2.43016588664380       -0.87895735672913
H            0.22525092918793        1.51402873787634       -0.24532497280980
H           -1.39731113648147        0.06488661314143       -1.35967306878398
H           -3.71364357576363        0.89051952393355       -1.19049959723724

          :  Hamiltonian                  GFN2-xTB          :
         :: gradient norm              0.000036109346 Eh/a0 ::
         :: HOMO-LUMO gap              3.027028224518 eV    ::
         :: SCC energy              -124.194230843187 Eh    ::
         :: -> dispersion             -0.110672794460 Eh    ::
         :: -> Gsolv                  -0.061155718336 Eh    ::
         :: repulsion energy           2.193137981857 Eh    ::

    * Orbital Energies and Occupations

         #    Occupation            Energy/Eh            Energy/eV
      -------------------------------------------------------------
         1        2.0000           -0.7002691             -19.0553
       ...           ...                  ...                  ...
       101        2.0000           -0.4196930             -11.4204
       102        2.0000           -0.4178259             -11.3696
       103        2.0000           -0.4177192             -11.3667
       104        2.0000           -0.4162912             -11.3279
       105        2.0000           -0.4158760             -11.3166
       106        2.0000           -0.4156731             -11.3110
       107        2.0000           -0.4137117             -11.2577
       108        2.0000           -0.4078280             -11.0976
       109        2.0000           -0.4058477             -11.0437
       110        2.0000           -0.4034739             -10.9791
       111        2.0000           -0.4030663             -10.9680
       112        2.0000           -0.3891781             -10.5901
       113        2.0000           -0.3739323             -10.1752 (HOMO)
       114                         -0.2626911              -7.1482 (LUMO)
       115                         -0.2552912              -6.9468
       116                         -0.2544454              -6.9238
       117                         -0.2506915              -6.8217
       118                         -0.2468679              -6.7176
       119                         -0.2442611              -6.6467
       120                         -0.2419081              -6.5827
       121                         -0.2367084              -6.4412
       122                         -0.2363852              -6.4324
       123                         -0.2360149              -6.4223
       124                         -0.2345041              -6.3812
       ...                                ...                  ...
       229                          1.1623198              31.6283
      -------------------------------------------------------------
                  HL-Gap            0.1112412 Eh            3.0270 eV

     #   Z          covCN         q      C6AA      α(0)
     1   8 O        0.808    -0.398    21.671     6.240
     2  15 P        4.072     0.056   157.750    22.562
     3   6 C        2.920     0.011    27.761     8.640
     4   6 C        3.029    -0.019    28.444     8.748
     5   6 C        2.919    -0.026    28.648     8.777
     6   6 C        2.920    -0.023    28.591     8.768
     7   6 C        2.920    -0.026    28.662     8.779
     8   6 C        2.971    -0.027    28.662     8.782
     9   6 C        2.920     0.011    27.767     8.641
    10   6 C        3.025    -0.019    28.455     8.750
    11   6 C        2.919    -0.026    28.651     8.778
    12   6 C        2.920    -0.023    28.588     8.768
    13   6 C        2.919    -0.026    28.662     8.779
    14   6 C        2.973    -0.026    28.659     8.781
    15   6 C        2.919     0.009    27.821     8.650
    16   6 C        3.026    -0.017    28.414     8.744
    17   6 C        2.921    -0.039    28.975     8.827
    18   6 C        2.913     0.069    26.461     8.435
    19   7 N        2.802    -0.034    21.897     6.950
    20   6 C        3.074     0.047    26.867     8.498
    21   6 C        2.910    -0.049    29.207     8.862
    22   6 C        2.924    -0.031    28.783     8.798
    23   6 C        2.920    -0.039    28.964     8.825
    24   6 C        2.912    -0.032    28.788     8.798
    25   6 C        3.065    -0.015    28.318     8.726
    26   6 C        3.069    -0.014    28.294     8.722
    27   6 C        2.970    -0.031    28.760     8.797
    28   6 C        2.920     0.002    27.993     8.676
    29  15 P        4.078     0.044   158.285    22.600
    30   8 O        0.808    -0.401    21.726     6.248
    31   6 C        2.920     0.012    27.746     8.638
    32   6 C        3.024    -0.019    28.457     8.750
    33   6 C        2.919    -0.027    28.666     8.780
    34   6 C        2.920    -0.024    28.608     8.771
    35   6 C        2.919    -0.027    28.675     8.781
    36   6 C        2.973    -0.026    28.651     8.780
    37   6 C        2.920     0.013    27.736     8.636
    38   6 C        3.025    -0.019    28.452     8.749
    39   6 C        2.919    -0.027    28.664     8.780
    40   6 C        2.920    -0.024    28.607     8.771
    41   6 C        2.919    -0.027    28.676     8.781
    42   6 C        2.973    -0.026    28.655     8.781
    43   6 C        3.034    -0.024    28.571     8.767
    44   6 C        2.909    -0.049    29.213     8.863
    45   6 C        3.072     0.051    26.786     8.486
    46   6 C        2.921    -0.040    29.006     8.832
    47   6 C        2.969    -0.025    28.618     8.775
    48   1 H        0.925     0.046     2.368     2.406
    49   1 H        0.926     0.044     2.392     2.418
    50   1 H        0.926     0.047     2.357     2.401
    51   1 H        0.926     0.047     2.364     2.404
    52   1 H        0.926     0.045     2.388     2.417
    53   1 H        0.925     0.047     2.354     2.399
    54   1 H        0.926     0.044     2.394     2.420
    55   1 H        0.926     0.047     2.360     2.402
    56   1 H        0.926     0.047     2.363     2.404
    57   1 H        0.926     0.046     2.369     2.407
    58   1 H        0.926     0.056     2.246     2.343
    59   1 H        0.926     0.055     2.262     2.352
    60   1 H        0.926     0.035     2.512     2.479
    61   1 H        0.926     0.037     2.487     2.466
    62   1 H        0.926     0.035     2.510     2.478
    63   1 H        0.926     0.037     2.488     2.467
    64   1 H        0.926     0.045     2.380     2.412
    65   1 H        0.925     0.045     2.385     2.415
    66   1 H        0.926     0.043     2.407     2.426
    67   1 H        0.926     0.046     2.371     2.408
    68   1 H        0.926     0.045     2.381     2.413
    69   1 H        0.926     0.043     2.404     2.425
    70   1 H        0.925     0.045     2.377     2.411
    71   1 H        0.926     0.043     2.405     2.425
    72   1 H        0.926     0.046     2.368     2.407
    73   1 H        0.926     0.045     2.379     2.412
    74   1 H        0.926     0.044     2.397     2.421
    75   1 H        0.925     0.045     2.383     2.414
    76   1 H        0.926     0.041     2.439     2.442
    77   1 H        0.926     0.054     2.267     2.355
    78   1 H        0.926     0.054     2.265     2.353

molecular dipole:
                 x           y           z       tot (Debye)
 q only:       -0.066      -1.884      -0.444
   full:       -0.071      -1.902      -0.483       4.990

 projected vibrational frequencies (cm⁻¹)
eigval :       -0.00    -0.00    -0.00     0.00     0.00     0.00
eigval :        9.15    10.40    13.89    22.27    26.49    27.89
eigval :       31.58    34.91    39.55    43.28    45.66    49.58
eigval :       55.04    63.73    74.37    96.88   104.85   119.12
eigval :      139.70   141.36   148.17   158.74   159.67   172.88
eigval :      192.13   198.64   219.32   224.57   228.63   230.02
eigval :      246.56   271.90   282.02   283.61   284.20   315.73
eigval :      323.36   351.91   362.45   363.09   363.67   364.23
eigval :      366.81   376.74   392.09   395.41   413.83   419.10
eigval :      428.00   440.61   443.84   446.27   458.72   481.05
eigval :      497.62   512.83   518.09   531.49   537.30   562.70
eigval :      569.01   585.32   585.42   585.93   586.10   595.12
eigval :      599.82   625.01   657.70   657.90   658.37   659.83
eigval :      668.04   675.41   680.88   687.66   704.49   710.69
eigval :      714.18   715.21   738.67   740.81   743.32   745.13
eigval :      752.73   778.64   806.95   815.68   821.09   870.50
eigval :      877.06   878.83   878.92   879.95   881.94   883.84
eigval :      902.78   904.15   905.51   906.16   906.40   907.39
eigval :      914.68   922.85   927.38   927.48   928.15   929.48
eigval :      930.30   932.14   932.70   933.01   933.39   934.81
eigval :      935.42   971.07   971.49   974.33   974.49  1009.47
eigval :     1020.29  1071.41  1077.00  1077.14  1077.52  1077.94
eigval :     1097.89  1111.96  1112.77  1114.30  1115.02  1117.84
eigval :     1120.73  1123.14  1124.86  1125.01  1127.96  1128.78
eigval :     1149.80  1174.71  1176.53  1178.42  1178.61  1178.93
eigval :     1179.04  1189.26  1189.83  1191.40  1192.96  1197.01
eigval :     1216.81  1223.61  1227.24  1241.90  1255.14  1268.70
eigval :     1268.78  1271.24  1272.31  1273.42  1299.64  1318.28
eigval :     1319.17  1319.30  1319.50  1319.54  1352.07  1356.85
eigval :     1360.18  1393.96  1415.02  1421.35  1421.50  1422.09
eigval :     1422.65  1423.82  1451.16  1451.57  1451.84  1452.30
eigval :     1461.88  1475.02  1480.98  1558.24  1565.49  1577.85
eigval :     1581.09  1581.16  1581.50  1581.81  1582.11  1583.96
eigval :     1584.54  1584.79  1585.36  1588.85  1607.77  3065.27
eigval :     3065.79  3065.81  3067.59  3068.73  3070.28  3070.94
eigval :     3071.14  3071.90  3073.39  3076.51  3076.85  3076.94
eigval :     3077.50  3077.63  3079.81  3081.52  3082.00  3082.37
eigval :     3082.82  3083.40  3084.03  3090.07  3090.87  3091.69
eigval :     3091.83  3092.02  3092.66  3093.16  3094.22  3097.21

   temp. (K)  partition function   enthalpy   heat capacity  entropy
                                   cal/mol     cal/K/mol   cal/K/mol   J/K/mol
 298.15  VIB  0.904E+20            23741.656    143.224    149.943
         ROT  0.108E+09              888.752      2.981     39.733
         INT  0.973E+28            24630.408    146.205    189.676
         TR   0.158E+29             1481.254      4.968     45.248
         TOT                       26111.6622   151.1733   234.9235   982.9198

       T/K    H(0)-H(T)+PV         H(T)/Eh          T*S/Eh         G(T)/Eh
   ------------------------------------------------------------------------
    298.15    0.416116E-01    0.633494E+00    0.111620E+00    0.521874E+00
   ------------------------------------------------------------------------

         :::::::::::::::::::::::::::::::::::::::::::::::::::::
         ::                  THERMODYNAMIC                  ::
         :::::::::::::::::::::::::::::::::::::::::::::::::::::
         :: total free energy        -121.479218881615 Eh   ::
         ::.................................................::
         :: total energy             -122.001092855890 Eh   ::
         :: zero point energy           0.591882116996 Eh   ::
         :: G(RRHO) w/o ZPVE           -0.070008142722 Eh   ::
         :: G(RRHO) contrib.            0.521873974275 Eh   ::
         :::::::::::::::::::::::::::::::::::::::::::::::::::::

           -------------------------------------------------
          | TOTAL ENERGY             -122.001092855890 Eh   |
          | TOTAL ENTHALPY           -121.367599156411 Eh   |
          | TOTAL FREE ENERGY        -121.479218881615 Eh   |
          | GRADIENT NORM               0.000036098969 Eh/α |
          | HOMO-LUMO GAP               3.027028191213 eV   |
           -------------------------------------------------

 * finished run on 2025/09/13 at 10:07:33.555
