   * xtb version 6.7.1 (edcfbbe) compiled by 'albert@albert-system' on 2024-07-22

   ID    Z sym.   atoms
    1    8 O      1, 30
    2   15 P      2, 29
    3    6 C      3-18, 20-28, 31-47
    4    7 N      19
    5    1 H      48-78

          program call               : xtb data2507/toluene/PPO21/PPO21_toluene_T1_crest.xyz --gfn 2 --uhf 2 --gbsa toluene --ohess vtight --parallel 40 --molden --ceasefiles --namespace data2507/toluene/PPO21/PPO21_toluene_T1_finalOpt
      * Solvation model:               GBSA
        Solvent                        toluene
        Solvent mass                       9.2140E+01 g/mol
          :  Hamiltonian                  GFN2-xTB          :
 * total energy  :  -121.8890568 Eh     change       -0.3306440E-09 Eh
 * total energy  :  -121.8892369 Eh     change       -0.1801304E-03 Eh
 * total energy  :  -121.8893159 Eh     change       -0.7898211E-04 Eh
 * total energy  :  -121.8893331 Eh     change       -0.1720507E-04 Eh
 * total energy  :  -121.8893498 Eh     change       -0.1664888E-04 Eh
 * total energy  :  -121.8893721 Eh     change       -0.2231429E-04 Eh
 * total energy  :  -121.8893940 Eh     change       -0.2195016E-04 Eh
 * total energy  :  -121.8894055 Eh     change       -0.1142862E-04 Eh
 * total energy  :  -121.8894172 Eh     change       -0.1170002E-04 Eh
 * total energy  :  -121.8894239 Eh     change       -0.6758542E-05 Eh
 * total energy  :  -121.8895454 Eh     change       -0.8951869E-06 Eh
 * total energy  :  -121.8895463 Eh     change       -0.8542246E-06 Eh
 * total energy  :  -121.8895471 Eh     change       -0.7691698E-06 Eh
 * total energy  :  -121.8895478 Eh     change       -0.6992557E-06 Eh
 * total energy  :  -121.8895486 Eh     change       -0.8042140E-06 Eh
 * total energy  :  -121.8895494 Eh     change       -0.8051340E-06 Eh
 * total energy  :  -121.8895500 Eh     change       -0.6473031E-06 Eh
 * total energy  :  -121.8895505 Eh     change       -0.4607854E-06 Eh
 * total energy  :  -121.8895505 Eh     change       -0.1885610E-08 Eh
   *** GEOMETRY OPTIMIZATION CONVERGED AFTER 44 ITERATIONS ***

 final structure:
================
78
 xtb: 6.7.1 (edcfbbe)
O           -6.35348780574642       -0.33403273679590        1.78877737879973
P           -5.52599032777535        0.29826880035623        0.73981712482065
C           -6.20106030491910        0.06136693220129       -0.93523544030151
C           -7.01975546421388       -1.04419476174120       -1.13992226063711
C           -7.50415858730912       -1.32441085954543       -2.40312809437818
C           -7.15932476074134       -0.50942749327912       -3.47235918426419
C           -6.33579475878759        0.58849198501336       -3.27192798204509
C           -5.85176007360391        0.87478091768273       -2.00939998584455
C           -5.42394248647612        2.11321862076367        0.95000254395987
C           -6.56509356370723        2.85238627378813        0.66906864426540
C           -6.57958222008491        4.21634866477474        0.89724339484800
C           -5.45337733688559        4.84140612207254        1.41074247336352
C           -4.31848895159093        4.10230294614372        1.70192727891603
C           -4.30299838027259        2.73584431082017        1.47706303819708
C           -3.85335363102089       -0.33916011797682        0.66730509273364
C           -3.51915340091124       -1.44947994337628        1.47552238000145
C           -2.28905740531417       -2.02836609341986        1.40437735455350
C           -1.30197039988413       -1.51437281665025        0.50867420692329
N           -0.05290739577944       -2.07311249027932        0.44243458320349
C            0.22848700001603       -3.43593876519359        0.46868515513432
C           -0.64231876431359       -4.51206458809401        0.48889278656120
C           -0.09854440727541       -5.79522754582933        0.48087924588336
C            1.27770118384081       -5.98877362303050        0.43334035083981
C            2.15735417816209       -4.91537409124618        0.36455954432184
C            1.63552951802034       -3.62706392143579        0.36482338684125
C            2.22018510515374       -2.32805035013393        0.25170827491149
C            3.51698692718662       -1.86558004624716        0.11289381257366
C            3.74499149318484       -0.49572537148859        0.08868999856205
P            5.45562761465619        0.04997353659433       -0.14718268724325
O            6.42521381624615       -1.06368353280849       -0.17383824246324
C            5.42039947609796        1.00117111699491       -1.70044642523032
C            4.94283521426297        2.30426708268836       -1.77528692451885
C            4.90540823355095        2.95042886700016       -2.99745231536734
C            5.33603964392691        2.29988883629295       -4.14381426025660
C            5.81221522187594        0.99991955423266       -4.06985319197751
C            5.85028471388148        0.35002508514979       -2.84941051201151
C            5.82816047017914        1.26639985870034        1.16215275871684
C            5.12411969285455        1.31425043470705        2.35593316013868
C            5.51004730692301        2.20471787123152        3.34406613720079
C            6.59979945938079        3.03639182267010        3.14404671822655
C            7.31358660901375        2.97674463356073        1.95674939393547
C            6.92931026564151        2.09019048795179        0.96725949950288
C            2.68407599525000        0.42553701896445        0.20615562412471
C            1.37928797153932       -0.01571916629930        0.33038022174492
C            1.13802328951729       -1.38399456303199        0.31725369053472
C           -1.64646738079355       -0.40404733709702       -0.31365593018479
C           -2.88823103049637        0.14863912804803       -0.25091852678235
H           -7.28121150452961       -1.65901581884970       -0.28911308332683
H           -8.15045188811171       -2.17657625257391       -2.55671203924666
H           -7.53536832350957       -0.72861210092097       -4.46075528793288
H           -6.07337340117347        1.22596299085561       -4.10401016899595
H           -5.22695061431298        1.74164915300908       -1.84678598154508
H           -7.43469759002985        2.34337431665146        0.27186763790922
H           -7.46733370465471        4.79147122646891        0.67748711493185
H           -5.46356709178609        5.90680561688545        1.58833730029163
H           -3.44425006005715        4.58972293810030        2.10867477738549
H           -3.42515333538416        2.14757776235524        1.70827981875105
H           -4.26349770243630       -1.79991837098799        2.17681188748854
H           -2.01257290390268       -2.81857485565671        2.08541864835687
H           -1.71201130710380       -4.37455361809221        0.48404015835587
H           -0.75929353247284       -6.64738704939835        0.50102536045775
H            1.66940777908266       -6.99506441750322        0.43185709946243
H            3.22280902776391       -5.07377260423617        0.30591371706653
H            4.35850976383575       -2.53951805579000        0.04019675619132
H            4.62359801596787        2.81360439252183       -0.87741041220667
H            4.54130392389142        3.96577350829410       -3.05691118395662
H            5.30437861293388        2.80873652446619       -5.09594723278387
H            6.15307802319909        0.49454143326368       -4.96169619999988
H            6.22546774922139       -0.66072394794623       -2.76338412086368
H            4.27779033288664        0.65822122945815        2.50662557646898
H            4.95973628201864        2.24668206595042        4.27272068622754
H            6.89758997742993        3.72951728460651        3.91700207491367
H            8.16830377165642        3.61931280614587        1.80381659290605
H            7.47522714128740        2.02525253858366        0.03433911627740
H            2.90189067293285        1.48090628062765        0.22015289696919
H            0.57714697199715        0.69402124140265        0.45949475861530
H           -0.93286034684576       -0.06505214851425       -1.04927874570134
H           -3.15642791756087        0.96413514070985       -0.90500153483139

          :  Hamiltonian                  GFN2-xTB          :
         :: gradient norm              0.000064893268 Eh/a0 ::
         :: HOMO-LUMO gap              0.285248688897 eV    ::
         :: SCC energy              -124.063494706001 Eh    ::
         :: -> dispersion             -0.110997347943 Eh    ::
         :: -> Gsolv                  -0.062656817040 Eh    ::
         :: repulsion energy           2.173944222233 Eh    ::

    * Orbital Energies and Occupations

         #    Occupation            Energy/Eh            Energy/eV
      -------------------------------------------------------------
         1        2.0000           -0.6992329             -19.0271
       ...           ...                  ...                  ...
       102        2.0000           -0.4169829             -11.3467
       103        2.0000           -0.4159709             -11.3191
       104        2.0000           -0.4154758             -11.3057
       105        2.0000           -0.4145633             -11.2808
       106        2.0000           -0.4130428             -11.2395
       107        2.0000           -0.4109964             -11.1838
       108        2.0000           -0.4090178             -11.1299
       109        2.0000           -0.4065631             -11.0631
       110        2.0000           -0.4046960             -11.0123
       111        2.0000           -0.4019979             -10.9389
       112        1.9992           -0.3937873             -10.7155
       113        1.0008           -0.3802047             -10.3459
       114        0.9960           -0.2711969              -7.3796 (HOMO)
       115        0.0040           -0.2607151              -7.0944 (LUMO)
       116        0.0000           -0.2563629              -6.9760
       117                         -0.2457633              -6.6876
       118                         -0.2430960              -6.6150
       119                         -0.2412397              -6.5645
       120                         -0.2401827              -6.5357
       121                         -0.2369470              -6.4477
       122                         -0.2348415              -6.3904
       123                         -0.2347454              -6.3877
       124                         -0.2339892              -6.3672
       125                         -0.2304666              -6.2713
       ...                                ...                  ...
       229                          1.1963118              32.5533
      -------------------------------------------------------------
                  HL-Gap            0.0104818 Eh            0.2852 eV

     #   Z          covCN         q      C6AA      α(0)
     1   8 O        0.808    -0.395    21.605     6.231
     2  15 P        4.056    -0.003   160.365    22.748
     3   6 C        2.920     0.014    27.697     8.630
     4   6 C        3.021    -0.021    28.512     8.759
     5   6 C        2.918    -0.029    28.724     8.789
     6   6 C        2.920    -0.029    28.730     8.790
     7   6 C        2.919    -0.028    28.697     8.785
     8   6 C        2.973    -0.028    28.689     8.786
     9   6 C        2.921     0.019    27.582     8.612
    10   6 C        3.016    -0.018    28.444     8.748
    11   6 C        2.919    -0.027    28.666     8.780
    12   6 C        2.920    -0.025    28.632     8.775
    13   6 C        2.920    -0.027    28.679     8.782
    14   6 C        2.975    -0.023    28.581     8.769
    15   6 C        2.914     0.004    27.928     8.666
    16   6 C        3.004    -0.023    28.557     8.766
    17   6 C        2.911    -0.041    29.013     8.832
    18   6 C        2.910     0.035    27.221     8.555
    19   7 N        2.790     0.040    20.545     6.732
    20   6 C        3.061     0.040    27.056     8.530
    21   6 C        2.908    -0.030    28.754     8.793
    22   6 C        2.919    -0.039    28.974     8.827
    23   6 C        2.917    -0.020    28.517     8.757
    24   6 C        2.910    -0.028    28.704     8.785
    25   6 C        3.050    -0.010    28.227     8.714
    26   6 C        3.054    -0.012    28.272     8.720
    27   6 C        3.020    -0.019    28.463     8.751
    28   6 C        2.918     0.014    27.704     8.631
    29  15 P        4.082     0.040   158.456    22.612
    30   8 O        0.808    -0.396    21.627     6.234
    31   6 C        2.920     0.013    27.735     8.636
    32   6 C        2.974    -0.025    28.621     8.775
    33   6 C        2.919    -0.026    28.661     8.779
    34   6 C        2.920    -0.025    28.621     8.773
    35   6 C        2.918    -0.027    28.674     8.781
    36   6 C        3.024    -0.020    28.473     8.753
    37   6 C        2.921     0.016    27.650     8.623
    38   6 C        2.976    -0.023    28.575     8.768
    39   6 C        2.920    -0.026    28.654     8.778
    40   6 C        2.920    -0.024    28.606     8.771
    41   6 C        2.919    -0.026    28.647     8.777
    42   6 C        3.020    -0.019    28.449     8.749
    43   6 C        2.977    -0.047    29.172     8.860
    44   6 C        2.906    -0.032    28.800     8.800
    45   6 C        3.055     0.031    27.255     8.562
    46   6 C        2.912    -0.039    28.967     8.825
    47   6 C        2.968    -0.031    28.773     8.799
    48   1 H        0.925     0.042     2.422     2.434
    49   1 H        0.926     0.039     2.463     2.454
    50   1 H        0.926     0.041     2.431     2.438
    51   1 H        0.926     0.042     2.429     2.437
    52   1 H        0.926     0.037     2.485     2.465
    53   1 H        0.925     0.036     2.507     2.476
    54   1 H        0.926     0.042     2.417     2.431
    55   1 H        0.926     0.045     2.378     2.412
    56   1 H        0.926     0.044     2.390     2.418
    57   1 H        0.925     0.038     2.471     2.458
    58   1 H        0.926     0.050     2.320     2.382
    59   1 H        0.926     0.051     2.309     2.376
    60   1 H        0.926     0.052     2.290     2.367
    61   1 H        0.926     0.046     2.372     2.408
    62   1 H        0.926     0.048     2.340     2.392
    63   1 H        0.926     0.046     2.371     2.408
    64   1 H        0.926     0.056     2.249     2.345
    65   1 H        0.926     0.043     2.411     2.428
    66   1 H        0.926     0.046     2.370     2.407
    67   1 H        0.926     0.046     2.371     2.408
    68   1 H        0.926     0.043     2.407     2.426
    69   1 H        0.925     0.047     2.361     2.403
    70   1 H        0.925     0.040     2.449     2.447
    71   1 H        0.926     0.046     2.375     2.410
    72   1 H        0.926     0.047     2.358     2.401
    73   1 H        0.926     0.045     2.385     2.415
    74   1 H        0.925     0.038     2.473     2.459
    75   1 H        0.926     0.047     2.352     2.398
    76   1 H        0.926     0.054     2.267     2.354
    77   1 H        0.926     0.052     2.299     2.371
    78   1 H        0.926     0.048     2.347     2.396

molecular dipole:
                 x           y           z       tot (Debye)
 q only:        0.831       1.172      -1.237
   full:        0.731       1.324      -1.362       5.173

 projected vibrational frequencies (cm⁻¹)
eigval :       -0.00    -0.00    -0.00     0.00     0.00     0.00
eigval :        4.10     9.84    11.85    16.95    21.56    26.85
eigval :       30.52    35.76    41.26    47.01    51.90    53.06
eigval :       58.31    63.59    77.15    93.68   105.66   120.44
eigval :      127.67   139.10   147.87   153.92   156.08   165.01
eigval :      176.94   189.26   207.34   230.69   236.61   238.92
eigval :      248.72   262.90   266.71   271.33   280.04   294.86
eigval :      306.37   332.92   353.19   359.67   362.94   364.99
eigval :      365.75   370.23   381.77   383.61   398.89   403.27
eigval :      408.63   425.00   432.13   447.43   459.17   463.74
eigval :      483.03   490.04   490.95   514.41   537.05   552.79
eigval :      557.46   573.13   582.91   583.25   584.34   585.20
eigval :      587.41   609.91   629.97   645.94   649.12   653.85
eigval :      654.81   659.30   662.40   681.76   686.75   694.09
eigval :      706.25   713.04   727.78   733.94   736.18   737.49
eigval :      739.28   754.43   779.82   787.18   804.04   816.03
eigval :      847.01   861.30   866.77   872.25   874.52   877.87
eigval :      879.31   879.45   886.98   891.77   897.61   899.27
eigval :      901.32   903.36   904.80   905.24   911.51   920.87
eigval :      923.46   923.77   923.84   926.56   927.46   933.30
eigval :      933.58   957.46   966.08   969.14   971.95   973.72
eigval :      998.16  1023.07  1053.64  1068.27  1071.92  1074.58
eigval :     1076.44  1076.50  1077.46  1103.29  1108.24  1109.37
eigval :     1111.70  1111.76  1112.64  1114.69  1119.54  1123.52
eigval :     1125.49  1161.93  1166.13  1175.67  1177.46  1178.13
eigval :     1179.88  1184.36  1185.41  1187.50  1188.28  1189.48
eigval :     1195.92  1207.48  1212.39  1214.87  1223.77  1235.19
eigval :     1248.06  1265.83  1267.49  1269.35  1269.45  1294.06
eigval :     1307.21  1316.98  1317.57  1320.89  1322.86  1327.33
eigval :     1329.67  1350.30  1381.03  1390.77  1407.55  1418.74
eigval :     1419.92  1422.52  1422.70  1428.15  1439.97  1442.72
eigval :     1447.86  1452.51  1452.91  1462.06  1465.44  1484.31
eigval :     1522.85  1545.42  1549.72  1559.46  1566.40  1574.36
eigval :     1577.48  1582.12  1582.65  1584.07  1584.23  3045.80
eigval :     3046.70  3058.85  3062.25  3063.82  3064.82  3065.71
eigval :     3069.12  3071.05  3073.68  3074.58  3076.35  3076.76
eigval :     3077.36  3078.43  3079.65  3081.41  3082.06  3082.17
eigval :     3084.06  3090.19  3090.33  3090.47  3091.53  3092.52
eigval :     3093.31  3094.62  3095.42  3099.56  3106.38  3108.79

   temp. (K)  partition function   enthalpy   heat capacity  entropy
                                   cal/mol     cal/K/mol   cal/K/mol   J/K/mol
 298.15  VIB  0.517E+21            24181.323    146.205    153.885
         ROT  0.108E+09              888.752      2.981     39.741
         INT  0.559E+29            25070.076    149.185    193.626
         TR   0.158E+29             1481.254      4.968     45.248
         TOT                       26551.3297   154.1536   238.8736   999.4471

       T/K    H(0)-H(T)+PV         H(T)/Eh          T*S/Eh         G(T)/Eh
   ------------------------------------------------------------------------
    298.15    0.423122E-01    0.628136E+00    0.113497E+00    0.514640E+00
   ------------------------------------------------------------------------

         :::::::::::::::::::::::::::::::::::::::::::::::::::::
         ::                  THERMODYNAMIC                  ::
         :::::::::::::::::::::::::::::::::::::::::::::::::::::
         :: total free energy        -121.374910952819 Eh   ::
         ::.................................................::
         :: total energy             -121.889550488067 Eh   ::
         :: zero point energy           0.585823848188 Eh   ::
         :: G(RRHO) w/o ZPVE           -0.071184312940 Eh   ::
         :: G(RRHO) contrib.            0.514639535247 Eh   ::
         :::::::::::::::::::::::::::::::::::::::::::::::::::::

           -------------------------------------------------
          | TOTAL ENERGY             -121.889550488067 Eh   |
          | TOTAL ENTHALPY           -121.261414402669 Eh   |
          | TOTAL FREE ENERGY        -121.374910952819 Eh   |
          | GRADIENT NORM               0.000065931888 Eh/α |
          | HOMO-LUMO GAP               0.285223961319 eV   |
           -------------------------------------------------

 * finished run on 2025/09/13 at 10:31:33.205
