   * xtb version 6.7.1 (edcfbbe) compiled by 'albert@albert-system' on 2024-07-22

   ID    Z sym.   atoms
    1    8 O      1, 30
    2   15 P      2, 29
    3    6 C      3-18, 20-28, 31-47
    4    7 N      19
    5    1 H      48-78

          program call               : xtb data2507/toluene/PPO21/PPO21_toluene_S0_finalOpt.xtbopt.xyz --gfn 2 --uhf 2 --gbsa toluene --ohess vtight --parallel 40 --molden --ceasefiles --namespace data2507/toluene/PPO21/PPO21_toluene_T1_preOpt
      * Solvation model:               GBSA
        Solvent                        toluene
        Solvent mass                       9.2140E+01 g/mol
          :  Hamiltonian                  GFN2-xTB          :
 * total energy  :  -121.8831456 Eh     change        0.2469136E-09 Eh
 * total energy  :  -121.8860273 Eh     change       -0.2881689E-02 Eh
 * total energy  :  -121.8869004 Eh     change       -0.8731528E-03 Eh
 * total energy  :  -121.8870548 Eh     change       -0.1543681E-03 Eh
 * total energy  :  -121.8871653 Eh     change       -0.1104846E-03 Eh
 * total energy  :  -121.8872180 Eh     change       -0.5270961E-04 Eh
 * total energy  :  -121.8872712 Eh     change       -0.5319416E-04 Eh
 * total energy  :  -121.8873136 Eh     change       -0.4246350E-04 Eh
 * total energy  :  -121.8873448 Eh     change       -0.3117202E-04 Eh
 * total energy  :  -121.8873665 Eh     change       -0.2171600E-04 Eh
 * total energy  :  -121.8892969 Eh     change       -0.3800834E-06 Eh
 * total energy  :  -121.8892973 Eh     change       -0.4786967E-06 Eh
 * total energy  :  -121.8892979 Eh     change       -0.5131318E-06 Eh
 * total energy  :  -121.8892984 Eh     change       -0.5286999E-06 Eh
 * total energy  :  -121.8892989 Eh     change       -0.4767941E-06 Eh
 * total energy  :  -121.8892992 Eh     change       -0.3512397E-06 Eh
 * total energy  :  -121.8892994 Eh     change       -0.1462135E-06 Eh
 * total energy  :  -121.8892995 Eh     change       -0.1606420E-06 Eh
 * total energy  :  -121.8892996 Eh     change       -0.6597203E-07 Eh
   *** GEOMETRY OPTIMIZATION CONVERGED AFTER 219 ITERATIONS ***

 final structure:
================
78
 xtb: 6.7.1 (edcfbbe)
O           -6.48848602468434        0.12420401184551        1.92658653020480
P           -5.82577049229573        0.34790465039071        0.62422175175604
C           -6.54645685298214       -0.65252641599628       -0.71499983738414
C           -7.20918688655774       -1.81974592036299       -0.34906549018830
C           -7.70901681232499       -2.66679712608280       -1.31902113808578
C           -7.53344259534367       -2.36095095574866       -2.66160150073799
C           -6.86397920653855       -1.20260362303113       -3.02858995013927
C           -6.36508748383288       -0.35043097670389       -2.06202131834018
C           -5.98767083315091        2.08033826922878        0.05954882163802
C           -4.95335374525258        2.99611617891999        0.17701422635586
C           -5.16295007315813        4.31793336339285       -0.17886406668721
C           -6.40444204255487        4.72459336551649       -0.63990260139782
C           -7.44351921783056        3.81205092252192       -0.74191200122004
C           -7.23512319001276        2.49064407217118       -0.39083684652250
C           -4.08330822985125       -0.06733015360739        0.63037734849891
C           -3.56259679629154       -0.75548799839670        1.75057253037964
C           -2.27330998846181       -1.19062181975125        1.77362201140385
C           -1.41063905122232       -0.94348134734652        0.66232831242123
N           -0.10401354737321       -1.35799468865765        0.68594036055244
C            0.34795662599136       -2.57923870070671        1.16603427639673
C           -0.37783126658410       -3.66393308142332        1.63131826580474
C            0.32324086716903       -4.79879359091023        2.02904979756836
C            1.71322789412699       -4.84790741702907        1.94393565644246
C            2.44661669500243       -3.78360304608979        1.43857329725612
C            1.76671509822577       -2.64126752463300        1.02782625342828
C            2.17428189617404       -1.41277818660323        0.42702699478972
C            3.40524993565475       -0.89136224133507        0.05229600629672
C            3.45052418323697        0.39852322854594       -0.46154977191588
P            5.01172111786228        1.20133292420228       -0.93521147479879
O            4.84003730089267        2.23718548693392       -1.97156430827418
C            5.72043471779333        1.85700100352813        0.61286706030910
C            6.56759379181531        2.95070114913715        0.49479821840225
C            7.16304237321023        3.49118624517404        1.62057340615436
C            6.91045770174983        2.93802354266308        2.86612027823042
C            6.06005313967391        1.85006354558487        2.98554810428940
C            5.46268422684704        1.30654888250328        1.86168693931855
C            6.12890850344425       -0.14367705761226       -1.45080164699649
C            6.23426738372535       -0.38543294961984       -2.81411605125802
C            7.05904450664337       -1.39512419837859       -3.27693206597675
C            7.77910195272745       -2.16413705155877       -2.37618936200358
C            7.67938973331524       -1.91931884363638       -1.01536636738100
C            6.85607082873114       -0.90984708258546       -0.54842852601569
C            2.28832375499769        1.17090302845544       -0.60432828849160
C            1.04581368524208        0.66341489921820       -0.25067867908246
C            0.98566619887332       -0.63281086235421        0.23648461347373
C           -1.93859348483229       -0.25685709468354       -0.46718436788423
C           -3.23890317844735        0.14389577229260       -0.49067996124032
H           -7.33924508986162       -2.03181370168137        0.70369609025033
H           -8.23520288129374       -3.56571874008405       -1.03164074365503
H           -7.92091690895671       -3.02380105539585       -3.42112404084657
H           -6.73338881627199       -0.96273234465241       -4.07407808684574
H           -5.85929336153497        0.56184283744655       -2.34487846793928
H           -3.99078663462930        2.66927043370634        0.54692168167938
H           -4.35646233643279        5.03179474039452       -0.09321004571941
H           -6.56531338164008        5.75637778549816       -0.91596442541615
H           -8.41390991697256        4.13135275841142       -1.09335982999091
H           -8.03311848360859        1.76149344065190       -0.46010641011045
H           -4.21604831911411       -0.89384504159132        2.60060142799105
H           -1.85909360889283       -1.64161270243629        2.66239623236922
H           -1.45591217221679       -3.64894866821371        1.66369647463046
H           -0.22112476080301       -5.65403773150117        2.39671202174722
H            2.22784311019713       -5.74246397955425        2.26201164215516
H            3.52067284312941       -3.84111460399290        1.35653859997926
H            4.30765922985959       -1.47413236604430        0.15725597722537
H            6.74078129237814        3.37035318125371       -0.48689467582670
H            7.82177541328414        4.34214831821104        1.52709317294586
H            7.37365660702870        3.35866825861721        3.74649799539902
H            5.85961194006903        1.42465697497108        3.95812487358212
H            4.79078039831844        0.46488533445180        1.95226682500236
H            5.67090214778879        0.23581100495691       -3.49693736136223
H            7.14144550755141       -1.58087899881666       -4.33783260465765
H            8.42399535270664       -2.95245331706122       -2.73561219674844
H            8.24818514937846       -2.51449954694043       -0.31587875481174
H            6.78635512958424       -0.70672545828464        0.51079836800035
H            2.38455846827443        2.17371242094102       -0.99219102881160
H            0.16377342855562        1.27922866430860       -0.33103421474044
H           -1.31253496390651       -0.13643546207740       -1.33853281134725
H           -3.64535970835225        0.62671656029653       -1.36630590135142

          :  Hamiltonian                  GFN2-xTB          :
         :: gradient norm              0.000061107282 Eh/a0 ::
         :: HOMO-LUMO gap              0.230830875870 eV    ::
         :: SCC energy              -124.062700927502 Eh    ::
         :: -> dispersion             -0.110956511880 Eh    ::
         :: -> Gsolv                  -0.062928598301 Eh    ::
         :: repulsion energy           2.173401341739 Eh    ::

    * Orbital Energies and Occupations

         #    Occupation            Energy/Eh            Energy/eV
      -------------------------------------------------------------
         1        2.0000           -0.6994906             -19.0341
       ...           ...                  ...                  ...
       102        2.0000           -0.4175981             -11.3634
       103        2.0000           -0.4170116             -11.3475
       104        2.0000           -0.4152543             -11.2996
       105        2.0000           -0.4149127             -11.2904
       106        2.0000           -0.4123149             -11.2197
       107        2.0000           -0.4103571             -11.1664
       108        2.0000           -0.4071862             -11.0801
       109        2.0000           -0.4061357             -11.0515
       110        2.0000           -0.4040086             -10.9936
       111        2.0000           -0.4015181             -10.9259
       112        1.9991           -0.3935604             -10.7093
       113        1.0009           -0.3801777             -10.3452
       114        0.9886           -0.2703612              -7.3569 (HOMO)
       115        0.0114           -0.2618784              -7.1261 (LUMO)
       116        0.0000           -0.2531080              -6.8874
       117        0.0000           -0.2522441              -6.8639
       118                         -0.2425952              -6.6014
       119                         -0.2413071              -6.5663
       120                         -0.2393878              -6.5141
       121                         -0.2364256              -6.4335
       122                         -0.2358101              -6.4167
       123                         -0.2344664              -6.3802
       124                         -0.2335830              -6.3561
       125                         -0.2297012              -6.2505
       ...                                ...                  ...
       229                          1.1969447              32.5705
      -------------------------------------------------------------
                  HL-Gap            0.0084828 Eh            0.2308 eV

     #   Z          covCN         q      C6AA      α(0)
     1   8 O        0.808    -0.395    21.599     6.230
     2  15 P        4.058    -0.007   160.515    22.759
     3   6 C        2.920     0.014    27.699     8.631
     4   6 C        3.022    -0.022    28.520     8.760
     5   6 C        2.918    -0.029    28.730     8.790
     6   6 C        2.920    -0.030    28.746     8.792
     7   6 C        2.919    -0.028    28.701     8.785
     8   6 C        2.973    -0.028    28.696     8.787
     9   6 C        2.921     0.020    27.570     8.611
    10   6 C        2.976    -0.023    28.576     8.769
    11   6 C        2.920    -0.027    28.678     8.782
    12   6 C        2.920    -0.025    28.632     8.775
    13   6 C        2.919    -0.027    28.667     8.780
    14   6 C        3.016    -0.018    28.447     8.749
    15   6 C        2.913     0.005    27.920     8.665
    16   6 C        3.006    -0.023    28.563     8.767
    17   6 C        2.911    -0.040    29.003     8.831
    18   6 C        2.911     0.034    27.233     8.557
    19   7 N        2.792     0.040    20.552     6.733
    20   6 C        3.061     0.038    27.083     8.534
    21   6 C        2.908    -0.030    28.750     8.792
    22   6 C        2.919    -0.041    29.029     8.835
    23   6 C        2.917    -0.020    28.514     8.757
    24   6 C        2.909    -0.030    28.748     8.792
    25   6 C        3.052    -0.012    28.265     8.719
    26   6 C        3.055    -0.014    28.306     8.725
    27   6 C        2.968    -0.030    28.746     8.794
    28   6 C        2.918     0.015    27.676     8.627
    29  15 P        4.079     0.051   157.959    22.577
    30   8 O        0.808    -0.398    21.661     6.239
    31   6 C        2.920     0.012    27.736     8.636
    32   6 C        3.028    -0.019    28.444     8.748
    33   6 C        2.919    -0.026    28.650     8.777
    34   6 C        2.920    -0.024    28.595     8.769
    35   6 C        2.920    -0.026    28.662     8.779
    36   6 C        2.970    -0.026    28.658     8.781
    37   6 C        2.920     0.013    27.735     8.636
    38   6 C        3.025    -0.019    28.448     8.749
    39   6 C        2.919    -0.026    28.652     8.778
    40   6 C        2.920    -0.024    28.598     8.770
    41   6 C        2.919    -0.026    28.662     8.779
    42   6 C        2.973    -0.026    28.659     8.781
    43   6 C        3.027    -0.039    28.939     8.824
    44   6 C        2.906    -0.032    28.791     8.798
    45   6 C        3.057     0.036    27.144     8.544
    46   6 C        2.911    -0.038    28.953     8.823
    47   6 C        2.967    -0.031    28.775     8.799
    48   1 H        0.925     0.042     2.421     2.433
    49   1 H        0.926     0.039     2.465     2.455
    50   1 H        0.926     0.041     2.436     2.441
    51   1 H        0.926     0.041     2.438     2.442
    52   1 H        0.926     0.036     2.498     2.472
    53   1 H        0.925     0.038     2.477     2.461
    54   1 H        0.926     0.044     2.398     2.422
    55   1 H        0.926     0.045     2.379     2.412
    56   1 H        0.926     0.043     2.414     2.430
    57   1 H        0.925     0.036     2.503     2.474
    58   1 H        0.926     0.050     2.317     2.380
    59   1 H        0.926     0.051     2.305     2.374
    60   1 H        0.926     0.050     2.323     2.383
    61   1 H        0.926     0.044     2.402     2.423
    62   1 H        0.926     0.048     2.346     2.395
    63   1 H        0.926     0.047     2.360     2.402
    64   1 H        0.926     0.052     2.290     2.367
    65   1 H        0.925     0.046     2.367     2.406
    66   1 H        0.926     0.044     2.396     2.421
    67   1 H        0.926     0.047     2.360     2.403
    68   1 H        0.926     0.047     2.361     2.403
    69   1 H        0.926     0.046     2.376     2.410
    70   1 H        0.925     0.047     2.362     2.404
    71   1 H        0.926     0.044     2.396     2.421
    72   1 H        0.926     0.047     2.359     2.402
    73   1 H        0.926     0.047     2.361     2.403
    74   1 H        0.926     0.046     2.370     2.407
    75   1 H        0.926     0.048     2.349     2.397
    76   1 H        0.926     0.052     2.292     2.368
    77   1 H        0.926     0.050     2.316     2.380
    78   1 H        0.926     0.047     2.363     2.404

molecular dipole:
                 x           y           z       tot (Debye)
 q only:        2.592      -1.834       0.072
   full:        2.541      -1.842      -0.005       7.975

 projected vibrational frequencies (cm⁻¹)
eigval :       -0.00    -0.00    -0.00    -0.00    -0.00     0.00
eigval :        5.88     8.67    14.34    15.87    23.68    25.19
eigval :       28.87    31.45    37.84    43.52    47.41    52.93
eigval :       54.13    61.81    80.67    99.25   103.66   117.78
eigval :      132.00   137.59   147.33   154.98   158.84   167.55
eigval :      184.85   195.70   215.32   220.09   228.22   236.58
eigval :      242.53   263.06   271.52   280.67   283.98   285.61
eigval :      307.15   334.43   357.13   360.02   362.25   363.23
eigval :      365.51   369.95   380.97   383.41   399.21   403.22
eigval :      416.02   422.12   434.17   440.42   455.19   459.22
eigval :      482.39   488.55   505.60   513.40   535.50   549.93
eigval :      562.49   574.51   580.52   583.35   584.90   585.25
eigval :      586.38   609.96   629.70   647.48   651.81   654.59
eigval :      656.00   656.94   661.86   680.45   684.92   695.71
eigval :      706.78   711.44   729.76   732.47   737.03   737.83
eigval :      741.15   752.57   778.55   787.62   798.55   815.36
eigval :      842.06   846.01   868.51   873.24   873.94   876.51
eigval :      877.88   882.34   884.12   893.25   896.37   897.58
eigval :      901.60   901.90   904.71   905.67   910.20   920.76
eigval :      922.51   923.20   926.31   927.09   927.28   930.54
eigval :      931.47   957.62   966.25   969.57   972.16   973.15
eigval :      994.65  1030.32  1042.72  1064.02  1072.13  1075.68
eigval :     1076.39  1076.61  1080.86  1102.01  1109.00  1109.97
eigval :     1110.53  1111.51  1113.83  1117.97  1119.18  1121.34
eigval :     1125.56  1160.66  1167.75  1176.61  1177.60  1177.96
eigval :     1178.19  1186.57  1186.81  1187.40  1188.08  1190.48
eigval :     1195.16  1205.68  1211.60  1218.22  1226.72  1232.54
eigval :     1252.75  1266.72  1266.99  1268.68  1270.28  1283.45
eigval :     1305.39  1314.96  1317.63  1319.05  1319.56  1323.62
eigval :     1328.17  1356.48  1377.98  1386.35  1418.91  1419.06
eigval :     1420.80  1421.56  1422.90  1434.97  1441.47  1444.85
eigval :     1449.77  1450.75  1452.61  1462.75  1468.00  1480.96
eigval :     1521.18  1541.44  1549.07  1556.88  1573.39  1578.73
eigval :     1580.14  1580.55  1582.28  1582.58  1584.33  3043.19
eigval :     3058.78  3062.68  3064.57  3065.80  3067.43  3070.28
eigval :     3070.31  3070.98  3073.41  3073.96  3076.56  3077.02
eigval :     3077.56  3079.20  3080.99  3082.35  3082.76  3084.32
eigval :     3087.28  3088.09  3089.11  3089.61  3089.88  3091.46
eigval :     3091.95  3092.69  3095.15  3098.56  3099.80  3107.06

   temp. (K)  partition function   enthalpy   heat capacity  entropy
                                   cal/mol     cal/K/mol   cal/K/mol   J/K/mol
 298.15  VIB  0.513E+21            24191.282    145.851    153.387
         ROT  0.108E+09              888.752      2.981     39.734
         INT  0.552E+29            25080.034    148.831    193.121
         TR   0.158E+29             1481.254      4.968     45.248
         TOT                       26561.2879   153.7996   238.3682   997.3324

       T/K    H(0)-H(T)+PV         H(T)/Eh          T*S/Eh         G(T)/Eh
   ------------------------------------------------------------------------
    298.15    0.423281E-01    0.628116E+00    0.113256E+00    0.514860E+00
   ------------------------------------------------------------------------

         :::::::::::::::::::::::::::::::::::::::::::::::::::::
         ::                  THERMODYNAMIC                  ::
         :::::::::::::::::::::::::::::::::::::::::::::::::::::
         :: total free energy        -121.374440058549 Eh   ::
         ::.................................................::
         :: total energy             -121.889299581848 Eh   ::
         :: zero point energy           0.585787824622 Eh   ::
         :: G(RRHO) w/o ZPVE           -0.070928301323 Eh   ::
         :: G(RRHO) contrib.            0.514859523299 Eh   ::
         :::::::::::::::::::::::::::::::::::::::::::::::::::::

           -------------------------------------------------
          | TOTAL ENERGY             -121.889299581848 Eh   |
          | TOTAL ENTHALPY           -121.261183650703 Eh   |
          | TOTAL FREE ENERGY        -121.374440058549 Eh   |
          | GRADIENT NORM               0.000058999378 Eh/α |
          | HOMO-LUMO GAP               0.230828547356 eV   |
           -------------------------------------------------

 * finished run on 2025/09/13 at 10:18:46.967
