   * xtb version 6.7.1 (edcfbbe) compiled by 'albert@albert-system' on 2024-07-22

   ID    Z sym.   atoms
    1    8 O      1, 30
    2   15 P      2, 29
    3    6 C      3-18, 20-28, 31-47
    4    7 N      19
    5    1 H      48-78

          program call               : xtb data2507/toluene/PPO21/PPO21_toluene_S0_crest.xyz --gfn 2 --gbsa toluene --ohess vtight --parallel 40 --molden --ceasefiles --namespace data2507/toluene/PPO21/PPO21_toluene_S0_finalOpt
      * Solvation model:               GBSA
        Solvent                        toluene
        Solvent mass                       9.2140E+01 g/mol
          :  Hamiltonian                  GFN2-xTB          :
 * total energy  :  -122.0007491 Eh     change       -0.3347381E-08 Eh
 * total energy  :  -122.0009069 Eh     change       -0.1577952E-03 Eh
 * total energy  :  -122.0009658 Eh     change       -0.5895453E-04 Eh
 * total energy  :  -122.0009797 Eh     change       -0.1390204E-04 Eh
 * total energy  :  -122.0009953 Eh     change       -0.1554988E-04 Eh
 * total energy  :  -122.0010160 Eh     change       -0.2069825E-04 Eh
 * total energy  :  -122.0010290 Eh     change       -0.1303742E-04 Eh
 * total energy  :  -122.0010356 Eh     change       -0.6565211E-05 Eh
 * total energy  :  -122.0010412 Eh     change       -0.5612617E-05 Eh
 * total energy  :  -122.0010436 Eh     change       -0.2389258E-05 Eh
 * total energy  :  -122.0010847 Eh     change       -0.1018011E-05 Eh
 * total energy  :  -122.0010858 Eh     change       -0.1140119E-05 Eh
 * total energy  :  -122.0010867 Eh     change       -0.8329522E-06 Eh
 * total energy  :  -122.0010873 Eh     change       -0.5881832E-06 Eh
 * total energy  :  -122.0010879 Eh     change       -0.6367630E-06 Eh
 * total energy  :  -122.0010886 Eh     change       -0.7380538E-06 Eh
 * total energy  :  -122.0010894 Eh     change       -0.7296060E-06 Eh
 * total energy  :  -122.0010898 Eh     change       -0.4884033E-06 Eh
 * total energy  :  -122.0010899 Eh     change       -0.7672512E-08 Eh
   *** GEOMETRY OPTIMIZATION CONVERGED AFTER 44 ITERATIONS ***

 final structure:
================
78
 xtb: 6.7.1 (edcfbbe)
O           -6.11271777921442        0.82610831381389        2.22122900007659
P           -5.72422829681066        0.61120345461184        0.81456569107135
C           -6.72005865616740       -0.67334598109206       -0.01054754656040
C           -8.02508346075187       -0.83238607133978        0.43682907747169
C           -8.84847487107387       -1.77761640182855       -0.14827914592362
C           -8.36653628749795       -2.56581159031884       -1.18153880725695
C           -7.06253504043334       -2.41163265988586       -1.62537752503384
C           -6.23621276550961       -1.46636874056191       -1.04302221878419
C           -5.89055515070917        2.10837494237791       -0.21015055941149
C           -5.81031304999258        3.33062651746408        0.44386894734135
C           -5.91364043918069        4.50896133186606       -0.27388189641860
C           -6.09946399094781        4.46532852815834       -1.64660223770426
C           -6.18696729394269        3.24558881246743       -2.29967206881515
C           -6.08424612499691        2.06492185045893       -1.58514383703319
C           -3.99110541610211        0.07435383824310        0.63759669445624
C           -3.44090209649439       -0.62280299299033        1.70581411251606
C           -2.13961772676235       -1.08027194211644        1.64701362071145
C           -1.37523774291684       -0.84724920639719        0.50525806933733
N           -0.05602282900517       -1.31622370145081        0.43552920960123
C            0.35555552229483       -2.61017068131502        0.70532460747678
C           -0.39778562225934       -3.72653906814497        1.03971768854397
C            0.27095779814148       -4.92090369074328        1.23189806203289
C            1.65410960900515       -5.01327954746369        1.08799722621501
C            2.40604923791626       -3.91148452972217        0.73167424340500
C            1.75508308475852       -2.70027260378405        0.53271573098568
C            2.20303667745219       -1.39026709755675        0.14754767514821
C            3.45226503197358       -0.86027963715025       -0.13626570429744
C            3.53860618654622        0.48452421238029       -0.45842531740927
P            5.11654128115623        1.31508727852032       -0.81651248432178
O            4.97996123709185        2.43690340739191       -1.76640657459130
C            5.78577082791688        1.83320570788608        0.79892486175271
C            6.65179928104128        2.91858838982900        0.80001859115731
C            7.21703001268017        3.35429332247388        1.98511613145778
C            6.91555345371762        2.70435512672540        3.17161558651483
C            6.04688298600929        1.62430855339016        3.17293972693423
C            5.47979971297726        1.18603758555970        1.98899958969081
C            6.25300748196493        0.01877850678389       -1.40776313072602
C            6.43864456559640       -0.08211471819778       -2.77992678035814
C            7.28258405345117       -1.04904644791430       -3.29694290298765
C            7.94165789635878       -1.91721345817996       -2.44108776220858
C            7.76144204415592       -1.81447354962964       -1.07039778012660
C            6.91963845091181       -0.84738281646534       -0.55006599535848
C            2.39746006489916        1.29123282321640       -0.48943546521004
C            1.14563332356782        0.78365231099867       -0.21067310378215
C            1.04976751916015       -0.56863884528522        0.09604570788339
C           -1.92561858018768       -0.14439005246686       -0.56496166301353
C           -3.22572033813979        0.31780127681757       -0.49611163759325
H           -8.37365152289672       -0.21272432099108        1.25188299952011
H           -9.86331736684361       -1.89991669003277        0.20085385462695
H           -9.00720138126033       -3.30540209510172       -1.63881090516474
H           -6.68729131310383       -3.03128177904613       -2.42682706849138
H           -5.21612467840464       -1.35019812022799       -1.38048004357236
H           -5.67600375986862        3.33767405245780        1.51695516491644
H           -5.85149577320789        5.45909238473412        0.23621605268879
H           -6.18089998580899        5.38408422602184       -2.20854041895120
H           -6.33897154976967        3.21475503967930       -3.36877702176634
H           -6.16427577569808        1.11192305543906       -2.08853755717382
H           -4.04571516298922       -0.78315834744832        2.58737254019906
H           -1.70436915950454       -1.60398696953360        2.48480747505297
H           -1.47108762043610       -3.67028316499678        1.13891814987760
H           -0.29249875502637       -5.80356831481572        1.49627892261112
H            2.13912906327797       -5.96452396950926        1.24955437750168
H            3.47528991278740       -3.98528406366802        0.60282268026937
H            4.33547527721159       -1.48072801590953       -0.10982445605025
H            6.86328451695198        3.41424055925375       -0.13783620756475
H            7.89077558832480        4.19867939325838        1.98397745438913
H            7.35518893274148        3.04304892130229        4.09822633055072
H            5.80867431368684        1.12291361681083        4.09981332905438
H            4.79375244581970        0.35064155203074        1.98684731147352
H            5.92003665457282        0.61365638487357       -3.42540534993293
H            7.42701216001256       -1.12473614808947       -4.36482157042563
H            8.60157592958925       -2.67227004877786       -2.84235387592934
H            8.28167340418070       -2.48786842762746       -0.40472459870579
H            6.78658005792228       -0.75486651771537        0.51855187946980
H            2.52106473677490        2.33447996502987       -0.74525591104683
H            0.27524035127808        1.42179897354500       -0.22074225255248
H           -1.33377956637846        0.02563866918154       -1.45202116130493
H           -3.64678476727590        0.86971921794578       -1.32363934570711

          :  Hamiltonian                  GFN2-xTB          :
         :: gradient norm              0.000106485616 Eh/a0 ::
         :: HOMO-LUMO gap              3.027607535267 eV    ::
         :: SCC energy              -124.194197839819 Eh    ::
         :: -> dispersion             -0.110683539427 Eh    ::
         :: -> Gsolv                  -0.061169327379 Eh    ::
         :: repulsion energy           2.193107985236 Eh    ::

    * Orbital Energies and Occupations

         #    Occupation            Energy/Eh            Energy/eV
      -------------------------------------------------------------
         1        2.0000           -0.7003179             -19.0566
       ...           ...                  ...                  ...
       101        2.0000           -0.4195410             -11.4163
       102        2.0000           -0.4178669             -11.3707
       103        2.0000           -0.4177430             -11.3674
       104        2.0000           -0.4163455             -11.3293
       105        2.0000           -0.4158675             -11.3163
       106        2.0000           -0.4156824             -11.3113
       107        2.0000           -0.4136672             -11.2565
       108        2.0000           -0.4078609             -11.0985
       109        2.0000           -0.4058963             -11.0450
       110        2.0000           -0.4034655             -10.9789
       111        2.0000           -0.4030388             -10.9672
       112        2.0000           -0.3891256             -10.5886
       113        2.0000           -0.3739227             -10.1750 (HOMO)
       114                         -0.2626600              -7.1473 (LUMO)
       115                         -0.2552501              -6.9457
       116                         -0.2544661              -6.9244
       117                         -0.2509821              -6.8296
       118                         -0.2465694              -6.7095
       119                         -0.2443563              -6.6493
       120                         -0.2419876              -6.5848
       121                         -0.2367224              -6.4415
       122                         -0.2363897              -6.4325
       123                         -0.2360532              -6.4233
       124                         -0.2345046              -6.3812
       ...                                ...                  ...
       229                          1.1623270              31.6285
      -------------------------------------------------------------
                  HL-Gap            0.1112626 Eh            3.0276 eV

     #   Z          covCN         q      C6AA      α(0)
     1   8 O        0.808    -0.398    21.670     6.240
     2  15 P        4.072     0.056   157.741    22.561
     3   6 C        2.920     0.011    27.761     8.640
     4   6 C        3.028    -0.019    28.444     8.748
     5   6 C        2.919    -0.026    28.648     8.777
     6   6 C        2.920    -0.023    28.590     8.768
     7   6 C        2.920    -0.026    28.661     8.779
     8   6 C        2.971    -0.027    28.661     8.782
     9   6 C        2.920     0.011    27.765     8.641
    10   6 C        3.025    -0.019    28.455     8.750
    11   6 C        2.919    -0.026    28.651     8.778
    12   6 C        2.920    -0.023    28.587     8.768
    13   6 C        2.919    -0.026    28.662     8.779
    14   6 C        2.973    -0.026    28.659     8.781
    15   6 C        2.919     0.009    27.821     8.649
    16   6 C        3.027    -0.017    28.413     8.743
    17   6 C        2.921    -0.039    28.971     8.827
    18   6 C        2.913     0.069    26.461     8.435
    19   7 N        2.802    -0.034    21.901     6.951
    20   6 C        3.075     0.047    26.866     8.498
    21   6 C        2.909    -0.049    29.207     8.862
    22   6 C        2.924    -0.031    28.783     8.798
    23   6 C        2.920    -0.039    28.965     8.826
    24   6 C        2.912    -0.032    28.788     8.798
    25   6 C        3.065    -0.015    28.319     8.726
    26   6 C        3.069    -0.014    28.296     8.722
    27   6 C        2.969    -0.031    28.763     8.797
    28   6 C        2.920     0.002    27.989     8.676
    29  15 P        4.079     0.044   158.293    22.601
    30   8 O        0.808    -0.401    21.727     6.248
    31   6 C        2.920     0.012    27.748     8.638
    32   6 C        3.026    -0.019    28.456     8.750
    33   6 C        2.918    -0.027    28.666     8.780
    34   6 C        2.920    -0.024    28.609     8.771
    35   6 C        2.919    -0.027    28.674     8.781
    36   6 C        2.972    -0.026    28.648     8.780
    37   6 C        2.920     0.012    27.737     8.637
    38   6 C        3.024    -0.019    28.453     8.750
    39   6 C        2.919    -0.027    28.665     8.780
    40   6 C        2.920    -0.024    28.606     8.771
    41   6 C        2.919    -0.027    28.676     8.782
    42   6 C        2.974    -0.026    28.652     8.780
    43   6 C        3.035    -0.024    28.568     8.767
    44   6 C        2.909    -0.049    29.212     8.863
    45   6 C        3.072     0.051    26.785     8.486
    46   6 C        2.921    -0.040    29.001     8.831
    47   6 C        2.969    -0.025    28.616     8.775
    48   1 H        0.925     0.046     2.366     2.406
    49   1 H        0.926     0.044     2.391     2.418
    50   1 H        0.926     0.047     2.357     2.401
    51   1 H        0.926     0.047     2.363     2.404
    52   1 H        0.926     0.045     2.388     2.416
    53   1 H        0.925     0.047     2.354     2.400
    54   1 H        0.926     0.044     2.394     2.420
    55   1 H        0.926     0.047     2.359     2.402
    56   1 H        0.926     0.047     2.363     2.404
    57   1 H        0.926     0.046     2.368     2.406
    58   1 H        0.926     0.056     2.246     2.344
    59   1 H        0.926     0.055     2.262     2.352
    60   1 H        0.926     0.035     2.515     2.480
    61   1 H        0.926     0.037     2.488     2.467
    62   1 H        0.926     0.035     2.511     2.478
    63   1 H        0.926     0.037     2.489     2.467
    64   1 H        0.926     0.045     2.377     2.411
    65   1 H        0.925     0.045     2.388     2.417
    66   1 H        0.926     0.043     2.407     2.426
    67   1 H        0.926     0.046     2.370     2.408
    68   1 H        0.926     0.045     2.382     2.413
    69   1 H        0.926     0.043     2.411     2.428
    70   1 H        0.925     0.046     2.372     2.408
    71   1 H        0.926     0.043     2.405     2.425
    72   1 H        0.926     0.046     2.368     2.407
    73   1 H        0.926     0.045     2.379     2.412
    74   1 H        0.926     0.044     2.394     2.420
    75   1 H        0.925     0.045     2.384     2.415
    76   1 H        0.926     0.041     2.441     2.443
    77   1 H        0.926     0.054     2.268     2.355
    78   1 H        0.926     0.054     2.267     2.354

molecular dipole:
                 x           y           z       tot (Debye)
 q only:       -0.086      -1.885      -0.504
   full:       -0.090      -1.901      -0.544       5.032

 projected vibrational frequencies (cm⁻¹)
eigval :       -0.00     0.00     0.00     0.00     0.00     0.00
eigval :        6.39    10.42    14.18    21.57    26.01    28.98
eigval :       30.81    34.71    38.88    43.55    44.92    51.34
eigval :       53.37    62.54    76.18    94.52   104.51   117.03
eigval :      139.23   141.07   150.17   157.04   158.24   172.95
eigval :      192.81   198.49   218.89   225.22   227.92   229.71
eigval :      245.94   271.07   281.56   283.57   283.78   313.89
eigval :      323.32   351.76   362.65   363.27   364.68   365.21
eigval :      370.02   377.60   391.05   394.17   413.57   418.97
eigval :      427.26   438.93   444.03   445.91   458.72   481.06
eigval :      496.91   512.72   518.03   531.69   535.65   562.39
eigval :      568.60   585.25   585.57   585.90   586.24   595.02
eigval :      600.18   625.05   657.28   658.22   659.30   661.01
eigval :      668.10   673.99   681.20   687.88   704.48   708.35
eigval :      713.44   715.46   739.13   739.85   742.77   744.01
eigval :      752.95   774.03   806.16   814.20   816.31   869.73
eigval :      875.70   877.37   879.38   879.52   881.81   883.01
eigval :      902.06   902.86   904.60   904.71   905.33   907.13
eigval :      908.28   919.47   925.53   925.63   928.08   928.85
eigval :      929.75   932.14   932.48   932.86   933.25   933.42
eigval :      935.36   971.29   971.43   974.32   974.57  1009.67
eigval :     1019.97  1070.46  1076.79  1077.25  1077.45  1077.73
eigval :     1097.03  1111.71  1113.02  1114.25  1115.37  1117.89
eigval :     1120.84  1123.40  1124.97  1125.00  1128.35  1129.03
eigval :     1149.75  1175.09  1177.70  1177.80  1177.83  1178.48
eigval :     1178.84  1188.70  1190.27  1191.16  1192.81  1197.00
eigval :     1216.29  1223.47  1226.30  1241.58  1256.49  1268.33
eigval :     1268.86  1271.37  1272.23  1273.13  1300.13  1318.00
eigval :     1319.30  1319.32  1319.49  1319.80  1351.58  1356.71
eigval :     1360.31  1394.22  1414.84  1421.47  1421.53  1422.28
eigval :     1422.48  1423.78  1451.11  1451.14  1451.71  1452.04
eigval :     1461.91  1475.44  1481.18  1558.22  1565.41  1577.88
eigval :     1581.17  1581.21  1581.28  1581.76  1582.08  1584.20
eigval :     1584.45  1584.98  1585.33  1588.68  1607.65  3064.85
eigval :     3066.20  3066.67  3067.22  3067.55  3069.55  3070.15
eigval :     3071.29  3072.33  3073.20  3075.55  3076.69  3077.00
eigval :     3077.46  3077.54  3080.23  3080.89  3081.55  3082.34
eigval :     3082.92  3083.36  3084.87  3089.71  3089.82  3091.04
eigval :     3091.97  3091.98  3092.34  3093.10  3093.98  3096.98

   temp. (K)  partition function   enthalpy   heat capacity  entropy
                                   cal/mol     cal/K/mol   cal/K/mol   J/K/mol
 298.15  VIB  0.140E+21            23764.822    143.265    150.445
         ROT  0.108E+09              888.752      2.981     39.733
         INT  0.151E+29            24653.575    146.246    190.178
         TR   0.158E+29             1481.254      4.968     45.248
         TOT                       26134.8288   151.2138   235.4255   985.0202

       T/K    H(0)-H(T)+PV         H(T)/Eh          T*S/Eh         G(T)/Eh
   ------------------------------------------------------------------------
    298.15    0.416485E-01    0.633377E+00    0.111858E+00    0.521519E+00
   ------------------------------------------------------------------------

         :::::::::::::::::::::::::::::::::::::::::::::::::::::
         ::                  THERMODYNAMIC                  ::
         :::::::::::::::::::::::::::::::::::::::::::::::::::::
         :: total free energy        -121.479570633147 Eh   ::
         ::.................................................::
         :: total energy             -122.001089848007 Eh   ::
         :: zero point energy           0.591728952208 Eh   ::
         :: G(RRHO) w/o ZPVE           -0.070209737349 Eh   ::
         :: G(RRHO) contrib.            0.521519214859 Eh   ::
         :::::::::::::::::::::::::::::::::::::::::::::::::::::

           -------------------------------------------------
          | TOTAL ENERGY             -122.001089848007 Eh   |
          | TOTAL ENTHALPY           -121.367712395129 Eh   |
          | TOTAL FREE ENERGY        -121.479570633147 Eh   |
          | GRADIENT NORM               0.000106091974 Eh/α |
          | HOMO-LUMO GAP               3.027610451955 eV   |
           -------------------------------------------------

 * finished run on 2025/09/13 at 10:18:23.618
