   * xtb version 6.7.1 (edcfbbe) compiled by 'albert@albert-system' on 2024-07-22

   ID    Z sym.   atoms
    1    6 C      1-3, 5-18, 20-32
    2    7 N      4, 19
    3    1 H      33-52

          program call               : xtb data2507/toluene/mCP/mCP.xyz --gfn 2 --gbsa toluene --ohess vtight --parallel 40 --molden --ceasefiles --namespace data2507/toluene/mCP/mCP_toluene_S0_preOpt
      * Solvation model:               GBSA
        Solvent                        toluene
        Solvent mass                       9.2140E+01 g/mol
          :  Hamiltonian                  GFN2-xTB          :
 * total energy  :   -80.3683765 Eh     change       -0.1668980E-08 Eh
 * total energy  :   -80.3790849 Eh     change       -0.1070843E-01 Eh
 * total energy  :   -80.3809958 Eh     change       -0.1910938E-02 Eh
 * total energy  :   -80.3813000 Eh     change       -0.3041827E-03 Eh
 * total energy  :   -80.3815519 Eh     change       -0.2518694E-03 Eh
 * total energy  :   -80.3816310 Eh     change       -0.7914067E-04 Eh
 * total energy  :   -80.3816905 Eh     change       -0.5950495E-04 Eh
 * total energy  :   -80.3817394 Eh     change       -0.4889194E-04 Eh
 * total energy  :   -80.3817676 Eh     change       -0.2819319E-04 Eh
 * total energy  :   -80.3817968 Eh     change       -0.2916704E-04 Eh
 * total energy  :   -80.3818618 Eh     change       -0.4747697E-06 Eh
 * total energy  :   -80.3818622 Eh     change       -0.4133862E-06 Eh
 * total energy  :   -80.3818626 Eh     change       -0.3751185E-06 Eh
 * total energy  :   -80.3818630 Eh     change       -0.3390738E-06 Eh
 * total energy  :   -80.3818633 Eh     change       -0.3396519E-06 Eh
 * total energy  :   -80.3818636 Eh     change       -0.3200128E-06 Eh
 * total energy  :   -80.3818639 Eh     change       -0.3161008E-06 Eh
 * total energy  :   -80.3818642 Eh     change       -0.3023553E-06 Eh
 * total energy  :   -80.3818642 Eh     change       -0.2801087E-08 Eh
   *** GEOMETRY OPTIMIZATION CONVERGED AFTER 44 ITERATIONS ***

 final structure:
================
52
 xtb: 6.7.1 (edcfbbe)
C            0.00000725245007       -2.24412180253911        2.28123480223399
C            1.20148676834982       -1.75488531351342        1.80165730607640
C            1.20424904181156       -0.76918472991152        0.81771515570703
N            2.42014026404039       -0.28550471138341        0.31199826791930
C            2.78927944340921        1.04143803396578        0.20903009498236
C            2.10721748262319        2.18287957784312        0.60441691656768
C            2.71929362775026        3.40576507587558        0.40717347992815
C            3.98888041330629        3.49899628460088       -0.15944558840026
C            4.68519921561674        2.36569381893000       -0.53038558982510
C            4.08806247132157        1.12533070963153       -0.34400583618707
C            4.51423356811168       -0.22417712879953       -0.59014610054329
C            5.66848852293830       -0.77822293609513       -1.12921135185481
C            5.75016386197482       -2.15139445845139       -1.24888202817796
C            4.69299037779877       -2.96875444942500       -0.85349079938575
C            3.53502700991219       -2.44100998204643       -0.31432926754636
C            3.45675197397445       -1.06302026344580       -0.16853854683870
C            0.00000047168464       -0.27938582620899        0.32405503564605
C           -1.20424473533528       -0.76918995888725        0.81771828206544
N           -2.42013884228255       -0.28551733262668        0.31200121541062
C           -2.78928365993053        1.04142345178856        0.20902936779259
C           -2.10722609353727        2.18286873667343        0.60441293872330
C           -2.71931056786154        3.40575078286527        0.40717367970354
C           -3.98890077510759        3.49897473725412       -0.15943895134247
C           -4.68521114095171        2.36566895110275       -0.53038444443462
C           -4.08806794894718        1.12530899635540       -0.34400449506882
C           -4.51423513743771       -0.22420152019801       -0.59013681203554
C           -5.66849079072446       -0.77825381193907       -1.12919398260684
C           -5.75015676890880       -2.15142555550800       -1.24886982706316
C           -4.69297517634029       -2.96877941197735       -0.85348743519308
C           -3.53501422820315       -2.44102887427377       -0.31432641766116
C           -3.45674602412845       -1.06303876319773       -0.16853607638615
C           -1.20147574063255       -1.75488991902742        1.80166104458097
H            0.00000986570987       -3.00440434728121        3.04778102793388
H            2.13865093248089       -2.12154250247739        2.19129583690708
H            1.13344430995038        2.11990805864581        1.06446308336077
H            2.20416085809880        4.30829890570007        0.70256964543999
H            4.43433458517969        4.47300910365740       -0.29965791676412
H            5.67598814167192        2.43767969468059       -0.95369255249418
H            6.48127357932723       -0.14388134769009       -1.45019835608965
H            6.64026426802590       -2.60211660926761       -1.66294537668609
H            4.77940842280210       -4.03891813325419       -0.97409452330376
H            2.71567755041121       -3.08240136358107       -0.02671708003802
H           -0.00000213983802        0.46041525086689       -0.46230686460582
H           -1.13345608561780        2.11990196758190        1.06446633280015
H           -2.20418113278833        4.30828733222365        0.70256709904277
H           -4.43435485783570        4.47298592576956       -0.29966296461798
H           -5.67599971845920        2.43764959742174       -0.95369324536127
H           -6.48127124580901       -0.14391546618764       -1.45019910976683
H           -6.64025167712677       -2.60215195827978       -1.66294041473438
H           -4.77939058503794       -4.03894405978641       -0.97408452283804
H           -2.71566390913492       -3.08241670400444       -0.02670863912688
H           -2.13863729875599       -2.12155475217184        2.19129850415533

          :  Hamiltonian                  GFN2-xTB          :
         :: gradient norm              0.000042457972 Eh/a0 ::
         :: HOMO-LUMO gap              3.112521334063 eV    ::
         :: SCC energy               -81.907863415206 Eh    ::
         :: -> dispersion             -0.070514575046 Eh    ::
         :: -> Gsolv                  -0.032030790076 Eh    ::
         :: repulsion energy           1.525999180884 Eh    ::

    * Orbital Energies and Occupations

         #    Occupation            Energy/Eh            Energy/eV
      -------------------------------------------------------------
         1        2.0000           -0.6777276             -18.4419
       ...           ...                  ...                  ...
        63        2.0000           -0.4235148             -11.5244
        64        2.0000           -0.4214104             -11.4672
        65        2.0000           -0.4206597             -11.4467
        66        2.0000           -0.4193569             -11.4113
        67        2.0000           -0.4178522             -11.3703
        68        2.0000           -0.4166483             -11.3376
        69        2.0000           -0.4141673             -11.2701
        70        2.0000           -0.4061454             -11.0518
        71        2.0000           -0.4060909             -11.0503
        72        2.0000           -0.3794881             -10.3264
        73        2.0000           -0.3794825             -10.3262
        74        2.0000           -0.3659434              -9.9578
        75        2.0000           -0.3630172              -9.8782 (HOMO)
        76                         -0.2486341              -6.7657 (LUMO)
        77                         -0.2469331              -6.7194
        78                         -0.2390072              -6.5037
        79                         -0.2386534              -6.4941
        80                         -0.2228571              -6.0643
        81                         -0.2228229              -6.0633
        82                         -0.1956912              -5.3250
        83                         -0.1888973              -5.1402
        84                         -0.1869993              -5.0885
        85                         -0.1869465              -5.0871
        86                         -0.1129825              -3.0744
       ...                                ...                  ...
       148                          0.7442937              20.2533
      -------------------------------------------------------------
                  HL-Gap            0.1143831 Eh            3.1125 eV

     #   Z          covCN         q      C6AA      α(0)
     1   6 C        2.919    -0.027    28.667     8.780
     2   6 C        2.921    -0.047    29.162     8.856
     3   6 C        2.912     0.067    26.505     8.442
     4   7 N        2.802    -0.045    22.116     6.985
     5   6 C        3.074     0.047    26.867     8.498
     6   6 C        2.910    -0.051    29.262     8.870
     7   6 C        2.923    -0.035    28.862     8.810
     8   6 C        2.920    -0.042    29.052     8.839
     9   6 C        2.912    -0.035    28.859     8.809
    10   6 C        3.067    -0.018    28.394     8.738
    11   6 C        3.067    -0.018    28.390     8.737
    12   6 C        2.912    -0.035    28.861     8.809
    13   6 C        2.920    -0.042    29.050     8.839
    14   6 C        2.924    -0.035    28.864     8.810
    15   6 C        2.910    -0.052    29.290     8.874
    16   6 C        3.075     0.047    26.869     8.499
    17   6 C        2.925    -0.056    29.392     8.891
    18   6 C        2.912     0.067    26.505     8.442
    19   7 N        2.802    -0.045    22.116     6.985
    20   6 C        3.074     0.047    26.867     8.498
    21   6 C        2.910    -0.051    29.262     8.870
    22   6 C        2.923    -0.035    28.862     8.810
    23   6 C        2.920    -0.042    29.052     8.839
    24   6 C        2.912    -0.035    28.859     8.809
    25   6 C        3.067    -0.018    28.394     8.738
    26   6 C        3.067    -0.018    28.390     8.737
    27   6 C        2.912    -0.035    28.861     8.809
    28   6 C        2.920    -0.042    29.050     8.839
    29   6 C        2.924    -0.035    28.864     8.810
    30   6 C        2.910    -0.052    29.290     8.874
    31   6 C        3.075     0.047    26.869     8.499
    32   6 C        2.921    -0.047    29.162     8.856
    33   1 H        0.926     0.049     2.333     2.388
    34   1 H        0.926     0.049     2.339     2.391
    35   1 H        0.926     0.027     2.631     2.536
    36   1 H        0.926     0.030     2.581     2.512
    37   1 H        0.926     0.028     2.611     2.527
    38   1 H        0.926     0.031     2.574     2.509
    39   1 H        0.926     0.031     2.576     2.510
    40   1 H        0.926     0.028     2.609     2.526
    41   1 H        0.926     0.031     2.575     2.509
    42   1 H        0.926     0.031     2.575     2.509
    43   1 H        0.926     0.049     2.330     2.387
    44   1 H        0.926     0.027     2.631     2.536
    45   1 H        0.926     0.030     2.581     2.512
    46   1 H        0.926     0.028     2.611     2.527
    47   1 H        0.926     0.031     2.574     2.509
    48   1 H        0.926     0.031     2.576     2.510
    49   1 H        0.926     0.028     2.609     2.526
    50   1 H        0.926     0.031     2.575     2.509
    51   1 H        0.926     0.031     2.575     2.509
    52   1 H        0.926     0.049     2.339     2.391

molecular dipole:
                 x           y           z       tot (Debye)
 q only:        0.000      -0.454       0.425
   full:        0.000      -0.474       0.452       1.665

 projected vibrational frequencies (cm⁻¹)
eigval :       -0.00    -0.00    -0.00     0.00     0.00     0.00
eigval :       15.89    28.59    29.87    54.31    66.66    84.24
eigval :      100.91   103.82   140.84   141.58   149.71   193.96
eigval :      201.43   243.87   247.42   268.55   271.56   271.57
eigval :      301.08   334.17   359.28   391.92   395.82   420.29
eigval :      421.86   422.05   426.35   434.59   438.68   511.49
eigval :      518.63   519.96   530.24   539.81   540.44   555.44
eigval :      572.35   587.62   592.76   609.27   618.75   645.51
eigval :      668.40   672.14   673.65   689.54   707.01   708.37
eigval :      746.59   756.29   765.16   766.18   769.71   779.28
eigval :      780.63   804.47   860.71   866.65   872.09   874.98
eigval :      891.40   895.65   897.89   899.76   902.32   904.82
eigval :      906.28   907.36   910.52   919.42   921.61   923.11
eigval :      923.75   930.67   996.34  1006.43  1011.59  1016.61
eigval :     1066.17  1069.91  1071.89  1073.33  1109.07  1118.01
eigval :     1125.65  1147.26  1151.18  1165.11  1173.70  1176.33
eigval :     1179.27  1180.58  1184.92  1198.91  1231.00  1233.55
eigval :     1235.91  1248.17  1252.52  1297.08  1298.58  1300.87
eigval :     1301.46  1313.72  1341.04  1355.82  1355.92  1357.97
eigval :     1361.20  1370.42  1418.08  1420.31  1426.29  1427.64
eigval :     1458.51  1469.23  1475.30  1477.01  1486.51  1486.68
eigval :     1568.54  1572.03  1575.18  1580.88  1587.68  1588.07
eigval :     1597.64  1598.07  1612.96  1613.63  3071.21  3071.22
eigval :     3072.05  3072.22  3077.05  3077.06  3078.45  3078.63
eigval :     3084.02  3084.97  3085.24  3087.31  3087.51  3091.91
eigval :     3091.92  3095.45  3095.53  3097.19  3097.40  3102.89

   temp. (K)  partition function   enthalpy   heat capacity  entropy
                                   cal/mol     cal/K/mol   cal/K/mol   J/K/mol
 298.15  VIB  0.930E+09            13156.154     89.945     78.659
         ROT  0.225E+08              888.752      2.981     36.626
         INT  0.210E+17            14044.906     92.926    115.285
         TR   0.799E+28             1481.254      4.968     43.893
         TOT                       15526.1599    97.8945   159.1777   665.9995

       T/K    H(0)-H(T)+PV         H(T)/Eh          T*S/Eh         G(T)/Eh
   ------------------------------------------------------------------------
    298.15    0.247425E-01    0.425738E+00    0.756305E-01    0.350107E+00
   ------------------------------------------------------------------------

         :::::::::::::::::::::::::::::::::::::::::::::::::::::
         ::                  THERMODYNAMIC                  ::
         :::::::::::::::::::::::::::::::::::::::::::::::::::::
         :: total free energy         -80.031756929231 Eh   ::
         ::.................................................::
         :: total energy              -80.381864234958 Eh   ::
         :: zero point energy           0.400995257102 Eh   ::
         :: G(RRHO) w/o ZPVE           -0.050887951375 Eh   ::
         :: G(RRHO) contrib.            0.350107305727 Eh   ::
         :::::::::::::::::::::::::::::::::::::::::::::::::::::

           -------------------------------------------------
          | TOTAL ENERGY              -80.381864234958 Eh   |
          | TOTAL ENTHALPY            -79.956126467095 Eh   |
          | TOTAL FREE ENERGY         -80.031756929231 Eh   |
          | GRADIENT NORM               0.000042458215 Eh/α |
          | HOMO-LUMO GAP               3.112521327682 eV   |
           -------------------------------------------------

 * finished run on 2025/07/16 at 19:18:28.655
