   * xtb version 6.7.1 (edcfbbe) compiled by 'albert@albert-system' on 2024-07-22

   ID    Z sym.   atoms
    1    6 C      1-3, 5-18, 20-32
    2    7 N      4, 19
    3    1 H      33-52

          program call               : xtb data2507/toluene/mCP/mCP_toluene_S0_finalOpt.xtbopt.xyz --gfn 2 --uhf 2 --gbsa toluene --ohess vtight --parallel 40 --molden --ceasefiles --namespace data2507/toluene/mCP/mCP_toluene_T1_preOpt
      * Solvation model:               GBSA
        Solvent                        toluene
        Solvent mass                       9.2140E+01 g/mol
          :  Hamiltonian                  GFN2-xTB          :
 * total energy  :   -80.2657403 Eh     change       -0.2207400E-08 Eh
 * total energy  :   -80.2673245 Eh     change       -0.1584189E-02 Eh
 * total energy  :   -80.2677496 Eh     change       -0.4251491E-03 Eh
 * total energy  :   -80.2678253 Eh     change       -0.7571869E-04 Eh
 * total energy  :   -80.2678879 Eh     change       -0.6254737E-04 Eh
 * total energy  :   -80.2679156 Eh     change       -0.2774786E-04 Eh
 * total energy  :   -80.2679387 Eh     change       -0.2304270E-04 Eh
 * total energy  :   -80.2679575 Eh     change       -0.1880304E-04 Eh
 * total energy  :   -80.2679639 Eh     change       -0.6382036E-05 Eh
 * total energy  :   -80.2679671 Eh     change       -0.3221792E-05 Eh
 * total energy  :   -80.2679709 Eh     change       -0.4391756E-06 Eh
 * total energy  :   -80.2679712 Eh     change       -0.3260747E-06 Eh
 * total energy  :   -80.2679715 Eh     change       -0.2560218E-06 Eh
 * total energy  :   -80.2679718 Eh     change       -0.2799808E-06 Eh
 * total energy  :   -80.2679721 Eh     change       -0.3163270E-06 Eh
 * total energy  :   -80.2679724 Eh     change       -0.2826659E-06 Eh
 * total energy  :   -80.2679726 Eh     change       -0.2156285E-06 Eh
 * total energy  :   -80.2679725 Eh     change        0.5097297E-07 Eh
 * total energy  :   -80.2679726 Eh     change       -0.2712628E-07 Eh
   *** GEOMETRY OPTIMIZATION CONVERGED AFTER 23 ITERATIONS ***

 final structure:
================
52
 xtb: 6.7.1 (edcfbbe)
C           -0.00153344770317       -2.26590009564856        2.24809894653046
C            1.20131878448990       -1.77407539557649        1.77924813670211
C            1.20528434448354       -0.73388670637969        0.81611594594890
N            2.41426363250106       -0.26159760721334        0.31727686206415
C            2.78110812441239        1.06545486226369        0.17549510567514
C            2.10330877150512        2.21096491014345        0.55049295186171
C            2.71663634738652        3.43998827591661        0.32558955908382
C            3.98143074329227        3.51179660365908       -0.25548171322064
C            4.68140571511570        2.37031519084412       -0.60609484675561
C            4.09017967224654        1.12672423873629       -0.38254192314921
C            4.51632313866966       -0.21983381745847       -0.58077950663706
C            5.67532185237643       -0.80151643566855       -1.09402932931169
C            5.74220616784868       -2.18165427625266       -1.18419784025277
C            4.67984990002161       -2.98971347618768       -0.78408445412609
C            3.51530342167141       -2.43356059499156       -0.26109958562226
C            3.45081376047236       -1.05661510055337       -0.14138497827857
C           -0.00015271256083       -0.21166650330915        0.36132072476069
C           -1.20630081662544       -0.73238498665286        0.81595916571596
N           -2.41466716272698       -0.25855791094774        0.31712136768875
C           -2.77985781131962        1.06896242119938        0.17532595565183
C           -2.10050073245378        2.21365049364687        0.55001559923507
C           -2.71233712674810        3.44342774318085        0.32518654945747
C           -3.97721006027248        3.51679278035770       -0.25552358006637
C           -4.67872866990114        2.37616648568786       -0.60582684845272
C           -4.08901755393860        1.13184892826719       -0.38232622260960
C           -4.51696913527756       -0.21417893774207       -0.58026250538659
C           -5.67691544609725       -0.79443069928794       -1.09298531076494
C           -5.74562437019542       -2.17448906091480       -1.18294871101290
C           -4.68414722614188       -2.98387398016936       -0.78316922554187
C           -3.51868645355829       -2.42915976949769       -0.26070783818138
C           -3.45238924338903       -1.05228519009953       -0.14114668134611
C           -1.20370746491606       -1.77259831038806        1.77907515266103
H           -0.00206765162875       -3.04425643066425        2.99685520984267
H            2.13901698053232       -2.13404652152938        2.17087524882553
H            1.13361091495228        2.16128736119582        1.01985097609595
H            2.20520735922492        4.34725544708419        0.60835556131300
H            4.42735599294275        4.48159446351328       -0.42402636505332
H            5.66809087112121        2.43648673087150       -1.03861963737917
H            6.49939865950250       -0.18431392077077       -1.41795371036938
H            6.63274467045885       -2.64495285082980       -1.58432809791720
H            4.75502436552898       -4.06134463396438       -0.88725506947866
H            2.68576500587294       -3.06306082202773        0.02256205895258
H            0.00038311292643        0.54886633843875       -0.40503670989394
H           -1.13071855869501        2.16280315170747        1.01907212384792
H           -2.19966912113392        4.35007189488549        0.60771611666619
H           -4.42196104277463        4.48714153797285       -0.42401000598300
H           -5.66546971981711        2.44353691716392       -1.03804468581508
H           -6.50032656930636       -0.17621276446716       -1.41668005441285
H           -6.63690871617591       -2.63668296472963       -1.58269636248865
H           -4.76074745354627       -4.05541997167343       -0.88620202483079
H           -2.68983503454235       -3.05968620465169        0.02268573014822
H           -2.14188777745612       -2.13139869877765        2.17062148616446

          :  Hamiltonian                  GFN2-xTB          :
         :: gradient norm              0.000072708582 Eh/a0 ::
         :: HOMO-LUMO gap              0.075255744706 eV    ::
         :: SCC energy               -81.770296954199 Eh    ::
         :: -> dispersion             -0.070532053273 Eh    ::
         :: -> Gsolv                  -0.031969089660 Eh    ::
         :: repulsion energy           1.502324371277 Eh    ::

    * Orbital Energies and Occupations

         #    Occupation            Energy/Eh            Energy/eV
      -------------------------------------------------------------
         1        2.0000           -0.6814104             -18.5421
       ...           ...                  ...                  ...
        64        2.0000           -0.4217555             -11.4766
        65        2.0000           -0.4207354             -11.4488
        66        2.0000           -0.4192091             -11.4073
        67        2.0000           -0.4184425             -11.3864
        68        2.0000           -0.4161390             -11.3237
        69        2.0000           -0.4110090             -11.1841
        70        2.0000           -0.4073462             -11.0845
        71        2.0000           -0.4072394             -11.0815
        72        1.9999           -0.3768083             -10.2535
        73        1.9999           -0.3767976             -10.2532
        74        1.8971           -0.3696258             -10.0580
        75        1.1030           -0.3655116              -9.9461
        76        0.8108           -0.2510682              -6.8319 (HOMO)
        77        0.1891           -0.2483028              -6.7567 (LUMO)
        78        0.0001           -0.2407187              -6.5503
        79        0.0000           -0.2351787              -6.3995
        80                         -0.2242176              -6.1013
        81                         -0.2241822              -6.1003
        82                         -0.1976375              -5.3780
        83                         -0.1904981              -5.1837
        84                         -0.1870191              -5.0890
        85                         -0.1869501              -5.0872
        86                         -0.1151343              -3.1330
        87                         -0.0954303              -2.5968
       ...                                ...                  ...
       148                          0.7429547              20.2168
      -------------------------------------------------------------
                  HL-Gap            0.0027654 Eh            0.0752 eV

     #   Z          covCN         q      C6AA      α(0)
     1   6 C        2.912    -0.026    28.659     8.778
     2   6 C        2.917    -0.050    29.246     8.868
     3   6 C        2.909     0.051    26.846     8.496
     4   7 N        2.798    -0.007    21.398     6.870
     5   6 C        3.062     0.041    27.017     8.524
     6   6 C        2.908    -0.044    29.101     8.846
     7   6 C        2.920    -0.048    29.191     8.860
     8   6 C        2.917    -0.032    28.789     8.799
     9   6 C        2.910    -0.040    28.987     8.828
    10   6 C        3.059    -0.021    28.473     8.750
    11   6 C        3.059    -0.021    28.464     8.749
    12   6 C        2.910    -0.039    28.980     8.827
    13   6 C        2.917    -0.031    28.779     8.797
    14   6 C        2.920    -0.048    29.184     8.859
    15   6 C        2.908    -0.045    29.111     8.847
    16   6 C        3.064     0.042    27.004     8.521
    17   6 C        2.919    -0.056    29.385     8.889
    18   6 C        2.909     0.051    26.846     8.496
    19   7 N        2.798    -0.007    21.398     6.870
    20   6 C        3.062     0.041    27.017     8.524
    21   6 C        2.908    -0.044    29.101     8.846
    22   6 C        2.920    -0.048    29.191     8.860
    23   6 C        2.917    -0.032    28.788     8.799
    24   6 C        2.910    -0.040    28.987     8.828
    25   6 C        3.059    -0.021    28.473     8.750
    26   6 C        3.059    -0.021    28.464     8.749
    27   6 C        2.910    -0.039    28.979     8.827
    28   6 C        2.917    -0.031    28.779     8.797
    29   6 C        2.920    -0.048    29.184     8.859
    30   6 C        2.908    -0.045    29.111     8.847
    31   6 C        3.064     0.042    27.005     8.521
    32   6 C        2.917    -0.050    29.246     8.868
    33   1 H        0.926     0.046     2.373     2.409
    34   1 H        0.926     0.046     2.372     2.409
    35   1 H        0.926     0.030     2.591     2.517
    36   1 H        0.926     0.028     2.617     2.530
    37   1 H        0.926     0.030     2.588     2.516
    38   1 H        0.926     0.030     2.593     2.518
    39   1 H        0.926     0.030     2.589     2.516
    40   1 H        0.926     0.031     2.579     2.511
    41   1 H        0.926     0.029     2.604     2.524
    42   1 H        0.926     0.035     2.518     2.481
    43   1 H        0.926     0.046     2.366     2.405
    44   1 H        0.926     0.030     2.591     2.517
    45   1 H        0.926     0.028     2.617     2.530
    46   1 H        0.926     0.030     2.588     2.516
    47   1 H        0.926     0.030     2.593     2.518
    48   1 H        0.926     0.030     2.589     2.516
    49   1 H        0.926     0.031     2.579     2.511
    50   1 H        0.926     0.029     2.604     2.524
    51   1 H        0.926     0.035     2.518     2.481
    52   1 H        0.926     0.046     2.372     2.409

molecular dipole:
                 x           y           z       tot (Debye)
 q only:       -0.000      -0.458       0.381
   full:       -0.000      -0.467       0.416       1.588

 projected vibrational frequencies (cm⁻¹)
eigval :       -0.00    -0.00    -0.00     0.00     0.00     0.00
eigval :       18.92    28.87    31.26    58.70    67.65    87.61
eigval :      101.65   107.62   136.65   137.57   149.16   190.70
eigval :      194.74   229.39   252.63   260.53   265.21   273.87
eigval :      300.24   327.79   362.72   370.86   373.56   401.91
eigval :      410.25   411.61   412.44   431.11   434.11   491.95
eigval :      501.31   501.91   510.99   511.49   534.64   556.47
eigval :      564.03   574.00   578.43   597.95   607.80   625.18
eigval :      635.84   652.24   652.40   680.35   684.19   689.34
eigval :      727.14   745.92   746.54   749.06   751.53   752.44
eigval :      755.36   760.61   830.12   834.80   837.97   847.35
eigval :      848.39   867.45   867.56   877.74   880.20   888.22
eigval :      890.13   890.54   899.69   900.02   900.38   905.25
eigval :      905.30   906.62   948.21   982.35   999.88  1001.54
eigval :     1035.81  1056.48  1059.53  1064.82  1083.87  1089.38
eigval :     1089.87  1099.28  1100.88  1121.15  1156.58  1160.44
eigval :     1161.02  1168.28  1171.45  1187.16  1200.72  1205.49
eigval :     1208.13  1229.61  1234.79  1246.11  1248.44  1264.37
eigval :     1265.12  1284.34  1286.59  1295.28  1300.42  1314.94
eigval :     1352.10  1375.04  1375.61  1384.00  1385.10  1402.13
eigval :     1409.95  1413.67  1427.37  1438.09  1438.82  1451.65
eigval :     1464.63  1464.68  1491.02  1491.57  1502.73  1541.45
eigval :     1542.12  1542.84  1544.69  1585.60  3070.26  3070.57
eigval :     3070.95  3071.23  3080.36  3082.14  3082.37  3084.62
eigval :     3084.79  3088.06  3088.15  3089.75  3090.32  3093.93
eigval :     3094.94  3096.07  3099.46  3101.49  3103.65  3108.54

   temp. (K)  partition function   enthalpy   heat capacity  entropy
                                   cal/mol     cal/K/mol   cal/K/mol   J/K/mol
 298.15  VIB  0.944E+09            13506.033     92.941     80.290
         ROT  0.225E+08              888.752      2.981     36.626
         INT  0.213E+17            14394.786     95.922    116.916
         TR   0.799E+28             1481.254      4.968     43.893
         TOT                       15876.0396   100.8899   160.8092   672.8256

       T/K    H(0)-H(T)+PV         H(T)/Eh          T*S/Eh         G(T)/Eh
   ------------------------------------------------------------------------
    298.15    0.253001E-01    0.419070E+00    0.764056E-01    0.342664E+00
   ------------------------------------------------------------------------

         :::::::::::::::::::::::::::::::::::::::::::::::::::::
         ::                  THERMODYNAMIC                  ::
         :::::::::::::::::::::::::::::::::::::::::::::::::::::
         :: total free energy         -79.925308399725 Eh   ::
         ::.................................................::
         :: total energy              -80.267972581062 Eh   ::
         :: zero point energy           0.393769734840 Eh   ::
         :: G(RRHO) w/o ZPVE           -0.051105553503 Eh   ::
         :: G(RRHO) contrib.            0.342664181337 Eh   ::
         :::::::::::::::::::::::::::::::::::::::::::::::::::::

           -------------------------------------------------
          | TOTAL ENERGY              -80.267972581062 Eh   |
          | TOTAL ENTHALPY            -79.848902766715 Eh   |
          | TOTAL FREE ENERGY         -79.925308399725 Eh   |
          | GRADIENT NORM               0.000074805363 Eh/α |
          | HOMO-LUMO GAP               0.075249670220 eV   |
           -------------------------------------------------

 * finished run on 2025/07/16 at 19:19:41.390
