   * xtb version 6.7.1 (edcfbbe) compiled by 'albert@albert-system' on 2024-07-22

   ID    Z sym.   atoms
    1    6 C      1-3, 5-18, 20-32
    2    7 N      4, 19
    3    1 H      33-52

          program call               : xtb data2507/toluene/mCP/mCP_toluene_T1_crest.xyz --gfn 2 --uhf 2 --gbsa toluene --ohess vtight --parallel 40 --molden --ceasefiles --namespace data2507/toluene/mCP/mCP_toluene_T1_finalOpt
      * Solvation model:               GBSA
        Solvent                        toluene
        Solvent mass                       9.2140E+01 g/mol
          :  Hamiltonian                  GFN2-xTB          :
 * total energy  :   -80.2679383 Eh     change       -0.3042047E-08 Eh
 * total energy  :   -80.2679600 Eh     change       -0.2175479E-04 Eh
 * total energy  :   -80.2679676 Eh     change       -0.7580749E-05 Eh
 * total energy  :   -80.2679699 Eh     change       -0.2328327E-05 Eh
 * total energy  :   -80.2679714 Eh     change       -0.1443552E-05 Eh
 * total energy  :   -80.2679723 Eh     change       -0.9459097E-06 Eh
 * total energy  :   -80.2679732 Eh     change       -0.8760650E-06 Eh
 * total energy  :   -80.2679737 Eh     change       -0.5467439E-06 Eh
 * total energy  :   -80.2679740 Eh     change       -0.2850493E-06 Eh
 * total energy  :   -80.2679743 Eh     change       -0.2509035E-06 Eh
 * total energy  :   -80.2679745 Eh     change       -0.2683355E-06 Eh
 * total energy  :   -80.2679748 Eh     change       -0.2329569E-06 Eh
 * total energy  :   -80.2679750 Eh     change       -0.1995905E-06 Eh
 * total energy  :   -80.2679751 Eh     change       -0.1505030E-06 Eh
 * total energy  :   -80.2679752 Eh     change       -0.1067189E-06 Eh
 * total energy  :   -80.2679752 Eh     change        0.7132883E-08 Eh
 * total energy  :   -80.2679754 Eh     change       -0.1700012E-06 Eh
 * total energy  :   -80.2679755 Eh     change       -0.9597412E-07 Eh
   *** GEOMETRY OPTIMIZATION CONVERGED AFTER 18 ITERATIONS ***

 final structure:
================
52
 xtb: 6.7.1 (edcfbbe)
C           -0.00060434728348       -2.29416854832448        2.21867424271673
C            1.20223910080802       -1.79734957585209        1.75511391238200
C            1.20624519388747       -0.74880568571595        0.80080125465481
N            2.41526478114297       -0.26886677391693        0.30971187716551
C            2.77624774902237        1.06095487734322        0.17699359893343
C            2.09176099551980        2.20115207392234        0.55591882099607
C            2.69942658283634        3.43445545052269        0.33964031528491
C            3.96582034981472        3.51588226202670       -0.23663465646171
C            4.67317870910206        2.37973903470968       -0.58959294371488
C            4.08761555437005        1.13202854895625       -0.37430043551308
C            4.52241516543199       -0.21119794256985       -0.57585535979266
C            5.68865085738743       -0.78361477661996       -1.08296583681392
C            5.76521110271076       -2.16291502553649       -1.17710793194407
C            4.70487670957527       -2.97893195592080       -0.78784198345279
C            3.53299237879660       -2.43201960610961       -0.27165311487418
C            3.45901142474875       -1.05598969047906       -0.14660905428333
C            0.00045118192602       -0.22432643351579        0.34924048831050
C           -1.20583913641733       -0.74832581031137        0.79996481107196
N           -2.41445171506892       -0.26788725281291        0.30828479841103
C           -2.77568349577545        1.06200289455857        0.17683581119066
C           -2.09116231798764        2.20199966568302        0.55622416108847
C           -2.69927061415526        3.43539272943754        0.34147923693866
C           -3.96610553759618        3.51705017055990       -0.23379175346952
C           -4.67338392669332        2.38108598493258       -0.58746599343726
C           -4.08735468450150        1.13327747180869       -0.37378391591095
C           -4.52191737089610       -0.20980910528422       -0.57652931950164
C           -5.68819970178384       -0.78208063676920       -1.08380337465291
C           -5.76433248001324       -2.16130258394790       -1.17938485960840
C           -4.70358776224636       -2.97742688992540       -0.79144199285911
C           -3.53169010298513       -2.43068702741911       -0.27503422196968
C           -3.45815226338569       -1.05478616064266       -0.14850805123836
C           -1.20291300345351       -1.79697576243782        1.75417175016222
H           -0.00101655661398       -3.07915429824299        2.96048209629756
H            2.13975468174640       -2.15925772777999        2.14528314063310
H            1.12117783526908        2.14428416629742        1.02244738424484
H            2.18222385336235        4.33750536035920        0.62539705130077
H            4.40710041819441        4.48885011815738       -0.39904714224654
H            5.66127294242216        2.45301410034987       -1.01772313501771
H            6.51104460760793       -0.15994229808268       -1.39869489426392
H            6.66175684563603       -2.61918301706702       -1.57188007787986
H            4.78764171396879       -4.04970271105717       -0.89414232220051
H            2.70534280381372       -3.06796057510567        0.00294067466594
H            0.00085112308961        0.54190982505844       -0.41137691670145
H           -1.12019916988912        2.14496296455609        1.02193244497848
H           -2.18204712895898        4.33829602657495        0.62765268472614
H           -4.40775410832640        4.49006237650318       -0.39493609363244
H           -5.66176046222291        2.45452051406288       -1.01491239802169
H           -6.51093134632513       -0.15834518928825       -1.39851286799230
H           -6.66088241328043       -2.61743534617547       -1.57430079795481
H           -4.78602098170830       -4.04809910655498       -0.89895387917580
H           -2.70371844434298       -3.06662207757934       -0.00138432702017
H           -2.14088025187996       -2.15870599593545        2.14343428615164

          :  Hamiltonian                  GFN2-xTB          :
         :: gradient norm              0.000063117794 Eh/a0 ::
         :: HOMO-LUMO gap              0.075860296846 eV    ::
         :: SCC energy               -81.770275135857 Eh    ::
         :: -> dispersion             -0.070566218721 Eh    ::
         :: -> Gsolv                  -0.031953303585 Eh    ::
         :: repulsion energy           1.502299640695 Eh    ::

    * Orbital Energies and Occupations

         #    Occupation            Energy/Eh            Energy/eV
      -------------------------------------------------------------
         1        2.0000           -0.6813753             -18.5412
       ...           ...                  ...                  ...
        64        2.0000           -0.4217457             -11.4763
        65        2.0000           -0.4207316             -11.4487
        66        2.0000           -0.4191947             -11.4069
        67        2.0000           -0.4183350             -11.3835
        68        2.0000           -0.4161036             -11.3228
        69        2.0000           -0.4109902             -11.1836
        70        2.0000           -0.4073418             -11.0843
        71        2.0000           -0.4072239             -11.0811
        72        1.9999           -0.3767967             -10.2532
        73        1.9999           -0.3767804             -10.2527
        74        1.8976           -0.3696110             -10.0576
        75        1.1025           -0.3654872              -9.9454
        76        0.8126           -0.2510996              -6.8328 (HOMO)
        77        0.1873           -0.2483119              -6.7569 (LUMO)
        78        0.0001           -0.2406836              -6.5493
        79        0.0000           -0.2351132              -6.3978
        80                         -0.2242136              -6.1012
        81                         -0.2241746              -6.1001
        82                         -0.1976114              -5.3773
        83                         -0.1904304              -5.1819
        84                         -0.1870081              -5.0888
        85                         -0.1869356              -5.0868
        86                         -0.1151064              -3.1322
        87                         -0.0954150              -2.5964
       ...                                ...                  ...
       148                          0.7429896              20.2178
      -------------------------------------------------------------
                  HL-Gap            0.0027877 Eh            0.0759 eV

     #   Z          covCN         q      C6AA      α(0)
     1   6 C        2.912    -0.026    28.659     8.778
     2   6 C        2.917    -0.050    29.247     8.868
     3   6 C        2.909     0.051    26.846     8.496
     4   7 N        2.798    -0.007    21.396     6.870
     5   6 C        3.062     0.041    27.018     8.524
     6   6 C        2.908    -0.044    29.101     8.846
     7   6 C        2.920    -0.048    29.190     8.860
     8   6 C        2.917    -0.032    28.789     8.799
     9   6 C        2.910    -0.040    28.986     8.828
    10   6 C        3.059    -0.021    28.473     8.751
    11   6 C        3.059    -0.021    28.463     8.749
    12   6 C        2.910    -0.039    28.979     8.827
    13   6 C        2.917    -0.031    28.780     8.797
    14   6 C        2.920    -0.048    29.184     8.859
    15   6 C        2.908    -0.045    29.111     8.847
    16   6 C        3.064     0.042    27.006     8.522
    17   6 C        2.919    -0.056    29.389     8.890
    18   6 C        2.909     0.051    26.846     8.496
    19   7 N        2.798    -0.007    21.397     6.870
    20   6 C        3.062     0.041    27.018     8.524
    21   6 C        2.908    -0.044    29.101     8.846
    22   6 C        2.920    -0.048    29.191     8.860
    23   6 C        2.917    -0.032    28.789     8.799
    24   6 C        2.910    -0.040    28.987     8.828
    25   6 C        3.059    -0.021    28.473     8.751
    26   6 C        3.059    -0.021    28.463     8.749
    27   6 C        2.910    -0.039    28.979     8.827
    28   6 C        2.917    -0.031    28.780     8.797
    29   6 C        2.920    -0.048    29.185     8.859
    30   6 C        2.908    -0.045    29.111     8.847
    31   6 C        3.064     0.042    27.006     8.522
    32   6 C        2.917    -0.050    29.247     8.868
    33   1 H        0.926     0.046     2.373     2.409
    34   1 H        0.926     0.046     2.372     2.408
    35   1 H        0.926     0.030     2.589     2.516
    36   1 H        0.926     0.028     2.617     2.530
    37   1 H        0.926     0.030     2.588     2.516
    38   1 H        0.926     0.030     2.593     2.518
    39   1 H        0.926     0.030     2.589     2.516
    40   1 H        0.926     0.030     2.579     2.511
    41   1 H        0.926     0.029     2.604     2.524
    42   1 H        0.926     0.035     2.516     2.481
    43   1 H        0.926     0.046     2.365     2.405
    44   1 H        0.926     0.030     2.589     2.516
    45   1 H        0.926     0.028     2.617     2.530
    46   1 H        0.926     0.030     2.588     2.516
    47   1 H        0.926     0.030     2.593     2.518
    48   1 H        0.926     0.030     2.589     2.516
    49   1 H        0.926     0.030     2.579     2.512
    50   1 H        0.926     0.029     2.604     2.524
    51   1 H        0.926     0.035     2.517     2.481
    52   1 H        0.926     0.046     2.372     2.409

molecular dipole:
                 x           y           z       tot (Debye)
 q only:        0.001      -0.463       0.375
   full:        0.001      -0.473       0.410       1.590

 projected vibrational frequencies (cm⁻¹)
eigval :       -0.00    -0.00    -0.00    -0.00     0.00     0.00
eigval :       19.06    27.20    31.01    56.30    67.82    88.54
eigval :      101.67   107.66   135.24   136.11   149.17   190.51
eigval :      194.54   230.61   252.88   260.58   265.28   274.10
eigval :      300.41   327.18   362.83   370.30   373.24   402.72
eigval :      409.59   411.56   412.24   431.03   434.20   492.09
eigval :      501.45   502.10   510.95   511.48   534.77   556.78
eigval :      564.18   573.98   578.51   597.83   607.75   625.29
eigval :      636.51   652.46   652.56   680.64   684.40   689.44
eigval :      727.05   745.28   746.57   748.57   751.37   751.71
eigval :      755.44   760.40   829.40   834.16   837.64   843.82
eigval :      845.14   866.49   867.33   877.29   880.01   888.21
eigval :      890.06   890.55   899.92   900.03   901.05   904.04
eigval :      904.17   907.07   948.06   982.09   999.93  1001.58
eigval :     1035.95  1056.38  1059.64  1065.01  1083.88  1089.26
eigval :     1090.00  1099.34  1100.26  1120.63  1156.91  1160.47
eigval :     1161.11  1168.25  1171.60  1187.34  1200.69  1205.45
eigval :     1208.36  1229.55  1234.97  1246.11  1248.69  1263.95
eigval :     1265.15  1284.45  1286.86  1295.92  1300.26  1314.94
eigval :     1352.12  1374.99  1375.60  1383.96  1385.01  1402.21
eigval :     1410.18  1413.62  1427.23  1438.07  1438.85  1451.65
eigval :     1464.76  1464.78  1491.11  1491.69  1502.86  1541.56
eigval :     1542.30  1543.09  1544.94  1585.58  3070.93  3071.05
eigval :     3071.16  3071.48  3080.44  3082.25  3082.48  3084.67
eigval :     3084.89  3088.10  3088.19  3089.81  3090.42  3094.88
eigval :     3095.05  3096.19  3099.27  3101.32  3103.40  3108.35

   temp. (K)  partition function   enthalpy   heat capacity  entropy
                                   cal/mol     cal/K/mol   cal/K/mol   J/K/mol
 298.15  VIB  0.104E+10            13514.220     92.903     80.358
         ROT  0.225E+08              888.752      2.981     36.626
         INT  0.234E+17            14402.972     95.883    116.983
         TR   0.799E+28             1481.254      4.968     43.893
         TOT                       15884.2259   100.8516   160.8764   673.1069

       T/K    H(0)-H(T)+PV         H(T)/Eh          T*S/Eh         G(T)/Eh
   ------------------------------------------------------------------------
    298.15    0.253131E-01    0.419056E+00    0.764376E-01    0.342618E+00
   ------------------------------------------------------------------------

         :::::::::::::::::::::::::::::::::::::::::::::::::::::
         ::                  THERMODYNAMIC                  ::
         :::::::::::::::::::::::::::::::::::::::::::::::::::::
         :: total free energy         -79.925357245434 Eh   ::
         ::.................................................::
         :: total energy              -80.267975495723 Eh   ::
         :: zero point energy           0.393742695434 Eh   ::
         :: G(RRHO) w/o ZPVE           -0.051124445146 Eh   ::
         :: G(RRHO) contrib.            0.342618250288 Eh   ::
         :::::::::::::::::::::::::::::::::::::::::::::::::::::

           -------------------------------------------------
          | TOTAL ENERGY              -80.267975495723 Eh   |
          | TOTAL ENTHALPY            -79.848919675140 Eh   |
          | TOTAL FREE ENERGY         -79.925357245434 Eh   |
          | GRADIENT NORM               0.000084598729 Eh/α |
          | HOMO-LUMO GAP               0.075856801273 eV   |
           -------------------------------------------------

 * finished run on 2025/07/16 at 19:21:21.601
