   * xtb version 6.7.1 (edcfbbe) compiled by 'albert@albert-system' on 2024-07-22

   ID    Z sym.   atoms
    1    6 C      1-3, 5-18, 20-32
    2    7 N      4, 19
    3    1 H      33-52

          program call               : xtb data2507/toluene/mCP/mCP_toluene_S0_crest.xyz --gfn 2 --gbsa toluene --ohess vtight --parallel 40 --molden --ceasefiles --namespace data2507/toluene/mCP/mCP_toluene_S0_finalOpt
      * Solvation model:               GBSA
        Solvent                        toluene
        Solvent mass                       9.2140E+01 g/mol
          :  Hamiltonian                  GFN2-xTB          :
 * total energy  :   -80.3818091 Eh     change       -0.7586749E-09 Eh
 * total energy  :   -80.3818323 Eh     change       -0.2310364E-04 Eh
 * total energy  :   -80.3818439 Eh     change       -0.1168945E-04 Eh
 * total energy  :   -80.3818491 Eh     change       -0.5112684E-05 Eh
 * total energy  :   -80.3818549 Eh     change       -0.5806796E-05 Eh
 * total energy  :   -80.3818583 Eh     change       -0.3451407E-05 Eh
 * total energy  :   -80.3818614 Eh     change       -0.3084023E-05 Eh
 * total energy  :   -80.3818635 Eh     change       -0.2102265E-05 Eh
 * total energy  :   -80.3818649 Eh     change       -0.1441114E-05 Eh
 * total energy  :   -80.3818663 Eh     change       -0.1358972E-05 Eh
 * total energy  :   -80.3818714 Eh     change       -0.1616412E-05 Eh
 * total energy  :   -80.3818725 Eh     change       -0.1075767E-05 Eh
 * total energy  :   -80.3818731 Eh     change       -0.5833279E-06 Eh
 * total energy  :   -80.3818734 Eh     change       -0.3425834E-06 Eh
 * total energy  :   -80.3818737 Eh     change       -0.2482449E-06 Eh
 * total energy  :   -80.3818739 Eh     change       -0.2022116E-06 Eh
 * total energy  :   -80.3818740 Eh     change       -0.1499881E-06 Eh
 * total energy  :   -80.3818741 Eh     change       -0.1326017E-06 Eh
 * total energy  :   -80.3818742 Eh     change       -0.9367990E-07 Eh
   *** GEOMETRY OPTIMIZATION CONVERGED AFTER 21 ITERATIONS ***

 final structure:
================
52
 xtb: 6.7.1 (edcfbbe)
C           -0.00121150302209       -2.18216731781299        2.31956720504789
C            1.20036546566896       -1.70465312797516        1.82861137124614
C            1.20346775874146       -0.74071741505344        0.82336036920801
N            2.41990877568392       -0.27057327433946        0.30612018303387
C            2.79486492945777        1.05259718943363        0.17971632836703
C            2.11777559550490        2.20373070062834        0.55504594108972
C            2.73578305551849        3.42015893699222        0.33724815628283
C            4.00591872436127        3.49769187109523       -0.23053062673104
C            4.69672170540619        2.35503648494684       -0.58264979404982
C            4.09382436250800        1.12083329706607       -0.37515477464285
C            4.51363088396042       -0.23470930924978       -0.59809721404235
C            5.66489836151596       -0.80377102736059       -1.12788880761857
C            5.73989317269661       -2.17922311461264       -1.22337948515643
C            4.67928578179224       -2.98455409929581       -0.81268400640608
C            3.52428843825878       -2.44186079968718       -0.28211868867591
C            3.45265033158451       -1.06111149065612       -0.16107252835330
C           -0.00042663887083       -0.26032988177521        0.31978992476913
C           -1.20472120907495       -0.73915119245900        0.82391688632136
N           -2.42076167974492       -0.26756010329188        0.30706831440860
C           -2.79381355684338        1.05607150546193        0.17982354754961
C           -2.11517701895047        2.20646356311007        0.55463747960821
C           -2.73140615809222        3.42364297352680        0.33599096374764
C           -4.00131354504023        3.50265339196507       -0.23209962030265
C           -4.69368720220362        2.36077130587313       -0.58364402410569
C           -4.09259175258033        1.12583554035263       -0.37527808381218
C           -4.51429884055984       -0.22923529567828       -0.59748499071482
C           -5.66631592996154       -0.79694512097315       -1.12709690774452
C           -5.74329191196955       -2.17234256104626       -1.22178865264817
C           -4.68391448009847       -2.97895794434817       -0.81044359180100
C           -3.52819938866065       -2.43761756322916       -0.28005300188390
C           -3.45456639390757       -1.05690111022082       -0.15982516646089
C           -1.20239695040831       -1.70299759249392        1.82925721676628
H           -0.00150841551218       -2.92532150613502        3.10272212380927
H            2.13752094938392       -2.06388671899267        2.22514967735839
H            1.14329255411014        2.15305170656583        1.01525018187837
H            2.22502067271993        4.33007282398511        0.61721254363728
H            4.45614371151573        4.46705460957087       -0.38686062858160
H            5.68776836124603        2.41524596176438       -1.00721682172290
H            6.48047230121087       -0.17913720157175       -1.46062746553777
H            6.62745177489667       -2.64143096605985       -1.63019090927686
H            4.76059673007539       -4.05709421408283       -0.91425133348647
H            2.70216060981756       -3.07399435759067        0.01785389300651
H           -0.00013744964211        0.46271105597008       -0.48204383328508
H           -1.14087715886556        2.15467085296289        1.01510500779069
H           -2.21941645102671        4.33298945555044        0.61555095843965
H           -4.45009943847693        4.47256688515839       -0.38914807715945
H           -5.68455248269601        2.42212796295317       -1.00847128110645
H           -6.48094643013088       -0.17133131466722       -1.46030983867681
H           -6.63146823383051       -2.63350465578870       -1.62843986336420
H           -4.76675610891249       -4.05144083845661       -0.91138765359443
H           -2.70701332956067       -3.07076138214652        0.02036366143477
H           -2.13982025149255       -2.06091259618297        2.22634905374032

          :  Hamiltonian                  GFN2-xTB          :
         :: gradient norm              0.000025392632 Eh/a0 ::
         :: HOMO-LUMO gap              3.113096011168 eV    ::
         :: SCC energy               -81.907844634422 Eh    ::
         :: -> dispersion             -0.070487424761 Eh    ::
         :: -> Gsolv                  -0.032050732960 Eh    ::
         :: repulsion energy           1.525970401207 Eh    ::

    * Orbital Energies and Occupations

         #    Occupation            Energy/Eh            Energy/eV
      -------------------------------------------------------------
         1        2.0000           -0.6777354             -18.4421
       ...           ...                  ...                  ...
        63        2.0000           -0.4235011             -11.5241
        64        2.0000           -0.4214156             -11.4673
        65        2.0000           -0.4206453             -11.4463
        66        2.0000           -0.4193953             -11.4123
        67        2.0000           -0.4178901             -11.3714
        68        2.0000           -0.4166996             -11.3390
        69        2.0000           -0.4142097             -11.2712
        70        2.0000           -0.4061403             -11.0516
        71        2.0000           -0.4060870             -11.0502
        72        2.0000           -0.3794822             -10.3262
        73        2.0000           -0.3794767             -10.3261
        74        2.0000           -0.3659461              -9.9579
        75        2.0000           -0.3630265              -9.8785 (HOMO)
        76                         -0.2486224              -6.7654 (LUMO)
        77                         -0.2469290              -6.7193
        78                         -0.2390765              -6.5056
        79                         -0.2387186              -6.4959
        80                         -0.2228473              -6.0640
        81                         -0.2228150              -6.0631
        82                         -0.1956873              -5.3249
        83                         -0.1889652              -5.1420
        84                         -0.1869956              -5.0884
        85                         -0.1869453              -5.0870
        86                         -0.1130460              -3.0761
       ...                                ...                  ...
       148                          0.7442849              20.2530
      -------------------------------------------------------------
                  HL-Gap            0.1144042 Eh            3.1131 eV

     #   Z          covCN         q      C6AA      α(0)
     1   6 C        2.919    -0.027    28.666     8.780
     2   6 C        2.921    -0.047    29.159     8.855
     3   6 C        2.912     0.067    26.505     8.442
     4   7 N        2.802    -0.045    22.117     6.985
     5   6 C        3.074     0.047    26.866     8.498
     6   6 C        2.910    -0.051    29.262     8.870
     7   6 C        2.923    -0.035    28.862     8.810
     8   6 C        2.920    -0.042    29.052     8.839
     9   6 C        2.912    -0.035    28.859     8.809
    10   6 C        3.067    -0.018    28.394     8.738
    11   6 C        3.067    -0.018    28.390     8.737
    12   6 C        2.912    -0.035    28.861     8.809
    13   6 C        2.920    -0.042    29.051     8.839
    14   6 C        2.924    -0.035    28.864     8.810
    15   6 C        2.910    -0.052    29.290     8.874
    16   6 C        3.075     0.047    26.868     8.499
    17   6 C        2.925    -0.056    29.388     8.890
    18   6 C        2.912     0.067    26.505     8.442
    19   7 N        2.802    -0.045    22.117     6.985
    20   6 C        3.074     0.047    26.866     8.498
    21   6 C        2.910    -0.051    29.262     8.870
    22   6 C        2.923    -0.035    28.862     8.810
    23   6 C        2.920    -0.042    29.052     8.839
    24   6 C        2.912    -0.035    28.859     8.809
    25   6 C        3.067    -0.018    28.394     8.738
    26   6 C        3.067    -0.018    28.390     8.737
    27   6 C        2.912    -0.035    28.861     8.809
    28   6 C        2.920    -0.042    29.051     8.839
    29   6 C        2.924    -0.035    28.864     8.810
    30   6 C        2.910    -0.052    29.290     8.874
    31   6 C        3.075     0.047    26.869     8.499
    32   6 C        2.921    -0.047    29.159     8.855
    33   1 H        0.926     0.049     2.332     2.388
    34   1 H        0.926     0.049     2.338     2.391
    35   1 H        0.926     0.027     2.632     2.537
    36   1 H        0.926     0.030     2.581     2.512
    37   1 H        0.926     0.028     2.611     2.527
    38   1 H        0.926     0.031     2.574     2.509
    39   1 H        0.926     0.031     2.576     2.510
    40   1 H        0.926     0.028     2.609     2.526
    41   1 H        0.926     0.031     2.575     2.509
    42   1 H        0.926     0.031     2.576     2.510
    43   1 H        0.926     0.049     2.329     2.387
    44   1 H        0.926     0.027     2.632     2.537
    45   1 H        0.926     0.030     2.581     2.512
    46   1 H        0.926     0.028     2.611     2.527
    47   1 H        0.926     0.031     2.574     2.509
    48   1 H        0.926     0.031     2.576     2.510
    49   1 H        0.926     0.028     2.609     2.526
    50   1 H        0.926     0.031     2.575     2.509
    51   1 H        0.926     0.031     2.576     2.510
    52   1 H        0.926     0.049     2.338     2.391

molecular dipole:
                 x           y           z       tot (Debye)
 q only:       -0.000      -0.445       0.436
   full:       -0.000      -0.464       0.464       1.669

 projected vibrational frequencies (cm⁻¹)
eigval :       -0.00    -0.00    -0.00     0.00     0.00     0.00
eigval :       19.06    27.78    29.14    54.54    63.79    83.52
eigval :      102.71   107.10   140.04   141.34   149.54   193.47
eigval :      201.36   238.18   247.25   269.80   272.24   272.83
eigval :      300.89   334.20   360.03   391.89   395.27   421.05
eigval :      421.34   421.81   426.74   434.47   438.37   511.37
eigval :      518.58   520.07   531.01   540.86   541.37   555.30
eigval :      572.29   587.57   592.79   609.27   618.98   644.90
eigval :      668.90   672.61   674.11   689.54   706.80   708.16
eigval :      746.75   756.20   765.00   765.88   768.15   777.49
eigval :      779.15   804.35   860.70   866.10   866.12   869.90
eigval :      893.40   894.17   898.72   899.84   900.35   900.47
eigval :      906.85   907.87   909.65   920.13   920.87   922.85
eigval :      923.95   930.72   996.33  1006.69  1011.60  1016.65
eigval :     1066.26  1069.56  1071.35  1072.96  1109.07  1117.99
eigval :     1125.17  1147.47  1151.20  1164.54  1173.98  1176.23
eigval :     1179.09  1180.42  1185.11  1198.55  1230.98  1233.17
eigval :     1235.74  1248.04  1252.60  1296.94  1298.67  1300.85
eigval :     1301.67  1314.32  1341.26  1355.89  1356.02  1358.04
eigval :     1361.29  1370.42  1418.08  1420.40  1426.26  1427.55
eigval :     1458.64  1469.56  1475.47  1477.31  1486.66  1486.82
eigval :     1568.60  1572.13  1575.21  1581.10  1587.82  1588.20
eigval :     1597.71  1598.13  1613.01  1613.68  3071.06  3071.18
eigval :     3071.97  3072.20  3076.86  3076.88  3078.36  3078.59
eigval :     3084.04  3084.68  3085.11  3086.97  3087.20  3091.72
eigval :     3091.76  3095.23  3095.47  3096.96  3097.67  3102.78

   temp. (K)  partition function   enthalpy   heat capacity  entropy
                                   cal/mol     cal/K/mol   cal/K/mol   J/K/mol
 298.15  VIB  0.837E+09            13158.680     89.944     78.542
         ROT  0.225E+08              888.752      2.981     36.628
         INT  0.189E+17            14047.432     92.924    115.169
         TR   0.799E+28             1481.254      4.968     43.893
         TOT                       15528.6863    97.8926   159.0622   665.5164

       T/K    H(0)-H(T)+PV         H(T)/Eh          T*S/Eh         G(T)/Eh
   ------------------------------------------------------------------------
    298.15    0.247465E-01    0.425693E+00    0.755756E-01    0.350117E+00
   ------------------------------------------------------------------------

         :::::::::::::::::::::::::::::::::::::::::::::::::::::
         ::                  THERMODYNAMIC                  ::
         :::::::::::::::::::::::::::::::::::::::::::::::::::::
         :: total free energy         -80.031757172319 Eh   ::
         ::.................................................::
         :: total energy              -80.381874233584 Eh   ::
         :: zero point energy           0.400946123325 Eh   ::
         :: G(RRHO) w/o ZPVE           -0.050829062060 Eh   ::
         :: G(RRHO) contrib.            0.350117061265 Eh   ::
         :::::::::::::::::::::::::::::::::::::::::::::::::::::

           -------------------------------------------------
          | TOTAL ENERGY              -80.381874233584 Eh   |
          | TOTAL ENTHALPY            -79.956181573477 Eh   |
          | TOTAL FREE ENERGY         -80.031757172319 Eh   |
          | GRADIENT NORM               0.000025400725 Eh/α |
          | HOMO-LUMO GAP               3.113096012177 eV   |
           -------------------------------------------------

 * finished run on 2025/07/16 at 19:19:38.734
