   * xtb version 6.7.1 (edcfbbe) compiled by 'albert@albert-system' on 2024-07-22

   ID    Z sym.   atoms
    1    6 C      1-3, 6-31, 33-35
    2    8 O      4, 32
    3    5 B      5
    4    1 H      36-66

          program call               : xtb data2507/gas/PTZTPE-2/PTZTPE-2.xyz --gfn 2 --ohess vtight --parallel 40 --molden --ceasefiles --namespace data2507/gas/PTZTPE-2/PTZTPE-2_gas_S0_preOpt
          :  Hamiltonian                  GFN2-xTB          :
 * total energy  :   -93.6873897 Eh     change       -0.3604157E-08 Eh
 * total energy  :   -93.7233306 Eh     change       -0.3594091E-01 Eh
 * total energy  :   -93.7362671 Eh     change       -0.1293643E-01 Eh
 * total energy  :   -93.7413027 Eh     change       -0.5035616E-02 Eh
 * total energy  :   -93.7457708 Eh     change       -0.4468093E-02 Eh
 * total energy  :   -93.7493522 Eh     change       -0.3581429E-02 Eh
 * total energy  :   -93.7523747 Eh     change       -0.3022506E-02 Eh
 * total energy  :   -93.7547959 Eh     change       -0.2421207E-02 Eh
 * total energy  :   -93.7566114 Eh     change       -0.1815492E-02 Eh
 * total energy  :   -93.7578874 Eh     change       -0.1276016E-02 Eh
 * total energy  :   -93.7685590 Eh     change       -0.3247814E-06 Eh
 * total energy  :   -93.7685593 Eh     change       -0.3195088E-06 Eh
 * total energy  :   -93.7685596 Eh     change       -0.2661859E-06 Eh
 * total energy  :   -93.7685598 Eh     change       -0.2240620E-06 Eh
 * total energy  :   -93.7685600 Eh     change       -0.2101855E-06 Eh
 * total energy  :   -93.7685603 Eh     change       -0.2348991E-06 Eh
 * total energy  :   -93.7685606 Eh     change       -0.3520646E-06 Eh
 * total energy  :   -93.7685611 Eh     change       -0.4703282E-06 Eh
 * total energy  :   -93.7685611 Eh     change       -0.4444630E-08 Eh
   *** GEOMETRY OPTIMIZATION CONVERGED AFTER 122 ITERATIONS ***

 final structure:
================
66
 xtb: 6.7.1 (edcfbbe)
C            6.38095242146751        1.55365783015486        1.32677771819856
C            5.63954563766973        0.29877108948540        0.87168824767550
C            6.08010017211686       -0.88656097485958        1.74011787180937
O            4.23891337416354        0.46986676514799        1.08544352987014
B            3.56458755141629       -0.04427181356045        0.01466352220022
C            2.01002620877283       -0.18489438215905       -0.04821626372864
C            1.20325847627556        0.25205013149896        1.00404783527399
C           -0.17034262624698        0.13683233594980        0.95041661654954
C           -0.79001503769515       -0.42709985500995       -0.16405507185787
C           -2.25245873512844       -0.58083787039904       -0.22414002153821
C           -3.10022393001856        0.41596225892681        0.11534620032442
C           -2.63833331952174        1.78918322971503        0.37673818487624
C           -1.72834386584096        2.41577622032024       -0.47271973469811
C           -1.32041208430314        3.71287581996773       -0.22839464617342
C           -1.81421091500231        4.40633457912789        0.86448613195004
C           -2.72884722727644        3.79731820669853        1.70737831280946
C           -3.14369752241822        2.50193453895863        1.46249597638215
C           -4.55148995955887        0.20696219968560        0.25030938917008
C           -5.44474656450423        1.13005772485058       -0.29016351043864
C           -6.80842776298572        0.95115241713258       -0.15402577067505
C           -7.30140234868337       -0.14356203453881        0.53635257350842
C           -6.42128290769313       -1.05663416960112        1.09391093616723
C           -5.05766746929003       -0.88447789590287        0.95364611564063
C           -2.72478300763905       -1.89914798666697       -0.67886223867053
C           -2.12516106832367       -3.06039734377190       -0.19489103098883
C           -2.55116338376221       -4.30275761743567       -0.62521578361747
C           -3.57147752898966       -4.40512961790725       -1.55611493133168
C           -4.16000217934084       -3.25607412101715       -2.05849882613636
C           -3.74125483859027       -2.01271780415797       -1.62539061963310
C            0.00840847321979       -0.88721371067695       -1.21035955310926
C            1.38121387378872       -0.75774250237863       -1.15471237545017
O            4.40471611032180       -0.42194436848935       -0.99408946690360
C            5.73008354799147       -0.00430481915325       -0.66859492572865
C            6.71874096100337       -1.10277702397403       -1.05254118123812
C            6.02025905056797        1.24699803612221       -1.50717896746088
H            6.26500649964909        1.65980581101606        2.40256468701927
H            7.43900017673780        1.47026675516973        1.09366698074140
H            5.97448938072976        2.44296610596617        0.85612249077245
H            5.83384562590807       -0.66556967345715        2.77621999285129
H            7.14941995052284       -1.05681898964637        1.65936276505043
H            5.54071132637687       -1.78543127403633        1.45182138421743
H            1.67617950817048        0.68557815627102        1.87247049761465
H           -0.77561944552384        0.47261888124399        1.78014039465696
H           -1.35027981013835        1.88327345296273       -1.33287361983285
H           -0.61562153511065        4.18695786828579       -0.89594879537306
H           -1.49164096058724        5.41933918136888        1.05535702318880
H           -3.12172289929576        4.33494228741583        2.55833321883315
H           -3.85622520975386        2.02705260158601        2.12243485586598
H           -5.06095167381245        1.98433909859156       -0.83017923934914
H           -7.48992688527895        1.66960322573933       -0.58635675414353
H           -8.36717698740796       -0.28169574167885        0.64446170370128
H           -6.80021178570688       -1.90582632625974        1.64394784304103
H           -4.37417339506724       -1.59177666834207        1.40000314021716
H           -1.32908718638635       -2.98126630806697        0.53206600800338
H           -2.08411607955254       -5.19534837208821       -0.23452672438538
H           -3.90276879158763       -5.37627464367627       -1.89345658251499
H           -4.94764689012775       -3.32967704332917       -2.79433984579703
H           -4.19416152619198       -1.11899125863466       -2.02887089210005
H           -0.46092162820255       -1.33431527572532       -2.07600715903643
H            1.99201975615250       -1.10490030532996       -1.97471649630449
H            7.72190337984295       -0.83370188622284       -0.73311678558513
H            6.44025886134876       -2.05421850441516       -0.61114025778624
H            6.71313041292415       -1.21900665935229       -2.13350994330564
H            5.90051305729873        0.99344721842551       -2.55806866014734
H            5.30832623390253        2.03335711408570       -1.26886179415668
H            7.03238694424159        1.60408270000187       -1.34265367906642

          :  Hamiltonian                  GFN2-xTB          :
         :: gradient norm              0.000043617898 Eh/a0 ::
         :: HOMO-LUMO gap              2.639599338254 eV    ::
         :: SCC energy               -95.375979750698 Eh    ::
         :: -> dispersion             -0.082202791983 Eh    ::
         :: repulsion energy           1.607418649267 Eh    ::

    * Orbital Energies and Occupations

         #    Occupation            Energy/Eh            Energy/eV
      -------------------------------------------------------------
         1        2.0000           -0.6911240             -18.8064
       ...           ...                  ...                  ...
        75        2.0000           -0.4162095             -11.3256
        76        2.0000           -0.4121055             -11.2140
        77        2.0000           -0.4079564             -11.1011
        78        2.0000           -0.4045776             -11.0091
        79        2.0000           -0.4019737             -10.9383
        80        2.0000           -0.4011349             -10.9154
        81        2.0000           -0.4004334             -10.8963
        82        2.0000           -0.3975537             -10.8180
        83        2.0000           -0.3963663             -10.7857
        84        2.0000           -0.3949758             -10.7478
        85        2.0000           -0.3923717             -10.6770
        86        2.0000           -0.3907287             -10.6323
        87        2.0000           -0.3583818              -9.7521 (HOMO)
        88                         -0.2613783              -7.1125 (LUMO)
        89                         -0.2304189              -6.2700
        90                         -0.2214759              -6.0267
        91                         -0.2204966              -6.0000
        92                         -0.2172378              -5.9113
        93                         -0.2151194              -5.8537
        94                         -0.2103642              -5.7243
        95                         -0.2069449              -5.6313
        96                         -0.1656428              -4.5074
        97                         -0.1263075              -3.4370
        98                         -0.0902540              -2.4559
       ...                                ...                  ...
       171                          0.6979766              18.9929
      -------------------------------------------------------------
                  HL-Gap            0.0970035 Eh            2.6396 eV

     #   Z          covCN         q      C6AA      α(0)
     1   6 C        3.755    -0.117    22.793     6.807
     2   6 C        3.861     0.129    18.455     6.109
     3   6 C        3.755    -0.116    22.767     6.804
     4   8 O        1.638    -0.370    20.278     6.078
     5   5 B        2.661     0.433    15.538     6.635
     6   6 C        2.887    -0.078    29.959     8.974
     7   6 C        2.922    -0.029    28.727     8.789
     8   6 C        2.920    -0.033    28.825     8.804
     9   6 C        2.979     0.017    27.619     8.621
    10   6 C        2.967    -0.006    28.160     8.704
    11   6 C        2.967    -0.006    28.179     8.707
    12   6 C        2.979     0.016    27.657     8.627
    13   6 C        2.924    -0.032    28.797     8.800
    14   6 C        2.919    -0.029    28.736     8.791
    15   6 C        2.920    -0.031    28.782     8.798
    16   6 C        2.918    -0.030    28.752     8.793
    17   6 C        2.925    -0.032    28.810     8.802
    18   6 C        2.978     0.016    27.654     8.626
    19   6 C        2.925    -0.032    28.810     8.802
    20   6 C        2.918    -0.030    28.751     8.793
    21   6 C        2.920    -0.032    28.787     8.798
    22   6 C        2.919    -0.030    28.740     8.791
    23   6 C        2.924    -0.032    28.798     8.800
    24   6 C        2.979     0.016    27.653     8.626
    25   6 C        2.925    -0.032    28.808     8.802
    26   6 C        2.918    -0.030    28.749     8.793
    27   6 C        2.920    -0.031    28.786     8.798
    28   6 C        2.919    -0.030    28.742     8.792
    29   6 C        2.924    -0.032    28.797     8.800
    30   6 C        2.921    -0.034    28.838     8.806
    31   6 C        2.922    -0.029    28.737     8.791
    32   8 O        1.638    -0.369    20.276     6.078
    33   6 C        3.861     0.129    18.455     6.109
    34   6 C        3.755    -0.117    22.794     6.807
    35   6 C        3.755    -0.115    22.766     6.803
    36   1 H        0.925     0.055     2.264     2.353
    37   1 H        0.925     0.040     2.450     2.448
    38   1 H        0.925     0.052     2.299     2.371
    39   1 H        0.925     0.052     2.292     2.367
    40   1 H        0.925     0.043     2.414     2.430
    41   1 H        0.925     0.043     2.410     2.428
    42   1 H        0.926     0.038     2.480     2.463
    43   1 H        0.926     0.030     2.590     2.517
    44   1 H        0.926     0.030     2.592     2.518
    45   1 H        0.926     0.029     2.605     2.524
    46   1 H        0.926     0.029     2.606     2.524
    47   1 H        0.926     0.029     2.606     2.525
    48   1 H        0.926     0.028     2.617     2.530
    49   1 H        0.926     0.028     2.617     2.530
    50   1 H        0.926     0.028     2.608     2.526
    51   1 H        0.926     0.028     2.608     2.525
    52   1 H        0.926     0.029     2.605     2.524
    53   1 H        0.926     0.029     2.603     2.523
    54   1 H        0.926     0.029     2.604     2.523
    55   1 H        0.926     0.029     2.605     2.524
    56   1 H        0.926     0.029     2.606     2.525
    57   1 H        0.926     0.029     2.605     2.524
    58   1 H        0.926     0.029     2.604     2.523
    59   1 H        0.925     0.029     2.602     2.522
    60   1 H        0.926     0.037     2.483     2.464
    61   1 H        0.925     0.040     2.450     2.448
    62   1 H        0.925     0.052     2.298     2.371
    63   1 H        0.925     0.055     2.264     2.353
    64   1 H        0.925     0.052     2.291     2.367
    65   1 H        0.925     0.043     2.410     2.428
    66   1 H        0.925     0.043     2.414     2.430

molecular dipole:
                 x           y           z       tot (Debye)
 q only:        0.718       0.061       0.028
   full:        0.871       0.073       0.035       2.224

 projected vibrational frequencies (cm⁻¹)
eigval :       -0.00    -0.00    -0.00    -0.00     0.00     0.00
eigval :       12.88    15.34    21.15    35.43    41.07    49.57
eigval :       54.40    59.70    64.58    65.23    69.88    71.22
eigval :       80.51   115.43   138.83   165.01   173.51   201.41
eigval :      209.77   223.60   237.22   245.61   255.98   268.70
eigval :      273.25   274.13   280.92   285.55   303.68   317.02
eigval :      327.44   356.30   366.47   370.66   372.34   374.69
eigval :      376.72   399.13   412.03   426.04   451.38   461.02
eigval :      491.71   506.47   517.53   554.56   557.63   582.26
eigval :      583.93   586.68   591.04   591.96   602.83   608.35
eigval :      628.11   641.46   670.09   674.12   677.94   687.04
eigval :      695.53   701.88   750.64   759.42   762.65   807.27
eigval :      814.24   848.09   876.82   877.52   877.67   879.75
eigval :      883.88   894.06   901.16   901.72   902.78   904.78
eigval :      924.79   929.44   929.84   929.95   931.27   931.35
eigval :      931.97   933.74   940.90   946.50   950.63   966.16
eigval :      979.49   983.29   992.88   999.72  1005.14  1008.74
eigval :     1030.60  1084.18  1085.02  1085.88  1107.07  1111.16
eigval :     1121.73  1122.94  1124.04  1135.88  1163.21  1164.34
eigval :     1165.13  1182.13  1182.16  1182.20  1197.40  1198.87
eigval :     1199.69  1201.68  1204.56  1213.70  1225.20  1239.91
eigval :     1248.98  1270.83  1280.81  1282.79  1284.36  1289.89
eigval :     1301.84  1311.03  1314.73  1317.96  1319.06  1322.29
eigval :     1384.95  1391.52  1393.76  1399.58  1409.27  1430.02
eigval :     1431.26  1432.09  1462.72  1466.52  1473.32  1474.48
eigval :     1476.49  1478.85  1482.41  1483.41  1495.35  1501.47
eigval :     1506.56  1519.69  1549.86  1578.21  1578.74  1580.07
eigval :     1586.41  1593.01  1595.15  1599.76  1614.66  3030.57
eigval :     3032.17  3037.05  3038.38  3040.70  3040.74  3042.17
eigval :     3043.71  3048.20  3051.02  3063.56  3064.37  3066.82
eigval :     3068.60  3069.36  3069.73  3072.32  3072.76  3072.93
eigval :     3075.83  3079.08  3079.71  3079.89  3085.70  3086.46
eigval :     3086.92  3089.62  3091.56  3091.96  3092.08  3092.84

   temp. (K)  partition function   enthalpy   heat capacity  entropy
                                   cal/mol     cal/K/mol   cal/K/mol   J/K/mol
 298.15  VIB  0.205E+15            18376.683    114.138    115.201
         ROT  0.350E+08              888.752      2.981     37.504
         INT  0.719E+22            19265.436    117.119    152.705
         TR   0.950E+28             1481.254      4.968     44.236
         TOT                       20746.6896   122.0867   196.9409   824.0009

       T/K    H(0)-H(T)+PV         H(T)/Eh          T*S/Eh         G(T)/Eh
   ------------------------------------------------------------------------
    298.15    0.330620E-01    0.566185E+00    0.935730E-01    0.472612E+00
   ------------------------------------------------------------------------

         :::::::::::::::::::::::::::::::::::::::::::::::::::::
         ::                  THERMODYNAMIC                  ::
         :::::::::::::::::::::::::::::::::::::::::::::::::::::
         :: total free energy         -93.295949521891 Eh   ::
         ::.................................................::
         :: total energy              -93.768561101433 Eh   ::
         :: zero point energy           0.533122623573 Eh   ::
         :: G(RRHO) w/o ZPVE           -0.060511044031 Eh   ::
         :: G(RRHO) contrib.            0.472611579542 Eh   ::
         :::::::::::::::::::::::::::::::::::::::::::::::::::::

           -------------------------------------------------
          | TOTAL ENERGY              -93.768561101433 Eh   |
          | TOTAL ENTHALPY            -93.202376523559 Eh   |
          | TOTAL FREE ENERGY         -93.295949521891 Eh   |
          | GRADIENT NORM               0.000043619337 Eh/α |
          | HOMO-LUMO GAP               2.639599330607 eV   |
           -------------------------------------------------

 * finished run on 2025/07/16 at 15:42:10.612
