   * xtb version 6.7.1 (edcfbbe) compiled by 'albert@albert-system' on 2024-07-22

   ID    Z sym.   atoms
    1    6 C      1-3, 6-31, 33-35
    2    8 O      4, 32
    3    5 B      5
    4    1 H      36-66

          program call               : xtb data2507/gas/PTZTPE-2/PTZTPE-2_gas_S0_finalOpt.xtbopt.xyz --gfn 2 --spinpol --tblite --uhf 2 --ohess vtight --parallel 40 --molden --ceasefiles --namespace data2507/gas/PTZTPE-2/PTZTPE-2_gas_T1_preOpt
 * total energy  :   -93.6754605 Eh     change       -0.1352083E-07 Eh
 * total energy  :   -93.6873514 Eh     change       -0.1189090E-01 Eh
 * total energy  :   -93.6913290 Eh     change       -0.3977601E-02 Eh
 * total energy  :   -93.6928457 Eh     change       -0.1516749E-02 Eh
 * total energy  :   -93.6944506 Eh     change       -0.1604838E-02 Eh
 * total energy  :   -93.6959017 Eh     change       -0.1451121E-02 Eh
 * total energy  :   -93.6972277 Eh     change       -0.1326007E-02 Eh
 * total energy  :   -93.6981113 Eh     change       -0.8835928E-03 Eh
 * total energy  :   -93.6986220 Eh     change       -0.5107085E-03 Eh
 * total energy  :   -93.6989845 Eh     change       -0.3624674E-03 Eh
 * total energy  :   -93.7065459 Eh     change       -0.8157899E-06 Eh
 * total energy  :   -93.7065469 Eh     change       -0.1005585E-05 Eh
 * total energy  :   -93.7065481 Eh     change       -0.1232289E-05 Eh
 * total energy  :   -93.7065497 Eh     change       -0.1516721E-05 Eh
 * total energy  :   -93.7065513 Eh     change       -0.1608742E-05 Eh
 * total energy  :   -93.7065527 Eh     change       -0.1429522E-05 Eh
 * total energy  :   -93.7065539 Eh     change       -0.1247133E-05 Eh
 * total energy  :   -93.7065539 Eh     change        0.7725777E-07 Eh
 * total energy  :   -93.7065540 Eh     change       -0.9079557E-07 Eh
   *** GEOMETRY OPTIMIZATION CONVERGED AFTER 95 ITERATIONS ***

 final structure:
================
66
 xtb: 6.7.1 (edcfbbe)
C            6.33389288143739        1.88061127265174        0.19996962153666
C            5.95291262907352        0.63621174254791        1.01225404629918
C            6.65469185418767        0.69136420260769        2.36739925903851
O            4.54018046648753        0.68509134011954        1.20568974431019
B            3.94742085288887       -0.19430618534772        0.34333814044973
C            2.40659146908287       -0.31217223164232        0.14183433445401
C            1.51383433054016        0.51359537517778        0.83709052553558
C            0.15679308598317        0.41877978143591        0.65419990394043
C           -0.39597242858887       -0.53353585675542       -0.22928175349020
C           -1.80447897244057       -0.59267537163516       -0.43461517162601
C           -2.60692024911143        0.60851810625947       -0.12284118609850
C           -2.33907407901062        1.80395129356815       -0.85963560089092
C           -1.72288037322890        1.73408214538083       -2.12504069082956
C           -1.42803814818302        2.87535173166428       -2.83479028066455
C           -1.71491884274400        4.12694223069313       -2.30594501731521
C           -2.29264637726963        4.21941134070582       -1.04729210289895
C           -2.60255103922235        3.08356864426548       -0.33279121948355
C           -3.60769801591397        0.49740642681684        0.89264966455023
C           -4.76125605364177        1.30546317278972        0.90021987176575
C           -5.73157316077989        1.14279273480084        1.86409924169591
C           -5.59139203035411        0.17828092306718        2.85221828236905
C           -4.47076826288626       -0.64187352155946        2.85114064407953
C           -3.50056848446718       -0.49563845711150        1.88642773165740
C           -2.49997281370980       -1.74424715866424       -0.92729919658435
C           -2.02388464257360       -3.05196720063990       -0.71634918913984
C           -2.73769455592167       -4.14344324624082       -1.16036151139098
C           -3.94267398690819       -3.97559511878450       -1.82791209011519
C           -4.43937090661075       -2.69457089867682       -2.02791879656736
C           -3.73973430887132       -1.59778484869436       -1.57857569044395
C            0.50551131613646       -1.35183952973001       -0.94285892087638
C            1.86182420944045       -1.23636326715381       -0.75791730160417
O            4.86182054005154       -0.95963342207857       -0.32545784889439
C            6.15769861831827       -0.70261990670122        0.21311579073159
C            6.50668630649562       -1.89117004753987        1.11810638740420
C            7.17473525783215       -0.62564883723736       -0.92339745127206
H            6.01274381369599        2.76276364979004        0.74920845507608
H            7.40686763256007        1.93349612624851        0.04214145785664
H            5.81973014776832        1.87697968461325       -0.75795906895302
H            6.46083372902162        1.65848652186421        2.82472810045878
H            7.72715020969866        0.57116749141755        2.24024950660860
H            6.28010994083896       -0.07705611101345        3.03586693541952
H            1.91741526672494        1.23764112279631        1.52921394462104
H           -0.51093842147874        1.06085940874320        1.21089767415509
H           -1.50449319181807        0.76384217364982       -2.54696892085160
H           -0.96869748446420        2.79622890836866       -3.80964365736889
H           -1.47879011145385        5.02098936081607       -2.86328839173004
H           -2.49359260465297        5.19107131648408       -0.61876340905416
H           -3.00587274782104        3.17188087809928        0.66504602001302
H           -4.90745574673676        2.02624446294339        0.10944896833592
H           -6.61386418639934        1.76673633759100        1.84403415479340
H           -6.35325404324505        0.05866229282351        3.60781010620481
H           -4.35985074377577       -1.40115410916418        3.61192810343635
H           -2.62642299573968       -1.13034490942292        1.89787450040635
H           -1.11264912501536       -3.19894798766003       -0.15601121183314
H           -2.35860355154761       -5.13906552628535       -0.97853862434853
H           -4.49536221825132       -4.83464278124825       -2.17762824311523
H           -5.38189120193345       -2.55688554819844       -2.53812213721665
H           -4.12809256453850       -0.60357500412025       -1.74615920802411
H            0.12137510054493       -2.03902243278103       -1.68251065798503
H            2.53816975763776       -1.86171113650205       -1.32193995798912
H            7.50351481789101       -1.78756555034461        1.53589118669541
H            5.77813767688950       -1.98064140130184        1.92011071999672
H            6.46451575419184       -2.80110149717950        0.52374091933494
H            7.24893169709313       -1.60209656025819       -1.39574875420798
H            6.86659867546376        0.09010330031106       -1.67865951424933
H            8.15107116894919       -0.34751176441720       -0.53587993212990

 projected vibrational frequencies (cm⁻¹)
eigval :       -0.00    -0.00    -0.00     0.00     0.00     0.00
eigval :       10.31    12.83    19.05    29.05    35.88    45.71
eigval :       51.34    53.95    59.43    66.63    75.79    88.59
eigval :       92.66   112.52   139.54   172.25   183.61   201.40
eigval :      210.89   213.47   228.83   250.00   255.36   271.97
eigval :      272.60   276.78   281.64   288.77   309.64   323.94
eigval :      333.51   362.37   362.76   365.69   371.45   373.96
eigval :      384.87   386.74   402.06   414.59   438.59   452.62
eigval :      472.80   493.32   516.21   518.61   547.40   580.29
eigval :      582.38   583.87   585.74   585.93   597.45   608.64
eigval :      615.25   623.54   656.44   660.38   663.50   685.36
eigval :      688.11   695.03   746.33   748.54   750.83   805.39
eigval :      809.31   837.87   854.86   856.97   867.93   870.78
eigval :      883.78   893.86   895.41   898.67   900.18   906.64
eigval :      921.27   922.51   922.97   923.95   924.32   924.85
eigval :      927.76   942.66   945.40   946.07   950.31   965.81
eigval :      971.31   979.79   983.87   992.31   999.35  1003.35
eigval :     1007.43  1080.15  1080.55  1081.47  1102.31  1104.19
eigval :     1110.46  1121.09  1125.04  1132.54  1140.75  1162.74
eigval :     1164.66  1179.90  1180.22  1180.41  1188.50  1191.82
eigval :     1197.54  1200.56  1208.18  1213.37  1224.72  1242.16
eigval :     1248.35  1267.38  1274.95  1278.59  1286.27  1301.47
eigval :     1304.16  1313.12  1320.64  1325.28  1327.91  1329.82
eigval :     1335.39  1384.16  1390.85  1398.40  1404.43  1407.56
eigval :     1420.47  1426.60  1431.50  1438.17  1443.81  1454.57
eigval :     1459.97  1462.25  1472.87  1478.53  1482.91  1494.96
eigval :     1500.85  1504.23  1506.05  1519.14  1542.74  1545.29
eigval :     1546.15  1565.78  1569.77  1576.85  1581.01  3030.14
eigval :     3031.64  3036.61  3038.08  3040.29  3040.42  3041.70
eigval :     3043.34  3048.08  3051.06  3062.93  3063.83  3069.30
eigval :     3069.93  3070.16  3071.56  3071.66  3071.81  3072.26
eigval :     3075.49  3082.74  3083.18  3084.01  3085.70  3087.45
eigval :     3088.34  3088.88  3089.37  3092.13  3093.22  3094.27

   temp. (K)  partition function   enthalpy   heat capacity  entropy
                                   cal/mol     cal/K/mol   cal/K/mol   J/K/mol
 298.15  VIB  0.438E+15            18492.486    114.781    115.723
         ROT  0.363E+08              888.752      2.981     37.576
         INT  0.159E+23            19381.238    117.762    153.299
         TR   0.950E+28             1481.254      4.968     44.236
         TOT                       20862.4922   122.7300   197.5353   826.4878

       T/K    H(0)-H(T)+PV         H(T)/Eh          T*S/Eh         G(T)/Eh
   ------------------------------------------------------------------------
    298.15    0.332465E-01    0.563906E+00    0.938554E-01    0.470051E+00
   ------------------------------------------------------------------------

         :::::::::::::::::::::::::::::::::::::::::::::::::::::
         ::                  THERMODYNAMIC                  ::
         :::::::::::::::::::::::::::::::::::::::::::::::::::::
         :: total free energy         -93.236503362117 Eh   ::
         ::.................................................::
         :: total energy              -93.706553957040 Eh   ::
         :: zero point energy           0.530659504882 Eh   ::
         :: G(RRHO) w/o ZPVE           -0.060608909959 Eh   ::
         :: G(RRHO) contrib.            0.470050594923 Eh   ::
         :::::::::::::::::::::::::::::::::::::::::::::::::::::

           -------------------------------------------------
          | TOTAL ENERGY              -93.706553957040 Eh   |
          | TOTAL ENTHALPY            -93.142647954647 Eh   |
          | TOTAL FREE ENERGY         -93.236503362117 Eh   |
          | GRADIENT NORM               0.000090088180 Eh/α |
           -------------------------------------------------

 * finished run on 2025/07/16 at 15:44:20.325
