   * xtb version 6.7.1 (edcfbbe) compiled by 'albert@albert-system' on 2024-07-22

   ID    Z sym.   atoms
    1    6 C      1-3, 6-31, 33-35
    2    8 O      4, 32
    3    5 B      5
    4    1 H      36-66

          program call               : xtb data2507/gas/PTZTPE-2/PTZTPE-2_gas_S0_crest.xyz --gfn 2 --ohess vtight --parallel 40 --molden --ceasefiles --namespace data2507/gas/PTZTPE-2/PTZTPE-2_gas_S0_finalOpt
          :  Hamiltonian                  GFN2-xTB          :
 * total energy  :   -93.7685720 Eh     change       -0.2428663E-08 Eh
 * total energy  :   -93.7685727 Eh     change       -0.6651122E-06 Eh
 * total energy  :   -93.7685735 Eh     change       -0.8728823E-06 Eh
 * total energy  :   -93.7685749 Eh     change       -0.1383166E-05 Eh
 * total energy  :   -93.7685752 Eh     change       -0.3173636E-06 Eh
 * total energy  :   -93.7685756 Eh     change       -0.3132975E-06 Eh
 * total energy  :   -93.7685759 Eh     change       -0.3177782E-06 Eh
 * total energy  :   -93.7685761 Eh     change       -0.2377880E-06 Eh
 * total energy  :   -93.7685763 Eh     change       -0.2023875E-06 Eh
 * total energy  :   -93.7685765 Eh     change       -0.1983377E-06 Eh
 * total energy  :   -93.7685767 Eh     change       -0.2006212E-06 Eh
 * total energy  :   -93.7685769 Eh     change       -0.1884406E-06 Eh
 * total energy  :   -93.7685771 Eh     change       -0.1599155E-06 Eh
 * total energy  :   -93.7685772 Eh     change       -0.1205202E-06 Eh
 * total energy  :   -93.7685773 Eh     change       -0.9327502E-07 Eh
   *** GEOMETRY OPTIMIZATION CONVERGED AFTER 15 ITERATIONS ***

 final structure:
================
66
 xtb: 6.7.1 (edcfbbe)
C            6.40959996476672        1.83464097606653       -0.16134713273996
C            6.08629504981670        0.52181415107227        0.56324877665819
C            6.93721542151457        0.42737436508320        1.82771229755682
O            4.70615731284030        0.57693460571538        0.92222860904703
B            3.99445487382098       -0.20429657950574        0.05721842763975
C            2.43424508775570       -0.27818978382038        0.03178376536530
C            1.65934125393199        0.49757509242039        0.89592294578733
C            0.28125840510115        0.43824778190575        0.87252522754899
C           -0.37540687638982       -0.40495044209236       -0.02294986902821
C           -1.84378200199832       -0.49943645167808       -0.04507592033239
C           -2.64309356823818        0.59041067378375       -0.02240252089797
C           -2.11917142762666        1.95836725694381       -0.16926434475519
C           -1.18439214583094        2.26959203588016       -1.15490665711359
C           -0.71841718456422        3.56259707997372       -1.29512667550181
C           -1.17793590460141        4.56555804698245       -0.45723021490152
C           -2.11662392387302        4.26936592354277        0.51696166279683
C           -2.58947160381741        2.97818422717618        0.65605371314697
C           -4.10253278470740        0.49444004217088        0.14911396025875
C           -4.95200129293680        1.25312548299894       -0.65391393511825
C           -6.32268789947303        1.18014562011493       -0.49249837860218
C           -6.86604007551215        0.36060023842196        0.48276782716540
C           -6.02920730549078       -0.38225404124441        1.29948972722607
C           -4.65886123448258       -0.31700461252376        1.13603801446434
C           -2.38019171189604       -1.87009586306195       -0.09319586154114
C           -1.83823608964631       -2.85990718172366        0.72452240555244
C           -2.32465357392224       -4.15274204699517        0.67910808609002
C           -3.34866826782640       -4.48110804441739       -0.19362606305280
C           -3.87995807986629       -3.50891589955588       -1.02525868368945
C           -3.40082575808949       -2.21387836071276       -0.97742743097902
C            0.39022994145325       -1.19894435043835       -0.87597185924038
C            1.76812585508061       -1.12853373438498       -0.85201872148887
O            4.80250576964428       -0.91550854700653       -0.78364617107902
C            6.15949722973303       -0.73383579068091       -0.38100020623726
C            6.57915363873773       -2.01237237388474        0.35547285618158
C            7.03795767277113       -0.55963603568233       -1.61786843026535
H            6.17712127464260        2.66239796124976        0.50480426028119
H            7.45931940634119        1.88449654532993       -0.43446155092268
H            5.79189674381464        1.93643345280261       -1.05017308920889
H            6.82508681054003        1.34708843756692        2.39654326131870
H            7.98451973908982        0.30041921144375        1.56738380400344
H            6.61697738561687       -0.39717931707163        2.45635992000960
H            2.16066820742937        1.15067733892577        1.59443065731506
H           -0.29906310658340        1.03848625047392        1.55843003417443
H           -0.83254015880051        1.49323398311608       -1.81811645114190
H            0.00513308553455        3.79026667682564       -2.06437676260472
H           -0.81002808363947        5.57517626398129       -0.56671334768384
H           -2.48298600193328        5.04841690580023        1.16994499014014
H           -3.32080033178324        2.74792348003196        1.41820537874983
H           -4.52879164607858        1.89206496883647       -1.41639179731648
H           -6.97014269592723        1.76620303580452       -1.12878714804648
H           -7.93723772738478        0.30526064846601        0.60973997356045
H           -6.44729009409626       -1.01371794360988        2.07001568263775
H           -4.00897988856511       -0.88857867891977        1.78226996324207
H           -1.03920488438807       -2.60402730894871        1.40610170346665
H           -1.90205474410779       -4.90827890316020        1.32568348105505
H           -3.72726151861275       -5.49205614274168       -0.23000595910433
H           -4.67013652082340       -3.76248824543547       -1.71704943945369
H           -3.80937150193337       -1.46161802198351       -1.63612427941371
H           -0.10816204161326       -1.86293927604968       -1.56893572984276
H            2.35380668723056       -1.73863242762558       -1.52338984642816
H            7.61956097676095       -1.96553593269958        0.66254126303177
H            5.94507931202025       -2.17220645119601        1.22400457245029
H            6.44597968895813       -2.85702660840726       -0.31670913331714
H            7.02914464619233       -1.48490994086171       -2.18867842685081
H            6.66342002281028        0.23291684209360       -2.25755991355720
H            8.06031585511078       -0.33731304508098       -1.32448367446519

          :  Hamiltonian                  GFN2-xTB          :
         :: gradient norm              0.000032646113 Eh/a0 ::
         :: HOMO-LUMO gap              2.643637454388 eV    ::
         :: SCC energy               -95.376028813548 Eh    ::
         :: -> dispersion             -0.082213802504 Eh    ::
         :: repulsion energy           1.607451536249 Eh    ::

    * Orbital Energies and Occupations

         #    Occupation            Energy/Eh            Energy/eV
      -------------------------------------------------------------
         1        2.0000           -0.6911123             -18.8061
       ...           ...                  ...                  ...
        75        2.0000           -0.4162123             -11.3257
        76        2.0000           -0.4121291             -11.2146
        77        2.0000           -0.4079189             -11.1000
        78        2.0000           -0.4045748             -11.0090
        79        2.0000           -0.4020000             -10.9390
        80        2.0000           -0.4011588             -10.9161
        81        2.0000           -0.4004199             -10.8960
        82        2.0000           -0.3975449             -10.8177
        83        2.0000           -0.3964054             -10.7867
        84        2.0000           -0.3948980             -10.7457
        85        2.0000           -0.3924166             -10.6782
        86        2.0000           -0.3907469             -10.6328
        87        2.0000           -0.3584410              -9.7537 (HOMO)
        88                         -0.2612891              -7.1100 (LUMO)
        89                         -0.2303469              -6.2681
        90                         -0.2214698              -6.0265
        91                         -0.2205069              -6.0003
        92                         -0.2172929              -5.9128
        93                         -0.2151318              -5.8540
        94                         -0.2103067              -5.7227
        95                         -0.2070167              -5.6332
        96                         -0.1657923              -4.5114
        97                         -0.1260195              -3.4292
        98                         -0.0902381              -2.4555
       ...                                ...                  ...
       171                          0.6982354              19.0000
      -------------------------------------------------------------
                  HL-Gap            0.0971519 Eh            2.6436 eV

     #   Z          covCN         q      C6AA      α(0)
     1   6 C        3.755    -0.115    22.766     6.803
     2   6 C        3.860     0.129    18.455     6.109
     3   6 C        3.755    -0.117    22.794     6.807
     4   8 O        1.638    -0.369    20.275     6.078
     5   5 B        2.661     0.433    15.541     6.636
     6   6 C        2.887    -0.078    29.959     8.974
     7   6 C        2.922    -0.029    28.726     8.789
     8   6 C        2.920    -0.033    28.825     8.804
     9   6 C        2.979     0.017    27.620     8.621
    10   6 C        2.967    -0.006    28.160     8.704
    11   6 C        2.967    -0.006    28.179     8.707
    12   6 C        2.979     0.016    27.657     8.626
    13   6 C        2.924    -0.032    28.796     8.800
    14   6 C        2.919    -0.029    28.736     8.791
    15   6 C        2.920    -0.031    28.783     8.798
    16   6 C        2.918    -0.030    28.752     8.793
    17   6 C        2.925    -0.033    28.810     8.802
    18   6 C        2.979     0.016    27.654     8.626
    19   6 C        2.925    -0.032    28.810     8.802
    20   6 C        2.918    -0.030    28.751     8.793
    21   6 C        2.920    -0.032    28.787     8.798
    22   6 C        2.919    -0.030    28.740     8.791
    23   6 C        2.924    -0.032    28.798     8.800
    24   6 C        2.979     0.016    27.653     8.626
    25   6 C        2.925    -0.032    28.807     8.802
    26   6 C        2.918    -0.030    28.749     8.793
    27   6 C        2.920    -0.032    28.786     8.798
    28   6 C        2.919    -0.030    28.742     8.792
    29   6 C        2.924    -0.032    28.797     8.800
    30   6 C        2.921    -0.034    28.838     8.806
    31   6 C        2.922    -0.029    28.737     8.791
    32   8 O        1.638    -0.369    20.275     6.078
    33   6 C        3.860     0.129    18.456     6.110
    34   6 C        3.755    -0.115    22.766     6.803
    35   6 C        3.755    -0.117    22.794     6.807
    36   1 H        0.925     0.052     2.291     2.367
    37   1 H        0.925     0.043     2.414     2.430
    38   1 H        0.925     0.043     2.410     2.427
    39   1 H        0.925     0.055     2.264     2.353
    40   1 H        0.925     0.040     2.450     2.448
    41   1 H        0.925     0.052     2.300     2.371
    42   1 H        0.926     0.038     2.481     2.463
    43   1 H        0.926     0.030     2.589     2.516
    44   1 H        0.926     0.030     2.593     2.518
    45   1 H        0.926     0.029     2.604     2.524
    46   1 H        0.926     0.029     2.606     2.524
    47   1 H        0.926     0.029     2.607     2.525
    48   1 H        0.926     0.028     2.617     2.530
    49   1 H        0.926     0.028     2.617     2.530
    50   1 H        0.926     0.028     2.608     2.525
    51   1 H        0.926     0.028     2.608     2.525
    52   1 H        0.926     0.029     2.605     2.524
    53   1 H        0.926     0.029     2.603     2.523
    54   1 H        0.926     0.029     2.604     2.524
    55   1 H        0.926     0.029     2.605     2.524
    56   1 H        0.926     0.029     2.606     2.525
    57   1 H        0.926     0.029     2.605     2.524
    58   1 H        0.926     0.029     2.605     2.524
    59   1 H        0.925     0.029     2.601     2.522
    60   1 H        0.926     0.038     2.482     2.464
    61   1 H        0.925     0.043     2.414     2.430
    62   1 H        0.925     0.043     2.410     2.428
    63   1 H        0.925     0.052     2.291     2.367
    64   1 H        0.925     0.055     2.264     2.353
    65   1 H        0.925     0.052     2.300     2.371
    66   1 H        0.925     0.040     2.450     2.448

molecular dipole:
                 x           y           z       tot (Debye)
 q only:        0.721       0.029       0.011
   full:        0.874       0.034       0.014       2.223

 projected vibrational frequencies (cm⁻¹)
eigval :       -0.00    -0.00    -0.00     0.00     0.00     0.00
eigval :       12.88    15.27    21.16    35.59    41.09    49.36
eigval :       53.80    59.19    64.74    65.33    69.75    70.46
eigval :       80.80   115.38   138.80   164.85   173.51   201.01
eigval :      209.56   225.27   237.11   245.70   256.14   269.60
eigval :      271.45   273.90   281.12   284.77   303.36   317.12
eigval :      326.81   361.56   366.29   371.09   372.31   374.60
eigval :      376.68   397.51   407.29   426.62   453.67   463.21
eigval :      491.88   504.89   517.44   554.62   557.60   582.42
eigval :      584.02   586.56   590.67   592.06   603.00   608.28
eigval :      628.11   641.58   670.13   674.17   677.92   686.89
eigval :      695.35   701.85   750.52   759.41   762.64   807.44
eigval :      814.33   848.23   876.86   877.54   877.68   879.77
eigval :      883.73   894.10   901.18   901.74   902.77   904.74
eigval :      924.82   929.44   929.82   929.94   931.30   931.36
eigval :      931.97   933.79   940.91   946.37   950.75   965.99
eigval :      979.47   983.27   992.87   999.74  1005.08  1008.70
eigval :     1030.59  1084.14  1085.01  1085.84  1107.27  1111.60
eigval :     1121.69  1122.85  1123.99  1136.01  1163.16  1164.35
eigval :     1165.09  1182.13  1182.17  1182.20  1197.50  1198.85
eigval :     1199.64  1202.04  1204.53  1213.52  1225.23  1239.96
eigval :     1248.69  1270.88  1280.77  1282.76  1284.32  1289.82
eigval :     1301.81  1310.86  1314.88  1317.93  1319.00  1322.25
eigval :     1384.84  1391.57  1393.80  1399.54  1409.37  1430.04
eigval :     1431.24  1432.09  1462.61  1466.69  1473.25  1474.53
eigval :     1476.53  1478.94  1482.43  1483.36  1495.30  1501.37
eigval :     1506.67  1519.88  1549.84  1578.23  1578.81  1580.15
eigval :     1586.59  1593.15  1595.16  1599.77  1615.13  3030.65
eigval :     3032.30  3037.13  3038.48  3040.83  3040.89  3042.36
eigval :     3043.91  3048.24  3051.12  3063.48  3064.36  3066.91
eigval :     3068.55  3069.30  3069.71  3072.31  3072.76  3072.94
eigval :     3075.93  3079.04  3079.66  3079.85  3085.67  3086.39
eigval :     3086.82  3089.70  3091.45  3091.92  3092.06  3092.78

   temp. (K)  partition function   enthalpy   heat capacity  entropy
                                   cal/mol     cal/K/mol   cal/K/mol   J/K/mol
 298.15  VIB  0.210E+15            18378.081    114.113    115.218
         ROT  0.351E+08              888.752      2.981     37.505
         INT  0.737E+22            19266.833    117.094    152.723
         TR   0.950E+28             1481.254      4.968     44.236
         TOT                       20748.0872   122.0622   196.9591   824.0770

       T/K    H(0)-H(T)+PV         H(T)/Eh          T*S/Eh         G(T)/Eh
   ------------------------------------------------------------------------
    298.15    0.330642E-01    0.566190E+00    0.935816E-01    0.472608E+00
   ------------------------------------------------------------------------

         :::::::::::::::::::::::::::::::::::::::::::::::::::::
         ::                  THERMODYNAMIC                  ::
         :::::::::::::::::::::::::::::::::::::::::::::::::::::
         :: total free energy         -93.295969080900 Eh   ::
         ::.................................................::
         :: total energy              -93.768577277297 Eh   ::
         :: zero point energy           0.533125649448 Eh   ::
         :: G(RRHO) w/o ZPVE           -0.060517453051 Eh   ::
         :: G(RRHO) contrib.            0.472608196397 Eh   ::
         :::::::::::::::::::::::::::::::::::::::::::::::::::::

           -------------------------------------------------
          | TOTAL ENERGY              -93.768577277297 Eh   |
          | TOTAL ENTHALPY            -93.202387446331 Eh   |
          | TOTAL FREE ENERGY         -93.295969080900 Eh   |
          | GRADIENT NORM               0.000032667304 Eh/α |
          | HOMO-LUMO GAP               2.643637468614 eV   |
           -------------------------------------------------

 * finished run on 2025/07/16 at 15:44:12.364
