   * xtb version 6.7.1 (edcfbbe) compiled by 'albert@albert-system' on 2024-07-22

   ID    Z sym.   atoms
    1    6 C      1-3, 6-31, 33-35
    2    8 O      4, 32
    3    5 B      5
    4    1 H      36-66

          program call               : xtb data2507/gas/PTZTPE-2/PTZTPE-2_gas_T1_crest.xyz --gfn 2 --spinpol --tblite --uhf 2 --ohess vtight --parallel 40 --molden --ceasefiles --namespace data2507/gas/PTZTPE-2/PTZTPE-2_gas_T1_finalOpt
 * total energy  :   -93.7064632 Eh     change        0.1214897E-07 Eh
 * total energy  :   -93.7064964 Eh     change       -0.3315584E-04 Eh
 * total energy  :   -93.7065060 Eh     change       -0.9641998E-05 Eh
 * total energy  :   -93.7065092 Eh     change       -0.3199862E-05 Eh
 * total energy  :   -93.7065146 Eh     change       -0.5372913E-05 Eh
 * total energy  :   -93.7065179 Eh     change       -0.3233061E-05 Eh
 * total energy  :   -93.7065200 Eh     change       -0.2099302E-05 Eh
 * total energy  :   -93.7065217 Eh     change       -0.1744941E-05 Eh
 * total energy  :   -93.7065242 Eh     change       -0.2524474E-05 Eh
 * total energy  :   -93.7065277 Eh     change       -0.3467528E-05 Eh
 * total energy  :   -93.7065615 Eh     change       -0.9004042E-06 Eh
 * total energy  :   -93.7065622 Eh     change       -0.7189475E-06 Eh
 * total energy  :   -93.7065627 Eh     change       -0.4895765E-06 Eh
 * total energy  :   -93.7065632 Eh     change       -0.4686081E-06 Eh
 * total energy  :   -93.7065637 Eh     change       -0.4870009E-06 Eh
 * total energy  :   -93.7065640 Eh     change       -0.3039611E-06 Eh
 * total energy  :   -93.7065642 Eh     change       -0.2601249E-06 Eh
 * total energy  :   -93.7065642 Eh     change        0.5747363E-07 Eh
 * total energy  :   -93.7065642 Eh     change       -0.6457996E-07 Eh
   *** GEOMETRY OPTIMIZATION CONVERGED AFTER 45 ITERATIONS ***

 final structure:
================
66
 xtb: 6.7.1 (edcfbbe)
C            6.35250134158723        1.85311024652363       -0.04887787586670
C            5.99120861070264        0.62222695461059        0.79246562117415
C            6.74077480315471        0.68931921133172        2.12124481610168
O            4.58681172367279        0.68519537466305        1.03531734505331
B            3.95670564916691       -0.20172482619984        0.20795756725932
C            2.40834817721526       -0.31011070041443        0.06835457745172
C            1.55172458668952        0.53715216752048        0.78299175872139
C            0.18752297504647        0.44889331275252        0.66037954462707
C           -0.40890237737894       -0.51848831250912       -0.17717166402592
C           -1.82556606251342       -0.57565343403531       -0.31412879740505
C           -2.61001981396232        0.63224656392019        0.01780239738890
C           -2.39520781347963        1.80934575336172       -0.76362858595808
C           -1.85226577001977        1.71016925184487       -2.06039571444001
C           -1.61120310237640        2.83403115910746       -2.81668367926144
C           -1.88063209849406        4.09712400046413       -2.30624130699197
C           -2.38456406008727        4.21914688571691       -1.01869112889030
C           -2.63997098343495        3.10078966053794       -0.25667712526840
C           -3.54316417584211        0.54299337911190        1.09840456606411
C           -4.70064329188653        1.34277854597422        1.15810604479827
C           -5.60431414233944        1.20205146823252        2.18809474512708
C           -5.39110219226891        0.26830695288783        3.19246676994009
C           -4.26622026505188       -0.54429846981253        3.14113143344513
C           -3.36286502611192       -0.42021603665743        2.11056376437517
C           -2.54842886473668       -1.73301040334882       -0.75124408423894
C           -2.06792740420290       -3.03892546718270       -0.53999857107919
C           -2.80663564094032       -4.13466935177517       -0.92961843671557
C           -4.04163212582965       -3.97287860679679       -1.54135325719761
C           -4.54251394220958       -2.69325620249031       -1.73976615542043
C           -3.81773532470584       -1.59209729203590       -1.34407625722124
C            0.45569679385112       -1.35617321303137       -0.91355997607882
C            1.81950367859855       -1.24710357133938       -0.78935730278847
O            4.84051253105166       -0.98358343789597       -0.48243384377468
C            6.15715871409673       -0.72864710356859        0.00444543125389
C            6.53172644754442       -1.90759899818382        0.91179476960499
C            7.13198787556666       -0.67396519839838       -1.16973721333174
H            6.05459938985830        2.74443538901775        0.49868181547214
H            7.42000608924227        1.89720988362030       -0.24246096670998
H            5.80713744703044        1.84008165589874       -0.98928987307565
H            6.56995133145722        1.66367257015844        2.57236929932674
H            7.80721222001469        0.55940842435963        1.95818904133295
H            6.38441944433464       -0.06759046628211        2.81243605326738
H            1.98958250166237        1.27219904005762        1.44186881977543
H           -0.45149408666887        1.10767771158646        1.23110908852843
H           -1.64805676149313        0.73063423639599       -2.46770907909167
H           -1.20821150617920        2.73221044022083       -3.81408639682051
H           -1.68744125225739        4.97750437568847       -2.90063430256306
H           -2.57041392936023        5.20043280008121       -0.60556746939408
H           -2.98482979371487        3.21317880998933        0.76043827672495
H           -4.90464373055777        2.03888344576770        0.35807487904958
H           -6.49139465316348        1.81916699344918        2.20802580459055
H           -6.10044352746467        0.16621396397650        3.99998809814347
H           -4.09902291839816       -1.28006508290778        3.91462805884176
H           -2.48458363579963       -1.04868562106623        2.08247054949229
H           -1.13143414571772       -3.18043918765170       -0.02148299937351
H           -2.42315730629348       -5.12873049869968       -0.74840861784581
H           -4.61382874563095       -4.83529918332737       -1.84886816490256
H           -5.50801664813260       -2.56006294284709       -2.20632165691716
H           -4.20997975155876       -0.59912963282379       -1.51001966550800
H            0.03554648447677       -2.05499397011742       -1.62207752807566
H            2.46680281459361       -1.88848782614573       -1.36925787394755
H            7.54336917736289       -1.80446587254384        1.29244125341893
H            5.83180865673327       -1.98255068572896        1.74033581282646
H            6.46356778005936       -2.82484073239856        0.33122985959834
H            7.18190456868567       -1.65695919881034       -1.63157794893447
H            6.80123353698866        0.03420398985415       -1.92256523186970
H            8.12385491551485       -0.39806732525032       -0.82213972519209

 projected vibrational frequencies (cm⁻¹)
eigval :       -0.00    -0.00    -0.00    -0.00    -0.00     0.00
eigval :       10.43    12.83    19.22    29.03    35.66    45.51
eigval :       51.23    53.62    59.29    66.20    75.46    88.33
eigval :       92.57   112.72   139.24   172.28   183.31   201.09
eigval :      210.81   213.29   228.74   249.88   255.19   271.76
eigval :      272.49   276.81   281.69   288.91   309.73   323.89
eigval :      333.47   362.23   362.88   365.74   371.57   374.21
eigval :      384.88   386.83   401.86   414.54   438.61   452.77
eigval :      472.90   493.32   516.36   518.85   547.22   580.31
eigval :      582.35   583.86   585.67   585.92   597.56   608.71
eigval :      615.18   623.69   656.41   660.36   663.57   685.52
eigval :      688.11   695.05   746.46   748.59   750.89   805.35
eigval :      809.27   837.86   854.73   856.99   867.91   870.81
eigval :      883.77   893.94   895.61   898.79   900.33   906.78
eigval :      921.24   922.30   922.83   923.92   924.33   924.88
eigval :      927.77   942.82   945.50   946.01   950.30   965.69
eigval :      971.37   979.81   984.01   992.46   999.36  1003.40
eigval :     1007.47  1080.38  1081.03  1081.71  1102.49  1104.08
eigval :     1110.56  1121.14  1125.14  1132.50  1140.74  1162.67
eigval :     1164.60  1179.85  1180.20  1180.38  1188.46  1191.81
eigval :     1197.45  1200.70  1208.13  1213.22  1224.68  1241.94
eigval :     1248.22  1267.30  1274.99  1278.53  1286.24  1301.31
eigval :     1304.19  1312.94  1320.24  1325.20  1327.85  1329.47
eigval :     1335.88  1384.16  1390.88  1398.40  1404.43  1407.52
eigval :     1420.36  1426.54  1431.46  1438.18  1443.81  1454.38
eigval :     1459.74  1462.29  1472.96  1478.58  1482.94  1495.00
eigval :     1500.89  1504.41  1506.14  1519.27  1542.83  1545.55
eigval :     1546.48  1565.92  1569.88  1577.03  1581.00  3030.14
eigval :     3031.68  3036.88  3038.40  3040.64  3040.82  3041.81
eigval :     3043.40  3048.42  3051.23  3062.97  3063.89  3069.21
eigval :     3069.81  3070.02  3071.45  3071.56  3071.74  3072.12
eigval :     3075.28  3082.54  3083.04  3083.78  3085.60  3087.30
eigval :     3088.26  3088.74  3089.38  3091.98  3093.10  3094.21

   temp. (K)  partition function   enthalpy   heat capacity  entropy
                                   cal/mol     cal/K/mol   cal/K/mol   J/K/mol
 298.15  VIB  0.445E+15            18495.513    114.754    115.737
         ROT  0.364E+08              888.752      2.981     37.582
         INT  0.162E+23            19384.265    117.735    153.319
         TR   0.950E+28             1481.254      4.968     44.236
         TOT                       20865.5194   122.7029   197.5554   826.5717

       T/K    H(0)-H(T)+PV         H(T)/Eh          T*S/Eh         G(T)/Eh
   ------------------------------------------------------------------------
    298.15    0.332513E-01    0.563909E+00    0.938649E-01    0.470044E+00
   ------------------------------------------------------------------------

         :::::::::::::::::::::::::::::::::::::::::::::::::::::
         ::                  THERMODYNAMIC                  ::
         :::::::::::::::::::::::::::::::::::::::::::::::::::::
         :: total free energy         -93.236520014520 Eh   ::
         ::.................................................::
         :: total energy              -93.706564223274 Eh   ::
         :: zero point energy           0.530657826686 Eh   ::
         :: G(RRHO) w/o ZPVE           -0.060613617932 Eh   ::
         :: G(RRHO) contrib.            0.470044208754 Eh   ::
         :::::::::::::::::::::::::::::::::::::::::::::::::::::

           -------------------------------------------------
          | TOTAL ENERGY              -93.706564223274 Eh   |
          | TOTAL ENTHALPY            -93.142655074955 Eh   |
          | TOTAL FREE ENERGY         -93.236520014520 Eh   |
          | GRADIENT NORM               0.000042285893 Eh/α |
           -------------------------------------------------

 * finished run on 2025/07/16 at 15:46:45.573
