   * xtb version 6.7.1 (edcfbbe) compiled by 'albert@albert-system' on 2024-07-22

   ID    Z sym.   atoms
    1    6 C      1-5, 7-13, 15-22, 24-34, 36-42, 44, 45
    2    7 N      6, 14, 43
    3    8 O      23
    4   16 S      35
    5    1 H      46-68

          program call               : xtb data2507/gas/BTPBFCz/BTPBFCz.xyz --gfn 2 --ohess vtight --parallel 40 --molden --ceasefiles --namespace data2507/gas/BTPBFCz/BTPBFCz_gas_S0_preOpt
          :  Hamiltonian                  GFN2-xTB          :
 * total energy  :  -113.5347294 Eh     change       -0.3034756E-08 Eh
 * total energy  :  -113.5524959 Eh     change       -0.1776642E-01 Eh
 * total energy  :  -113.5582848 Eh     change       -0.5788904E-02 Eh
 * total energy  :  -113.5606539 Eh     change       -0.2369173E-02 Eh
 * total energy  :  -113.5625730 Eh     change       -0.1919042E-02 Eh
 * total energy  :  -113.5636498 Eh     change       -0.1076874E-02 Eh
 * total energy  :  -113.5642689 Eh     change       -0.6190427E-03 Eh
 * total energy  :  -113.5646781 Eh     change       -0.4092292E-03 Eh
 * total energy  :  -113.5648761 Eh     change       -0.1979501E-03 Eh
 * total energy  :  -113.5649846 Eh     change       -0.1085195E-03 Eh
 * total energy  :  -113.5702198 Eh     change       -0.1188948E-05 Eh
 * total energy  :  -113.5702210 Eh     change       -0.1197501E-05 Eh
 * total energy  :  -113.5702222 Eh     change       -0.1197197E-05 Eh
 * total energy  :  -113.5702234 Eh     change       -0.1173657E-05 Eh
 * total energy  :  -113.5702246 Eh     change       -0.1142798E-05 Eh
 * total energy  :  -113.5702256 Eh     change       -0.1092518E-05 Eh
 * total energy  :  -113.5702267 Eh     change       -0.1044725E-05 Eh
 * total energy  :  -113.5702277 Eh     change       -0.9845117E-06 Eh
 * total energy  :  -113.5702277 Eh     change       -0.7466866E-08 Eh
   *** GEOMETRY OPTIMIZATION CONVERGED AFTER 152 ITERATIONS ***

 final structure:
================
68
 xtb: 6.7.1 (edcfbbe)
C            2.75040684436085        2.88295778103346       -1.47507711403332
C            2.54319206491676        1.66138895361112       -2.09580239474037
C            1.33732097503799        1.00407953989903       -1.94866065126508
C            0.31841470907769        1.57698073987934       -1.19120845862767
C           -0.94526529668356        0.86652021129454       -0.99862511718282
N           -0.91858064692017       -0.45358157022453       -1.17689629720530
C           -2.00072383965900       -1.17162938985122       -0.92286043844111
C           -1.83632752456925       -2.63486087061680       -0.89858257075563
C           -2.67919067792041       -3.49291104974831       -1.58925968731444
C           -2.45479420429491       -4.85866918869679       -1.56319733297731
C           -1.39074465369039       -5.37535524576750       -0.84305480014005
C           -0.56010285332559       -4.53226432753423       -0.12391697244622
C           -0.78163882256250       -3.16386699403416       -0.14003778960164
N            0.01816500448542       -2.28866311785233        0.62035340335229
C           -0.50546908471722       -1.35377704387038        1.49278535110949
C           -1.75892467111150       -1.31601901617888        2.08552394362185
C           -2.05118170503081       -0.23902619080257        2.90076176797552
C           -1.11785184011800        0.76871646753120        3.13600822110967
C            0.14298625850149        0.71911889723085        2.57550766432052
C            0.45496760066332       -0.35091466256358        1.74824451970875
C            1.60662707237242       -0.70086789427574        0.97208207650924
C            2.84204376400178       -0.12470084938517        0.71992989354799
O            3.33995087712810        1.02773699574847        1.23738287094563
C            4.56133539268302        1.20250164812931        0.66163349679228
C            5.42837028228232        2.25746588238312        0.87681746178482
C            6.62437629530907        2.24891042356266        0.18043696343146
C            6.94359575756571        1.21894784678152       -0.70017111933420
C            6.07757310334177        0.16406326834912       -0.91244358491389
C            4.87073044493284        0.15171204211466       -0.22576138273078
C            3.73266458769855       -0.72574885412559       -0.18749494205310
C            3.39661919548051       -1.90624682165177       -0.85280276986696
C            2.17152424340568       -2.49332471518216       -0.62342142601165
C            1.29490914198293       -1.89162175492080        0.27722738493438
C           -3.18595424401333       -0.52311503941888       -0.58494195048892
S           -4.74906371536201       -1.18599759850224       -0.20803088557118
C           -5.35554560755547        0.41632875062902        0.16714208460649
C           -6.64354181590906        0.72307871668414        0.57472524570603
C           -6.95149489099249        2.04514695357440        0.83259707328183
C           -5.99466339108313        3.04753520748253        0.68815289692817
C           -4.71281535035582        2.74350594444350        0.28097735647116
C           -4.38393262986555        1.41785202537552        0.01550436677956
C           -3.12450556653848        0.87712855151882       -0.41746515555935
N           -2.00574655344254        1.55911040193680       -0.59950025427767
C            0.52727121988570        2.80901191868335       -0.57671552312746
C            1.74184289529436        3.45271712635831       -0.71425777594950
H            3.70145219469523        3.38512219796502       -1.57878590866310
H            3.33150003709920        1.21708382130791       -2.68575940391487
H            1.16875558320092        0.04335391375917       -2.40977283558888
H           -3.49660973349854       -3.08539192397435       -2.16567896754514
H           -3.10946000945376       -5.51978767978193       -2.11033609376680
H           -1.21332264557264       -6.44028582641540       -0.83005668586174
H            0.25658105800850       -4.92795115803911        0.46134645733778
H           -2.48536878986237       -2.09613316900520        1.90600088974489
H           -3.02718407544441       -0.17389727081180        3.35991851423779
H           -1.39102587800614        1.59881371574221        3.77039663586843
H            0.87266372608812        1.49305861281141        2.75682998651390
H            5.17355895164528        3.05265105994088        1.55904262710308
H            7.32452213354840        3.05849379352368        0.32279808061721
H            7.88683360650590        1.24909402604440       -1.22542353025016
H            6.32775734302566       -0.63309551434189       -1.59602611047507
H            4.09209326927972       -2.34492690625419       -1.55163960698554
H            1.88217008899556       -3.39325566341695       -1.14434148385667
H           -7.38197632600261       -0.05562854301260        0.68629988364404
H           -7.95024181297415        2.30343415531946        1.15134314971441
H           -6.26416029718357        4.07163364720827        0.89768403802324
H           -3.95568841004366        3.50202059899070        0.16090109966945
H           -0.26711995162972        3.23491335926557        0.01623309866296
H            1.90744179291873        4.40132565424469       -0.22457848250291

          :  Hamiltonian                  GFN2-xTB          :
         :: gradient norm              0.000078685342 Eh/a0 ::
         :: HOMO-LUMO gap              2.013951201029 eV    ::
         :: SCC energy              -115.590480523532 Eh    ::
         :: -> dispersion             -0.120029668587 Eh    ::
         :: repulsion energy           2.020252838759 Eh    ::

    * Orbital Energies and Occupations

         #    Occupation            Energy/Eh            Energy/eV
      -------------------------------------------------------------
         1        2.0000           -0.7361247             -20.0310
       ...           ...                  ...                  ...
        93        2.0000           -0.4151805             -11.2976
        94        2.0000           -0.4142350             -11.2719
        95        2.0000           -0.4122686             -11.2184
        96        2.0000           -0.4108690             -11.1803
        97        2.0000           -0.4036456             -10.9838
        98        2.0000           -0.4015831             -10.9276
        99        2.0000           -0.4005865             -10.9005
       100        2.0000           -0.3950760             -10.7506
       101        2.0000           -0.3881968             -10.5634
       102        2.0000           -0.3794810             -10.3262
       103        2.0000           -0.3690393             -10.0421
       104        2.0000           -0.3649757              -9.9315
       105        2.0000           -0.3581988              -9.7471 (HOMO)
       106                         -0.2841874              -7.7331 (LUMO)
       107                         -0.2690929              -7.3224
       108                         -0.2485952              -6.7646
       109                         -0.2426422              -6.6026
       110                         -0.2398556              -6.5268
       111                         -0.2395711              -6.5191
       112                         -0.2355042              -6.4084
       113                         -0.2186628              -5.9501
       114                         -0.2153765              -5.8607
       115                         -0.2125586              -5.7840
       116                         -0.2101928              -5.7196
       ...                                ...                  ...
       208                          0.7725554              21.0223
      -------------------------------------------------------------
                  HL-Gap            0.0740114 Eh            2.0140 eV

     #   Z          covCN         q      C6AA      α(0)
     1   6 C        2.920    -0.023    28.583     8.767
     2   6 C        2.919    -0.026    28.658     8.779
     3   6 C        2.924    -0.024    28.609     8.772
     4   6 C        2.986     0.004    27.924     8.668
     5   6 C        2.954     0.181    24.117     8.055
     6   7 N        1.855    -0.274    27.958     7.837
     7   6 C        2.970     0.111    25.552     8.292
     8   6 C        2.984    -0.002    28.065     8.690
     9   6 C        2.921    -0.027    28.672     8.781
    10   6 C        2.919    -0.030    28.743     8.792
    11   6 C        2.920    -0.026    28.661     8.779
    12   6 C        2.920    -0.039    28.967     8.826
    13   6 C        2.922     0.072    26.380     8.423
    14   7 N        2.803    -0.044    22.094     6.981
    15   6 C        3.089     0.048    26.814     8.488
    16   6 C        2.910    -0.051    29.267     8.871
    17   6 C        2.924    -0.034    28.841     8.807
    18   6 C        2.921    -0.039    28.978     8.828
    19   6 C        2.912    -0.031    28.781     8.797
    20   6 C        3.063    -0.010    28.201     8.708
    21   6 C        3.068    -0.035    28.797     8.799
    22   6 C        3.105     0.128    25.080     8.206
    23   8 O        1.715    -0.223    17.691     5.679
    24   6 C        3.108     0.127    25.080     8.205
    25   6 C        2.909    -0.052    29.298     8.876
    26   6 C        2.926    -0.035    28.882     8.813
    27   6 C        2.921    -0.040    28.991     8.830
    28   6 C        2.913    -0.036    28.889     8.814
    29   6 C        3.062    -0.018    28.390     8.737
    30   6 C        3.053    -0.032    28.743     8.792
    31   6 C        2.916    -0.037    28.913     8.817
    32   6 C        2.911    -0.056    29.387     8.889
    33   6 C        3.077     0.053    26.721     8.475
    34   6 C        2.991     0.001    27.995     8.679
    35  16 S        2.194    -0.087   144.676    20.244
    36   6 C        3.005     0.041    27.074     8.535
    37   6 C        2.934    -0.037    28.914     8.819
    38   6 C        2.924    -0.026    28.642     8.776
    39   6 C        2.919    -0.032    28.788     8.799
    40   6 C        2.916    -0.022    28.556     8.763
    41   6 C        3.103    -0.008    28.091     8.685
    42   6 C        3.113     0.102    25.600     8.289
    43   7 N        1.840    -0.266    27.749     7.807
    44   6 C        2.924    -0.023    28.577     8.767
    45   6 C        2.919    -0.025    28.618     8.773
    46   1 H        0.926     0.033     2.543     2.494
    47   1 H        0.926     0.033     2.542     2.493
    48   1 H        0.926     0.048     2.351     2.398
    49   1 H        0.926     0.045     2.389     2.417
    50   1 H        0.926     0.043     2.407     2.426
    51   1 H        0.926     0.043     2.405     2.425
    52   1 H        0.926     0.048     2.343     2.394
    53   1 H        0.926     0.021     2.719     2.579
    54   1 H        0.926     0.026     2.643     2.542
    55   1 H        0.926     0.029     2.594     2.519
    56   1 H        0.926     0.040     2.451     2.448
    57   1 H        0.926     0.043     2.415     2.430
    58   1 H        0.926     0.036     2.507     2.476
    59   1 H        0.926     0.033     2.540     2.492
    60   1 H        0.926     0.034     2.526     2.485
    61   1 H        0.926     0.038     2.478     2.462
    62   1 H        0.926     0.034     2.533     2.489
    63   1 H        0.926     0.044     2.391     2.418
    64   1 H        0.926     0.042     2.416     2.431
    65   1 H        0.926     0.042     2.426     2.436
    66   1 H        0.926     0.057     2.236     2.339
    67   1 H        0.926     0.051     2.304     2.374
    68   1 H        0.926     0.036     2.505     2.475

molecular dipole:
                 x           y           z       tot (Debye)
 q only:       -0.433      -0.401      -0.267
   full:       -0.782      -0.412      -0.240       2.326

 projected vibrational frequencies (cm⁻¹)
eigval :       -0.00     0.00     0.00     0.00     0.00     0.00
eigval :        9.26    22.60    29.85    36.19    48.90    51.19
eigval :       57.70    62.35    72.35    75.41    91.72   101.61
eigval :      106.84   127.36   136.86   147.80   152.00   176.26
eigval :      183.21   197.65   220.67   233.31   247.00   256.05
eigval :      267.66   282.93   289.34   291.50   313.44   323.47
eigval :      347.06   370.73   375.66   396.66   400.15   408.80
eigval :      413.91   417.57   423.48   437.04   441.02   452.72
eigval :      469.46   478.56   482.34   506.50   511.13   533.83
eigval :      541.46   544.04   558.68   565.22   583.76   588.17
eigval :      595.61   600.73   608.44   611.71   624.83   631.06
eigval :      644.69   653.29   665.71   675.42   681.06   688.96
eigval :      690.84   700.78   703.41   709.40   717.88   726.67
eigval :      732.81   775.04   777.30   778.40   778.69   783.61
eigval :      817.89   828.90   839.23   845.38   858.85   862.16
eigval :      870.99   877.36   877.38   878.39   884.91   894.36
eigval :      901.08   904.83   908.16   911.88   915.00   919.03
eigval :      921.87   923.23   925.61   929.39   929.79   935.50
eigval :      972.93  1001.42  1009.49  1036.44  1062.31  1063.54
eigval :     1067.67  1071.18  1078.12  1086.10  1095.56  1102.97
eigval :     1113.40  1127.01  1139.90  1144.28  1145.34  1174.24
eigval :     1175.76  1176.49  1177.81  1182.01  1183.20  1187.14
eigval :     1196.31  1202.61  1207.94  1214.21  1228.14  1241.18
eigval :     1246.85  1251.68  1262.01  1273.99  1278.34  1303.47
eigval :     1308.57  1311.40  1327.75  1331.04  1337.93  1347.17
eigval :     1356.08  1361.04  1364.18  1398.40  1400.33  1404.35
eigval :     1416.10  1421.62  1431.01  1434.72  1447.26  1460.16
eigval :     1463.00  1469.50  1476.20  1476.47  1486.33  1510.65
eigval :     1522.51  1566.50  1568.96  1572.53  1582.16  1585.19
eigval :     1585.77  1591.49  1593.49  1596.67  1602.21  1611.13
eigval :     1630.30  3067.82  3073.14  3077.90  3078.35  3079.67
eigval :     3082.42  3084.34  3085.04  3085.97  3087.32  3087.82
eigval :     3088.77  3093.06  3093.20  3094.35  3098.76  3100.43
eigval :     3100.63  3101.62  3103.56  3104.31  3105.69  3109.45

   temp. (K)  partition function   enthalpy   heat capacity  entropy
                                   cal/mol     cal/K/mol   cal/K/mol   J/K/mol
 298.15  VIB  0.994E+14            19388.350    126.835    118.900
         ROT  0.429E+08              888.752      2.981     37.906
         INT  0.426E+22            20277.103    129.816    156.805
         TR   0.140E+29             1481.254      4.968     45.007
         TOT                       21758.3567   134.7844   201.8121   844.3819

       T/K    H(0)-H(T)+PV         H(T)/Eh          T*S/Eh         G(T)/Eh
   ------------------------------------------------------------------------
    298.15    0.346741E-01    0.537449E+00    0.958874E-01    0.441562E+00
   ------------------------------------------------------------------------

         :::::::::::::::::::::::::::::::::::::::::::::::::::::
         ::                  THERMODYNAMIC                  ::
         :::::::::::::::::::::::::::::::::::::::::::::::::::::
         :: total free energy        -113.128665820663 Eh   ::
         ::.................................................::
         :: total energy             -113.570227684772 Eh   ::
         :: zero point energy           0.502775163771 Eh   ::
         :: G(RRHO) w/o ZPVE           -0.061213299662 Eh   ::
         :: G(RRHO) contrib.            0.441561864109 Eh   ::
         :::::::::::::::::::::::::::::::::::::::::::::::::::::

           -------------------------------------------------
          | TOTAL ENERGY             -113.570227684772 Eh   |
          | TOTAL ENTHALPY           -113.032778372439 Eh   |
          | TOTAL FREE ENERGY        -113.128665820663 Eh   |
          | GRADIENT NORM               0.000078686720 Eh/α |
          | HOMO-LUMO GAP               2.013951779917 eV   |
           -------------------------------------------------

 * finished run on 2025/09/13 at 05:17:33.954
