   * xtb version 6.7.1 (edcfbbe) compiled by 'albert@albert-system' on 2024-07-22

   ID    Z sym.   atoms
    1    6 C      1-5, 7-13, 15-22, 24-34, 36-42, 44, 45
    2    7 N      6, 14, 43
    3    8 O      23
    4   16 S      35
    5    1 H      46-68

          program call               : xtb data2507/gas/BTPBFCz/BTPBFCz_gas_T1_crest.xyz --gfn 2 --spinpol --tblite --uhf 2 --ohess vtight --parallel 40 --molden --ceasefiles --namespace data2507/gas/BTPBFCz/BTPBFCz_gas_T1_finalOpt
 * total energy  :  -113.4978884 Eh     change        0.1677270E-07 Eh
 * total energy  :  -113.4979512 Eh     change       -0.6278876E-04 Eh
 * total energy  :  -113.4979821 Eh     change       -0.3085703E-04 Eh
 * total energy  :  -113.4979860 Eh     change       -0.3939116E-05 Eh
 * total energy  :  -113.4979893 Eh     change       -0.3315038E-05 Eh
 * total energy  :  -113.4979912 Eh     change       -0.1906452E-05 Eh
 * total energy  :  -113.4979927 Eh     change       -0.1506754E-05 Eh
 * total energy  :  -113.4979934 Eh     change       -0.6416978E-06 Eh
 * total energy  :  -113.4979934 Eh     change       -0.2430333E-07 Eh
 * total energy  :  -113.4979937 Eh     change       -0.2905470E-06 Eh
 * total energy  :  -113.4979947 Eh     change       -0.1623945E-06 Eh
 * total energy  :  -113.4979948 Eh     change       -0.1382479E-06 Eh
 * total energy  :  -113.4979950 Eh     change       -0.1606974E-06 Eh
 * total energy  :  -113.4979952 Eh     change       -0.1785269E-06 Eh
 * total energy  :  -113.4979953 Eh     change       -0.1668621E-06 Eh
 * total energy  :  -113.4979955 Eh     change       -0.1586871E-06 Eh
 * total energy  :  -113.4979956 Eh     change       -0.1051874E-06 Eh
 * total energy  :  -113.4979955 Eh     change        0.4796178E-07 Eh
 * total energy  :  -113.4979956 Eh     change       -0.5463781E-07 Eh
   *** GEOMETRY OPTIMIZATION CONVERGED AFTER 23 ITERATIONS ***

 final structure:
================
68
 xtb: 6.7.1 (edcfbbe)
C            3.29750820965230       -1.29571007939088       -2.60305188201998
C            2.56289626758980       -2.28994775723794       -1.97646547206371
C            1.26853173681518       -2.03728662927918       -1.56512293581338
C            0.70600217748843       -0.77928740149157       -1.76367473744197
C           -0.63789691496876       -0.50671920601629       -1.25647109917088
N           -0.93050632665135        0.69963202693084       -0.83403083125792
C           -2.10003195465330        1.02372865437492       -0.20997743224579
C           -2.15602459886290        2.26495216702847        0.49701874810858
C           -3.36315945443147        2.88760245739051        0.86503369546557
C           -3.38022250504292        4.11181764315744        1.48872473141642
C           -2.19257677492015        4.77510823725144        1.78274388729797
C           -0.98819484476019        4.18332975853729        1.44631677460976
C           -0.95137592504022        2.94427890006838        0.82705930376473
N            0.30200928051860        2.38238461176189        0.53555194683341
C            1.27415489571369        3.00790005534334       -0.20983718823410
C            1.21025879889483        4.20259120647636       -0.91604075147938
C            2.33745669325658        4.59872948446915       -1.61032998146379
C            3.49995646228501        3.82891623026342       -1.61125703847619
C            3.56473309658962        2.62890289868581       -0.92668259564782
C            2.44361236555512        2.21152226406619       -0.22688846654711
C            2.13838223236343        1.04604173990227        0.55057656954107
C            2.78920827874895       -0.13909263363599        0.84725595423592
O            4.02184840205961       -0.52993509124012        0.44145751364822
C            4.19345831078539       -1.79438127182219        0.92112861850020
C            5.29890207861404       -2.60131671280539        0.73109601443061
C            5.26845513538108       -3.86307127032727        1.30026647550790
C            4.17020275887021       -4.30126181772992        2.03523985381933
C            3.06649678354478       -3.49297627323199        2.22582936692331
C            3.07376311730779       -2.22291672748290        1.66312613445755
C            2.14521907706281       -1.12731969184395        1.61885466671114
C            0.86673623593003       -0.91505343164562        2.13787369617252
C            0.20090706500816        0.25761666426748        1.85443227276328
C            0.81841012701032        1.20142216625723        1.03266994542413
C           -3.09492534670196        0.02016827460824       -0.21106833389007
S           -4.72366852709286        0.05097426548387        0.40444794693716
C           -4.95629836990106       -1.63405548230099       -0.01699567702825
C           -6.10055495150386       -2.37944828159475        0.18554725841743
C           -6.10333731265614       -3.70178746306837       -0.22454756762627
C           -4.97715847841366       -4.26434973135392       -0.82563091262227
C           -3.83471248683341       -3.52429093724327       -1.02826645947613
C           -3.81065321314071       -2.18449277990919       -0.62616512464617
C           -2.75418648907895       -1.24112134263381       -0.72212486535644
N           -1.51863617750452       -1.48955186352281       -1.21483127588956
C            1.44580916408208        0.21470910721907       -2.39572916387880
C            2.73453361133776       -0.04853587643652       -2.81925514699718
H            4.31036586324637       -1.49396357600861       -2.92130763749055
H            3.00388980410310       -3.26077355955986       -1.80198662257752
H            0.68422432599392       -2.79925429089924       -1.07178960641094
H           -4.29792630138844        2.41162291325843        0.61856540266125
H           -4.32589570421721        4.56609926907627        1.74352971243622
H           -2.20644436708972        5.73381122847757        2.27658064708467
H           -0.05353418112802        4.66738535781126        1.69230660633230
H            0.30850544435466        4.79565632119276       -0.92583540384768
H            2.31733000951365        5.52392911517499       -2.16665865523344
H            4.35994638391349        4.17677963850455       -2.16400489510772
H            4.45661995508075        2.02196058699581       -0.93378136324328
H            6.14545697824932       -2.25572558186773        0.15987177538144
H            6.11438624084485       -4.52109704447172        1.17053311992717
H            4.18511308763787       -5.29284232115086        2.46242287078930
H            2.21598252358006       -3.83531905831597        2.79499882421135
H            0.40171140050827       -1.67340487798448        2.74807889862084
H           -0.79257440136704        0.43592768554612        2.23643845618563
H           -6.96683663831453       -1.93760789668219        0.65343211948043
H           -6.98743585686574       -4.30278508365241       -0.07611371902799
H           -5.00710305460517       -5.29786557061293       -1.13785648456932
H           -2.95844603356925       -3.94716267056076       -1.49417839772951
H            0.99985119487930        1.18523624203211       -2.55360979910182
H            3.30466730913399        0.72561056919675       -3.31119576408269

 projected vibrational frequencies (cm⁻¹)
eigval :       -0.00    -0.00     0.00     0.00     0.00     0.00
eigval :        9.88    22.53    32.21    41.11    51.31    52.53
eigval :       60.44    71.97    74.53    81.79    89.59   109.18
eigval :      110.31   127.66   130.87   152.07   159.50   175.21
eigval :      181.92   197.35   207.93   237.87   240.54   248.66
eigval :      259.44   265.66   279.14   301.40   313.37   328.13
eigval :      348.23   375.15   377.91   388.23   397.11   404.43
eigval :      409.48   410.76   417.80   433.35   439.59   453.35
eigval :      466.56   473.07   478.62   502.71   511.77   527.80
eigval :      537.17   540.19   542.44   555.80   563.40   579.29
eigval :      585.83   587.18   594.39   597.62   602.45   622.52
eigval :      632.75   642.95   643.90   653.90   665.40   670.28
eigval :      680.16   682.77   688.05   699.47   703.77   710.06
eigval :      722.06   760.85   764.29   765.89   775.82   777.22
eigval :      819.94   826.60   828.94   840.11   843.74   850.60
eigval :      861.41   863.26   871.13   873.31   878.73   897.17
eigval :      897.64   900.09   902.29   906.72   907.80   909.97
eigval :      914.19   916.34   922.08   922.54   930.16   933.97
eigval :      953.18   989.35  1000.04  1033.40  1041.87  1061.93
eigval :     1065.36  1066.44  1073.14  1079.08  1095.60  1095.97
eigval :     1112.81  1121.60  1134.72  1139.89  1143.09  1160.79
eigval :     1172.46  1174.09  1175.36  1180.58  1181.04  1184.35
eigval :     1185.81  1201.49  1204.47  1208.15  1214.19  1231.52
eigval :     1235.09  1249.10  1256.03  1274.24  1276.15  1286.32
eigval :     1301.26  1304.90  1324.10  1326.88  1342.37  1345.10
eigval :     1346.95  1348.10  1354.16  1355.80  1380.32  1394.68
eigval :     1399.27  1408.54  1412.76  1418.29  1426.78  1431.61
eigval :     1434.20  1446.76  1455.60  1475.04  1480.77  1483.25
eigval :     1490.82  1513.59  1547.37  1561.80  1563.86  1573.51
eigval :     1575.48  1584.37  1586.49  1592.49  1596.33  1606.18
eigval :     1620.43  3074.27  3075.06  3079.85  3080.10  3081.27
eigval :     3082.79  3085.84  3088.33  3088.68  3088.80  3090.42
eigval :     3092.00  3094.48  3096.88  3097.43  3098.39  3098.48
eigval :     3101.28  3102.56  3102.92  3103.61  3107.60  3117.89

   temp. (K)  partition function   enthalpy   heat capacity  entropy
                                   cal/mol     cal/K/mol   cal/K/mol   J/K/mol
 298.15  VIB  0.660E+14            19552.866    128.724    119.467
         ROT  0.467E+08              888.752      2.981     38.072
         INT  0.308E+22            20441.618    131.705    157.539
         TR   0.140E+29             1481.254      4.968     45.007
         TOT                       21922.8720   136.6729   202.5460   847.4525

       T/K    H(0)-H(T)+PV         H(T)/Eh          T*S/Eh         G(T)/Eh
   ------------------------------------------------------------------------
    298.15    0.349363E-01    0.534754E+00    0.962361E-01    0.438518E+00
   ------------------------------------------------------------------------

         :::::::::::::::::::::::::::::::::::::::::::::::::::::
         ::                  THERMODYNAMIC                  ::
         :::::::::::::::::::::::::::::::::::::::::::::::::::::
         :: total free energy        -113.059478072496 Eh   ::
         ::.................................................::
         :: total energy             -113.497995587479 Eh   ::
         :: zero point energy           0.499817338223 Eh   ::
         :: G(RRHO) w/o ZPVE           -0.061299823241 Eh   ::
         :: G(RRHO) contrib.            0.438517514983 Eh   ::
         :::::::::::::::::::::::::::::::::::::::::::::::::::::

           -------------------------------------------------
          | TOTAL ENERGY             -113.497995587479 Eh   |
          | TOTAL ENTHALPY           -112.963241928989 Eh   |
          | TOTAL FREE ENERGY        -113.059478072496 Eh   |
          | GRADIENT NORM               0.000055466873 Eh/α |
           -------------------------------------------------

 * finished run on 2025/09/13 at 05:26:07.141
