   * xtb version 6.7.1 (edcfbbe) compiled by 'albert@albert-system' on 2024-07-22

   ID    Z sym.   atoms
    1    6 C      1-5, 7-13, 15-22, 24-34, 36-42, 44, 45
    2    7 N      6, 14, 43
    3    8 O      23
    4   16 S      35
    5    1 H      46-68

          program call               : xtb data2507/gas/BTPBFCz/BTPBFCz_gas_S0_finalOpt.xtbopt.xyz --gfn 2 --spinpol --tblite --uhf 2 --ohess vtight --parallel 40 --molden --ceasefiles --namespace data2507/gas/BTPBFCz/BTPBFCz_gas_T1_preOpt
 * total energy  :  -113.4864861 Eh     change       -0.1707123E-07 Eh
 * total energy  :  -113.4911018 Eh     change       -0.4615676E-02 Eh
 * total energy  :  -113.4927236 Eh     change       -0.1621822E-02 Eh
 * total energy  :  -113.4930194 Eh     change       -0.2958054E-03 Eh
 * total energy  :  -113.4935066 Eh     change       -0.4872408E-03 Eh
 * total energy  :  -113.4937971 Eh     change       -0.2904355E-03 Eh
 * total energy  :  -113.4940960 Eh     change       -0.2988961E-03 Eh
 * total energy  :  -113.4943298 Eh     change       -0.2337923E-03 Eh
 * total energy  :  -113.4944768 Eh     change       -0.1470546E-03 Eh
 * total energy  :  -113.4945910 Eh     change       -0.1141735E-03 Eh
 * total energy  :  -113.4973292 Eh     change       -0.8329824E-06 Eh
 * total energy  :  -113.4973290 Eh     change        0.2637340E-06 Eh
 * total energy  :  -113.4973297 Eh     change       -0.7603447E-06 Eh
 * total energy  :  -113.4973305 Eh     change       -0.7858489E-06 Eh
 * total energy  :  -113.4973313 Eh     change       -0.7769172E-06 Eh
 * total energy  :  -113.4973321 Eh     change       -0.7663289E-06 Eh
 * total energy  :  -113.4973328 Eh     change       -0.7706269E-06 Eh
 * total energy  :  -113.4973336 Eh     change       -0.7293739E-06 Eh
 * total energy  :  -113.4973336 Eh     change       -0.3780448E-07 Eh
   *** GEOMETRY OPTIMIZATION CONVERGED AFTER 340 ITERATIONS ***

 final structure:
================
68
 xtb: 6.7.1 (edcfbbe)
C            3.18354291338914        2.55964203650690       -1.14801015007361
C            2.94111865874466        1.29039679785032       -1.64785690335386
C            1.66198060655830        0.76897598639893       -1.62337392929033
C            0.60894246564943        1.52664709365332       -1.11843994630621
C           -0.74095326797860        0.96463757020843       -1.07510578070118
N           -0.87069218610269       -0.32857140757441       -0.91675272674744
C           -2.06907004787850       -0.96970102930626       -0.80858817234318
C           -2.04096580981282       -2.32773439797596       -0.35667471858439
C           -3.03087234504243       -3.27638742289197       -0.65705013922340
C           -2.87658630898440       -4.59448860690309       -0.29431131168593
C           -1.73872098546870       -5.01790599503373        0.38666657438571
C           -0.76881698451029       -4.09360429658923        0.73949749313715
C           -0.91699094572928       -2.76157481658101        0.39856085050667
N            0.00342843365158       -1.80392962592954        0.85328665799303
C           -0.33520558585701       -0.72504694413155        1.65002863877184
C           -1.57035370330481       -0.36934605883841        2.17168521124297
C           -1.64353151825434        0.80578487370439        2.89741445469827
C           -0.51957712089210        1.59903886903287        3.11311180339895
C            0.72101472591032        1.23076040900105        2.62413810193245
C            0.81440900306565        0.05798288170454        1.89193100528627
C            1.89571252794848       -0.61246827213088        1.22940735179759
C            3.24045126094976       -0.35751502508190        1.03246953802125
O            3.95856260420498        0.69815216483297        1.48814929197398
C            5.21847258796006        0.53880903679124        0.99536335620914
C            6.28959758183067        1.39065528156931        1.18796464797450
C            7.49003642575597        1.04530799760100        0.59127887210947
C            7.61550312154059       -0.11331520154555       -0.17113309903324
C            6.54492914566808       -0.96428383874132       -0.36280554437225
C            5.32896042124527       -0.63782433815548        0.22528412519471
C            4.02118224908205       -1.23170347713078        0.24745607503743
C            3.46007965278750       -2.36586001122634       -0.34409566519069
C            2.12021523280391       -2.63460706379516       -0.16891375145016
C            1.35350522495511       -1.76450664425077        0.60895822852980
C           -3.21197314829296       -0.17534754292439       -1.01754332479796
S           -4.89270347511395       -0.62275349995361       -0.99104867219961
C           -5.37191884348611        1.05235357336765       -1.19148593441932
C           -6.66484463191884        1.53109711216833       -1.25705146755761
C           -6.85404478694598        2.89271448360892       -1.42357282927623
C           -5.76343677141628        3.75689839650762       -1.52231151179937
C           -4.47305170964889        3.28355011832893       -1.45769045073125
C           -4.25691604757216        1.91063488466013       -1.29308568432610
C           -3.03014210640404        1.20642801588731       -1.18579673766506
N           -1.79117211433232        1.75567001038185       -1.20771076044139
C            0.85254106168158        2.80844818829924       -0.63601148029964
C            2.13822444544124        3.31552705017896       -0.64178236552872
H            4.18801345616235        2.95759955935553       -1.15375204311479
H            3.75440238381376        0.70439029439457       -2.05129776338328
H            1.46372212981876       -0.22395347012267       -1.99827082579388
H           -3.90253390065364       -2.97070569385060       -1.21398131416755
H           -3.64184866014971       -5.31092623864226       -0.55286192242051
H           -1.62120078762554       -6.05450606585086        0.66076685432961
H            0.09353816098572       -4.39466955602526        1.31723116103022
H           -2.44446624019775       -0.98241969435470        2.01242588249072
H           -2.59502503539619        1.11525250915615        3.30345861456958
H           -0.62190741533134        2.51389079010595        3.67728664798692
H            1.59768364325574        1.83596876748838        2.79467983601328
H            6.18508319669498        2.28621810916611        1.77911216087356
H            8.34736613385598        1.68858962167591        0.71970883095723
H            8.56942751265482       -0.34678874251807       -0.61977166932551
H            6.64430318178398       -1.86114785376796       -0.95482259185914
H            4.07504016819669       -3.01615665732365       -0.94643404623515
H            1.65938722185042       -3.49032839665761       -0.63746506043793
H           -7.50346379022661        0.85657460120921       -1.17712107125355
H           -7.85699650494297        3.28788781023837       -1.47608439002517
H           -5.93899044481891        4.81456531275289       -1.65319862292590
H           -3.62161125904945        3.94146178681190       -1.53455335420790
H            0.02779821568270        3.38629524932477       -0.24734815301194
H            2.32829375237153        4.30491833119129       -0.25228064415630

 projected vibrational frequencies (cm⁻¹)
eigval :       -0.00    -0.00    -0.00    -0.00    -0.00     0.00
eigval :       10.71    17.51    30.22    35.92    46.15    53.07
eigval :       58.34    64.61    70.33    80.61   100.60   104.35
eigval :      108.41   129.79   130.07   148.70   153.40   174.55
eigval :      177.96   196.08   213.72   231.54   237.90   246.36
eigval :      264.84   268.92   283.14   293.06   312.83   334.45
eigval :      345.27   374.17   375.70   387.14   397.19   402.44
eigval :      409.12   412.07   417.65   432.13   441.10   453.51
eigval :      467.03   471.56   478.15   503.16   510.27   527.86
eigval :      534.33   539.52   542.49   557.57   563.52   578.26
eigval :      584.62   586.31   593.42   596.58   604.53   625.25
eigval :      632.52   637.46   648.39   655.11   664.01   669.33
eigval :      680.32   683.04   690.02   698.28   703.40   711.43
eigval :      721.15   762.44   764.79   766.33   774.86   777.33
eigval :      820.18   823.52   830.92   840.90   843.89   855.75
eigval :      861.08   862.13   871.83   872.23   878.91   893.91
eigval :      896.47   902.48   903.38   904.25   905.06   912.92
eigval :      914.34   915.82   921.41   923.02   929.06   937.00
eigval :      954.87   990.26  1001.49  1030.41  1041.22  1061.80
eigval :     1066.30  1068.49  1074.62  1079.18  1086.30  1096.33
eigval :     1111.63  1124.94  1133.08  1138.07  1141.52  1161.10
eigval :     1171.98  1173.61  1175.46  1180.33  1181.33  1183.84
eigval :     1185.39  1198.80  1203.72  1204.83  1213.23  1231.56
eigval :     1236.38  1249.37  1252.32  1274.45  1275.33  1286.28
eigval :     1300.61  1301.40  1324.03  1326.94  1341.94  1342.59
eigval :     1347.52  1353.05  1354.79  1359.53  1380.40  1393.54
eigval :     1398.64  1407.75  1411.96  1419.95  1425.96  1433.82
eigval :     1434.69  1448.19  1456.14  1474.85  1478.66  1482.77
eigval :     1493.00  1516.27  1546.10  1558.86  1563.83  1576.33
eigval :     1578.13  1584.51  1587.58  1591.60  1596.40  1605.79
eigval :     1623.93  3072.40  3074.80  3078.46  3079.70  3081.95
eigval :     3083.47  3084.53  3087.02  3088.31  3088.41  3090.65
eigval :     3093.37  3093.87  3096.27  3097.47  3098.07  3098.67
eigval :     3098.98  3102.22  3103.10  3103.84  3105.15  3108.13

   temp. (K)  partition function   enthalpy   heat capacity  entropy
                                   cal/mol     cal/K/mol   cal/K/mol   J/K/mol
 298.15  VIB  0.123E+15            19606.760    128.394    119.959
         ROT  0.463E+08              888.752      2.981     38.058
         INT  0.570E+22            20495.512    131.375    158.017
         TR   0.140E+29             1481.254      4.968     45.007
         TOT                       21976.7663   136.3435   203.0235   849.4503

       T/K    H(0)-H(T)+PV         H(T)/Eh          T*S/Eh         G(T)/Eh
   ------------------------------------------------------------------------
    298.15    0.350222E-01    0.534673E+00    0.964630E-01    0.438210E+00
   ------------------------------------------------------------------------

         :::::::::::::::::::::::::::::::::::::::::::::::::::::
         ::                  THERMODYNAMIC                  ::
         :::::::::::::::::::::::::::::::::::::::::::::::::::::
         :: total free energy        -113.059123255747 Eh   ::
         ::.................................................::
         :: total energy             -113.497333611621 Eh   ::
         :: zero point energy           0.499651159241 Eh   ::
         :: G(RRHO) w/o ZPVE           -0.061440803367 Eh   ::
         :: G(RRHO) contrib.            0.438210355874 Eh   ::
         :::::::::::::::::::::::::::::::::::::::::::::::::::::

           -------------------------------------------------
          | TOTAL ENERGY             -113.497333611621 Eh   |
          | TOTAL ENTHALPY           -112.962660246059 Eh   |
          | TOTAL FREE ENERGY        -113.059123255747 Eh   |
          | GRADIENT NORM               0.000084594699 Eh/α |
           -------------------------------------------------

 * finished run on 2025/09/13 at 05:21:19.423
