   * xtb version 6.7.1 (edcfbbe) compiled by 'albert@albert-system' on 2024-07-22

   ID    Z sym.   atoms
    1    6 C      1-5, 7-13, 15-22, 24-34, 36-42, 44, 45
    2    7 N      6, 14, 43
    3    8 O      23
    4   16 S      35
    5    1 H      46-68

          program call               : xtb data2507/gas/BTPBFCz/BTPBFCz_gas_S0_crest.xyz --gfn 2 --ohess vtight --parallel 40 --molden --ceasefiles --namespace data2507/gas/BTPBFCz/BTPBFCz_gas_S0_finalOpt
          :  Hamiltonian                  GFN2-xTB          :
 * total energy  :  -113.5703484 Eh     change       -0.7370289E-08 Eh
 * total energy  :  -113.5703497 Eh     change       -0.1369274E-05 Eh
 * total energy  :  -113.5703516 Eh     change       -0.1839427E-05 Eh
 * total energy  :  -113.5703531 Eh     change       -0.1477312E-05 Eh
 * total energy  :  -113.5703537 Eh     change       -0.6784494E-06 Eh
 * total energy  :  -113.5703544 Eh     change       -0.6547810E-06 Eh
 * total energy  :  -113.5703550 Eh     change       -0.6531164E-06 Eh
 * total energy  :  -113.5703554 Eh     change       -0.3486282E-06 Eh
 * total energy  :  -113.5703556 Eh     change       -0.2523909E-06 Eh
 * total energy  :  -113.5703559 Eh     change       -0.2548385E-06 Eh
 * total energy  :  -113.5703564 Eh     change       -0.2869586E-06 Eh
 * total energy  :  -113.5703567 Eh     change       -0.2551551E-06 Eh
 * total energy  :  -113.5703569 Eh     change       -0.2142738E-06 Eh
 * total energy  :  -113.5703571 Eh     change       -0.2005650E-06 Eh
 * total energy  :  -113.5703573 Eh     change       -0.1972611E-06 Eh
 * total energy  :  -113.5703575 Eh     change       -0.1970587E-06 Eh
 * total energy  :  -113.5703577 Eh     change       -0.1715020E-06 Eh
 * total energy  :  -113.5703578 Eh     change       -0.1186305E-06 Eh
 * total energy  :  -113.5703579 Eh     change       -0.6986750E-07 Eh
   *** GEOMETRY OPTIMIZATION CONVERGED AFTER 20 ITERATIONS ***

 final structure:
================
68
 xtb: 6.7.1 (edcfbbe)
C            3.51541242382072        2.14643447373919       -1.88649200296784
C            3.12207484260141        0.89266260188196       -2.32689472718171
C            1.82512102762880        0.46220228378939       -2.12682044384475
C            0.90384753343880        1.29392806670074       -1.49455078679819
C           -0.45850623168430        0.82597459682402       -1.24353764473371
N           -0.64486121095854       -0.49368224655059       -1.24611765281915
C           -1.83395949550225       -0.98776776843380       -0.94201656393545
C           -1.90373198428651       -2.44103532817424       -0.70701884560278
C           -2.80915943936228       -3.26907028334503       -1.35184390678879
C           -2.79000264709733       -4.63345412400726       -1.11597312485263
C           -1.87065446732029       -5.17526905354698       -0.23351930322796
C           -0.98235842735384       -4.35425641745234        0.44167794177718
C           -1.00071036947096       -2.98723733718387        0.21660940068300
N           -0.15216996302088       -2.11323384802464        0.92723171818738
C           -0.62936343356615       -1.01437543338328        1.61706107584826
C           -1.90650534199403       -0.77552497021801        2.10246488741628
C           -2.13806370512871        0.43214694134654        2.73318098968264
C           -1.12357827119473        1.37404880794751        2.89323360659711
C            0.15816345140775        1.12674391620755        2.44320215719850
C            0.41095529365944       -0.07793602903370        1.80150095488336
C            1.56671695964501       -0.64454007006341        1.17292481136418
C            2.86940078877699       -0.23123397585677        0.94087659897703
O            3.45043982064862        0.93298021966490        1.32928200334711
C            4.71872508845797        0.90413970602162        0.83519568822306
C            5.67499986589598        1.89327169033416        0.96869860613076
C            6.90624793837080        1.67001380577862        0.37750322746070
C            7.17249895250692        0.49617540271684       -0.32196867273586
C            6.21689437212486       -0.49272427216370       -0.45187014460951
C            4.97348538930354       -0.29072909306077        0.13198307349756
C            3.74944918870313       -1.04141488359035        0.20156572571842
C            3.33520566955752       -2.27038230400502       -0.31529295056512
C            2.04274220911710       -2.69849426775791       -0.10455224632453
C            1.17740733668073       -1.89009946294858        0.62946843364670
C           -2.90263679412590       -0.11951717835751       -0.73589889572860
S           -4.55816206357040       -0.46865297701303       -0.33499478835197
C           -4.89186097587757        1.24395314023744       -0.15667511214985
C           -6.11210365366710        1.80324316480475        0.18589556846969
C           -6.19583156320619        3.17840904775348        0.29157001030673
C           -5.08466299960583        3.98633888215136        0.05985896631025
C           -3.87034211134300        3.43094043633855       -0.28392961323189
C           -3.76648294227179        2.04799224379842       -0.39543567467373
C           -2.61186235097096        1.26174324281179       -0.73299023089908
N           -1.39482479086477        1.72526570843964       -0.96443248682624
C            1.30064632066788        2.55642990028510       -1.06093834462475
C            2.60312887304449        2.97497989126886       -1.25248906856425
H            4.53550720911436        2.47235202244759       -2.02961155232865
H            3.83532290433153        0.24657533554990       -2.81725930268380
H            1.50890256090116       -0.51800031321397       -2.44782493357465
H           -3.51245446894561       -2.84507416690959       -2.05334342675515
H           -3.49161323149899       -5.27516221284412       -1.62692417930206
H           -1.85293214073882       -6.24057120565911       -0.05872620811669
H           -0.27957940255176       -4.76434166800201        1.15154911526780
H           -2.69557882366584       -1.50367952335042        1.97788136884749
H           -3.12896138496642        0.65362789817150        3.10297842535821
H           -1.34994939700484        2.31066694852230        3.38074185639366
H            0.94997675937045        1.84882939576797        2.56918588982551
H            5.46069076445521        2.80076114201841        1.51013900070680
H            7.67619897193382        2.42254604544502        0.45993937459261
H            8.14568019714708        0.36014880913057       -0.77025977631574
H            6.42656645527808       -1.40175726874188       -0.99496680916753
H            4.02510558923334       -2.87175212605302       -0.88697786556383
H            1.69452697174628       -3.63453154136014       -0.51387576564798
H           -6.97049472411952        1.17489575443703        0.36604135867869
H           -7.13830794174403        3.63223591882440        0.55914957066260
H           -5.17990850976545        5.05771540231308        0.15155949274159
H           -2.99651935405714        4.03531845240096       -0.46866795614117
H            0.57890512815885        3.18482317019228       -0.56285719730177
H            2.91360647587503        3.94871492464495       -0.90266462176366

          :  Hamiltonian                  GFN2-xTB          :
         :: gradient norm              0.000034005538 Eh/a0 ::
         :: HOMO-LUMO gap              2.046098201618 eV    ::
         :: SCC energy              -115.590804932533 Eh    ::
         :: -> dispersion             -0.121387199798 Eh    ::
         :: repulsion energy           2.020447064926 Eh    ::

    * Orbital Energies and Occupations

         #    Occupation            Energy/Eh            Energy/eV
      -------------------------------------------------------------
         1        2.0000           -0.7358217             -20.0227
       ...           ...                  ...                  ...
        93        2.0000           -0.4150297             -11.2935
        94        2.0000           -0.4143033             -11.2738
        95        2.0000           -0.4126245             -11.2281
        96        2.0000           -0.4106548             -11.1745
        97        2.0000           -0.4038153             -10.9884
        98        2.0000           -0.4021597             -10.9433
        99        2.0000           -0.4007289             -10.9044
       100        2.0000           -0.3944555             -10.7337
       101        2.0000           -0.3882656             -10.5652
       102        2.0000           -0.3791795             -10.3180
       103        2.0000           -0.3693935             -10.0517
       104        2.0000           -0.3645143              -9.9189
       105        2.0000           -0.3586062              -9.7582 (HOMO)
       106                         -0.2834135              -7.7121 (LUMO)
       107                         -0.2689629              -7.3189
       108                         -0.2484707              -6.7612
       109                         -0.2424693              -6.5979
       110                         -0.2400765              -6.5328
       111                         -0.2393454              -6.5129
       112                         -0.2355848              -6.4106
       113                         -0.2187158              -5.9516
       114                         -0.2153394              -5.8597
       115                         -0.2143295              -5.8322
       116                         -0.2102298              -5.7206
       ...                                ...                  ...
       208                          0.7725045              21.0209
      -------------------------------------------------------------
                  HL-Gap            0.0751927 Eh            2.0461 eV

     #   Z          covCN         q      C6AA      α(0)
     1   6 C        2.920    -0.024    28.604     8.771
     2   6 C        2.919    -0.026    28.664     8.780
     3   6 C        2.924    -0.025    28.622     8.773
     4   6 C        2.986     0.004    27.932     8.669
     5   6 C        2.954     0.181    24.117     8.055
     6   7 N        1.855    -0.274    27.970     7.839
     7   6 C        2.971     0.111    25.549     8.291
     8   6 C        2.985    -0.001    28.054     8.688
     9   6 C        2.920    -0.027    28.666     8.780
    10   6 C        2.919    -0.029    28.737     8.791
    11   6 C        2.920    -0.027    28.666     8.780
    12   6 C        2.919    -0.039    28.958     8.825
    13   6 C        2.923     0.072    26.381     8.423
    14   7 N        2.802    -0.048    22.164     6.992
    15   6 C        3.091     0.048    26.825     8.489
    16   6 C        2.910    -0.051    29.268     8.871
    17   6 C        2.924    -0.034    28.845     8.808
    18   6 C        2.921    -0.039    28.979     8.828
    19   6 C        2.912    -0.031    28.778     8.797
    20   6 C        3.063    -0.010    28.207     8.709
    21   6 C        3.068    -0.035    28.808     8.801
    22   6 C        3.106     0.127    25.082     8.206
    23   8 O        1.715    -0.222    17.690     5.679
    24   6 C        3.109     0.127    25.080     8.205
    25   6 C        2.909    -0.052    29.298     8.876
    26   6 C        2.926    -0.035    28.883     8.813
    27   6 C        2.921    -0.040    28.992     8.830
    28   6 C        2.913    -0.035    28.883     8.813
    29   6 C        3.062    -0.018    28.389     8.737
    30   6 C        3.053    -0.032    28.744     8.793
    31   6 C        2.916    -0.036    28.904     8.816
    32   6 C        2.911    -0.055    29.374     8.887
    33   6 C        3.077     0.054    26.707     8.473
    34   6 C        2.991     0.001    27.997     8.680
    35  16 S        2.194    -0.086   144.627    20.241
    36   6 C        3.005     0.041    27.071     8.535
    37   6 C        2.934    -0.037    28.913     8.818
    38   6 C        2.924    -0.026    28.642     8.776
    39   6 C        2.919    -0.032    28.788     8.799
    40   6 C        2.916    -0.022    28.553     8.762
    41   6 C        3.104    -0.008    28.088     8.684
    42   6 C        3.113     0.102    25.598     8.288
    43   7 N        1.840    -0.266    27.750     7.807
    44   6 C        2.924    -0.023    28.569     8.765
    45   6 C        2.919    -0.025    28.618     8.773
    46   1 H        0.926     0.033     2.546     2.495
    47   1 H        0.926     0.034     2.534     2.489
    48   1 H        0.926     0.048     2.343     2.394
    49   1 H        0.926     0.044     2.396     2.420
    50   1 H        0.926     0.043     2.405     2.425
    51   1 H        0.926     0.043     2.404     2.425
    52   1 H        0.926     0.048     2.341     2.393
    53   1 H        0.926     0.022     2.702     2.570
    54   1 H        0.926     0.026     2.647     2.544
    55   1 H        0.926     0.029     2.600     2.522
    56   1 H        0.926     0.040     2.448     2.447
    57   1 H        0.926     0.043     2.413     2.429
    58   1 H        0.926     0.036     2.506     2.476
    59   1 H        0.926     0.033     2.540     2.492
    60   1 H        0.926     0.034     2.525     2.485
    61   1 H        0.926     0.038     2.476     2.461
    62   1 H        0.926     0.034     2.529     2.487
    63   1 H        0.926     0.044     2.391     2.418
    64   1 H        0.926     0.042     2.416     2.431
    65   1 H        0.926     0.042     2.426     2.436
    66   1 H        0.926     0.057     2.236     2.339
    67   1 H        0.926     0.052     2.296     2.370
    68   1 H        0.926     0.036     2.507     2.476

molecular dipole:
                 x           y           z       tot (Debye)
 q only:       -0.441      -0.384      -0.231
   full:       -0.775      -0.337      -0.218       2.219

 projected vibrational frequencies (cm⁻¹)
eigval :       -0.00    -0.00    -0.00    -0.00     0.00     0.00
eigval :        9.32    23.48    30.23    38.08    50.00    51.48
eigval :       56.63    63.38    71.98    76.92    88.68   101.95
eigval :      107.45   127.29   136.42   146.77   152.60   175.53
eigval :      183.81   197.06   220.83   232.68   247.21   256.25
eigval :      267.41   282.86   289.52   291.90   313.20   323.67
eigval :      347.50   369.90   375.95   396.52   400.22   408.65
eigval :      414.25   416.92   423.24   437.85   441.04   451.54
eigval :      468.35   478.63   482.18   506.47   511.39   534.20
eigval :      541.96   544.06   559.03   565.18   583.57   588.13
eigval :      594.76   600.55   608.70   611.90   624.95   632.03
eigval :      644.25   653.20   665.57   675.43   681.27   688.72
eigval :      690.69   700.71   703.52   709.11   718.58   726.92
eigval :      732.32   774.70   777.23   778.36   778.87   783.28
eigval :      817.65   829.14   839.24   845.38   858.87   862.19
eigval :      870.71   876.98   877.29   878.16   884.32   893.95
eigval :      900.88   904.93   907.89   911.77   914.35   918.46
eigval :      921.76   923.33   925.54   929.32   929.45   934.25
eigval :      973.03  1001.33  1009.42  1036.07  1062.35  1063.54
eigval :     1067.67  1070.97  1077.97  1084.71  1095.28  1102.64
eigval :     1113.19  1126.36  1139.53  1143.88  1145.20  1174.15
eigval :     1175.68  1176.12  1177.59  1182.10  1182.81  1187.01
eigval :     1195.73  1202.66  1207.94  1214.21  1227.87  1240.59
eigval :     1246.38  1251.75  1262.10  1273.67  1278.15  1303.04
eigval :     1307.59  1311.05  1327.90  1331.57  1338.08  1346.06
eigval :     1356.28  1360.97  1363.82  1398.39  1399.92  1404.24
eigval :     1416.16  1421.52  1430.92  1435.00  1447.58  1460.00
eigval :     1462.70  1468.79  1475.68  1476.56  1485.97  1511.44
eigval :     1522.58  1566.63  1569.81  1572.72  1582.08  1585.25
eigval :     1585.86  1592.24  1593.72  1596.70  1602.12  1611.39
eigval :     1630.31  3068.69  3073.86  3078.17  3078.21  3080.48
eigval :     3082.33  3084.24  3085.12  3086.01  3087.35  3087.89
eigval :     3089.53  3093.04  3093.22  3094.37  3098.88  3100.35
eigval :     3100.73  3101.62  3104.46  3105.23  3105.89  3109.58

   temp. (K)  partition function   enthalpy   heat capacity  entropy
                                   cal/mol     cal/K/mol   cal/K/mol   J/K/mol
 298.15  VIB  0.892E+14            19387.094    126.925    118.895
         ROT  0.419E+08              888.752      2.981     37.861
         INT  0.374E+22            20275.847    129.905    156.756
         TR   0.140E+29             1481.254      4.968     45.007
         TOT                       21757.1006   134.8736   201.7631   844.1769

       T/K    H(0)-H(T)+PV         H(T)/Eh          T*S/Eh         G(T)/Eh
   ------------------------------------------------------------------------
    298.15    0.346721E-01    0.537428E+00    0.958642E-01    0.441564E+00
   ------------------------------------------------------------------------

         :::::::::::::::::::::::::::::::::::::::::::::::::::::
         ::                  THERMODYNAMIC                  ::
         :::::::::::::::::::::::::::::::::::::::::::::::::::::
         :: total free energy        -113.128794130499 Eh   ::
         ::.................................................::
         :: total energy             -113.570357867605 Eh   ::
         :: zero point energy           0.502755759577 Eh   ::
         :: G(RRHO) w/o ZPVE           -0.061192022471 Eh   ::
         :: G(RRHO) contrib.            0.441563737106 Eh   ::
         :::::::::::::::::::::::::::::::::::::::::::::::::::::

           -------------------------------------------------
          | TOTAL ENERGY             -113.570357867605 Eh   |
          | TOTAL ENTHALPY           -113.032929961230 Eh   |
          | TOTAL FREE ENERGY        -113.128794130499 Eh   |
          | GRADIENT NORM               0.000034005216 Eh/α |
          | HOMO-LUMO GAP               2.046097867836 eV   |
           -------------------------------------------------

 * finished run on 2025/09/13 at 05:20:50.102
