   * xtb version 6.7.1 (edcfbbe) compiled by 'albert@albert-system' on 2024-07-22

   ID    Z sym.   atoms
    1    6 C      1-9, 11-33, 35-48, 50-56
    2    7 N      10, 34, 49
    3    1 H      57-93

          program call               : xtb data2507/toluene/mP2MPC/mP2MPC.xyz --gfn 2 --gbsa toluene --ohess vtight --parallel 40 --molden --ceasefiles --namespace data2507/toluene/mP2MPC/mP2MPC_toluene_S0_preOpt
      * Solvation model:               GBSA
        Solvent                        toluene
        Solvent mass                       9.2140E+01 g/mol
          :  Hamiltonian                  GFN2-xTB          :
 * total energy  :  -141.2615515 Eh     change       -0.2298520E-08 Eh
 * total energy  :  -141.2766708 Eh     change       -0.1511927E-01 Eh
 * total energy  :  -141.2804176 Eh     change       -0.3746781E-02 Eh
 * total energy  :  -141.2813935 Eh     change       -0.9759393E-03 Eh
 * total energy  :  -141.2820207 Eh     change       -0.6271528E-03 Eh
 * total energy  :  -141.2823251 Eh     change       -0.3044238E-03 Eh
 * total energy  :  -141.2826049 Eh     change       -0.2797808E-03 Eh
 * total energy  :  -141.2828974 Eh     change       -0.2925822E-03 Eh
 * total energy  :  -141.2831697 Eh     change       -0.2722717E-03 Eh
 * total energy  :  -141.2833885 Eh     change       -0.2187989E-03 Eh
 * total energy  :  -141.2857923 Eh     change       -0.5378627E-06 Eh
 * total energy  :  -141.2857928 Eh     change       -0.5085369E-06 Eh
 * total energy  :  -141.2856992 Eh     change        0.9357557E-04 Eh
 * total energy  :  -141.2857689 Eh     change       -0.6966130E-04 Eh
 * total energy  :  -141.2857927 Eh     change       -0.2378274E-04 Eh
 * total energy  :  -141.2857940 Eh     change       -0.1346949E-05 Eh
 * total energy  :  -141.2857943 Eh     change       -0.2467052E-06 Eh
 * total energy  :  -141.2857945 Eh     change       -0.2433829E-06 Eh
 * total energy  :  -141.2857946 Eh     change       -0.9276064E-07 Eh
   *** GEOMETRY OPTIMIZATION CONVERGED AFTER 221 ITERATIONS ***

 final structure:
================
93
 xtb: 6.7.1 (edcfbbe)
C           -0.32563118457981       -1.94130380086026       -2.11181302225070
C            0.71789635278965       -1.97663230164752       -1.03428264829414
C            2.05760627774801       -1.87364049307180       -1.37553694561112
C            3.07446960054388       -1.90918549075743       -0.42752028938814
C            4.46858177908852       -1.76247090373231       -0.89166723025609
C            4.98494739957507       -2.63768676736762       -1.84348903175229
C            6.28331271379708       -2.49106902290328       -2.29818598663089
C            7.07885409527144       -1.46226793084018       -1.82687383436423
C            6.57030522952094       -0.57776204884949       -0.88024881408399
N            7.36454155991954        0.47907602679417       -0.40403037586046
C            8.64420521020024        0.36566596074414        0.09905715037871
C            9.40844678216923       -0.77148322190196        0.32258755189784
C           10.66681708015339       -0.60694255975463        0.86911148081429
C           11.15847725012863        0.65551781830642        1.19659355439033
C           10.39470664556946        1.78844519326986        0.99727969812151
C            9.12578839334176        1.64899161818482        0.44912645103053
C            8.07708222903772        2.57755940813994        0.13176714312268
C            7.95926224762438        3.95837591645148        0.23056352129099
C            6.78814536904797        4.55517810593309       -0.19223457682427
C            5.74682459783899        3.79459052520833       -0.72126608160903
C            5.84026254709418        2.42029662821843       -0.83077021655961
C            7.00707160558118        1.81212384739317       -0.38836496369382
C            5.27184042552675       -0.73540564191560       -0.41095377677259
C            2.74851319772971       -2.09278225483071        0.91849044392055
C            3.79465023615202       -2.18959186751423        1.98971706630932
C            1.40892822952958       -2.20937137359725        1.25807998314332
C            0.39016121427530       -2.13662522995066        0.31481440773986
C           -1.00750354311420       -2.25219567224411        0.77698975925774
C           -1.41323129654163       -3.36995761678502        1.50287406756564
C           -2.71426746882125       -3.47108988235026        1.96133897436037
C           -3.63201430376209       -2.46983070829427        1.69962608724489
C           -3.24588764616092       -1.34991028004498        0.96580778920696
C           -4.15460310230734       -0.25202128560060        0.66688297849012
N           -3.78249015561026        1.00485351456308        0.66825420698726
C           -4.89381017687674        1.72383215167249        0.35522527682442
C           -5.02235159736213        3.13867257940935        0.26993515694468
C           -3.93808840124298        3.98422535527410        0.53073353707476
C           -4.09152198275675        5.34728302683449        0.47710192620565
C           -5.33962530702375        5.88320592492106        0.16445173473731
C           -6.41092475511703        5.06187317044276       -0.09972451277655
C           -6.29215515100090        3.66347089626003       -0.06457324121429
C           -7.39676293343693        2.76985070837079       -0.37000289870249
C           -8.64526695100846        3.25855109900461       -0.78215983546597
C           -9.68569017694398        2.42132545373794       -1.10981587899943
C           -9.51528624192733        1.04142973456427       -1.05343155047542
C           -8.30986941780064        0.52181868027979       -0.64986697266243
C           -7.24407965845953        1.35795300480869       -0.28612724821245
C           -5.97496373709433        0.87159814732332        0.13851234806197
N           -5.48708101438744       -0.39854402649320        0.35469160022032
C           -6.16792519222054       -1.63316969120612        0.27561711889662
C           -7.17224139291919       -1.93592337994078        1.19050430425040
C           -7.81111052710701       -3.16075178176518        1.12427500143347
C           -7.44853664358987       -4.08460531541539        0.15657495034557
C           -6.44663774036161       -3.78194666423795       -0.75059151530809
C           -5.80347854584140       -2.55779869534094       -0.69540851974650
C           -1.92948846001315       -1.24667823276825        0.52136330278095
H           -0.64029292478494       -0.91498869502321       -2.30328240169532
H            0.07601049781888       -2.34496777595920       -3.03910479247194
H           -1.20347009008777       -2.51578479606963       -1.82531252343582
H            2.32594258930119       -1.74795746724435       -2.41580857366900
H            4.36616776942915       -3.44090038522047       -2.21564400664721
H            6.67741943030330       -3.17669285581652       -3.03415684703522
H            8.08418069213403       -1.32912341574986       -2.19758800384614
H            9.02999727627257       -1.75483241538598        0.08669681429361
H           11.28228768702779       -1.47640555490367        1.05007387023096
H           12.14863767048030        0.74309942170720        1.61971757875587
H           10.77080890460373        2.76482292375363        1.26495077123074
H            8.77102011503170        4.54971197387837        0.62774673677985
H            6.67601451923415        5.62737882198581       -0.12157836809737
H            4.84699907999461        4.29071063518603       -1.05535408409295
H            5.03355608725109        1.84231528196046       -1.25601121427883
H            4.88484178194817       -0.04870341503165        0.32653983348887
H            3.46616748921693       -2.86514108940877        2.77706700063270
H            4.73900924568925       -2.54765571321424        1.58682875972934
H            3.96626545815631       -1.21247936303872        2.44252945486863
H            1.14166985956282       -2.34912622353048        2.29666479940536
H           -0.70406223344707       -4.16022717138555        1.70194920601045
H           -3.01887797732176       -4.33633118941678        2.53205642202222
H           -4.63632571162504       -2.55191537677624        2.08571384673409
H           -2.99119046547989        3.52916098475907        0.77907860870120
H           -3.25683878677015        6.00222964255700        0.68006165907876
H           -5.46812050969996        6.95561599161739        0.12930616915832
H           -7.35781337507672        5.52209761038910       -0.33349128743722
H           -8.80548656089019        4.32183798380267       -0.85805941100713
H          -10.63273205440036        2.83612368280274       -1.42282879576207
H          -10.32394378531633        0.38117556730118       -1.33046877410663
H           -8.17583098630943       -0.54771209102935       -0.62439668901091
H           -7.44420825598440       -1.20847581427820        1.94201042552703
H           -8.59069383686453       -3.39427898268737        1.83373742465207
H           -7.94785305837461       -5.04044082406701        0.11069406089577
H           -6.16315056145325       -4.49932518155802       -1.50575891558247
H           -5.02031429654956       -2.31087520167448       -1.39706403602506
H           -1.63495924688840       -0.35905687738159       -0.01651832332877

          :  Hamiltonian                  GFN2-xTB          :
         :: gradient norm              0.000064842407 Eh/a0 ::
         :: HOMO-LUMO gap              2.705474639862 eV    ::
         :: SCC energy              -143.947935793717 Eh    ::
         :: -> dispersion             -0.130773719792 Eh    ::
         :: -> Gsolv                  -0.059308157274 Eh    ::
         :: repulsion energy           2.662141198951 Eh    ::

    * Orbital Energies and Occupations

         #    Occupation            Energy/Eh            Energy/eV
      -------------------------------------------------------------
         1        2.0000           -0.6883735             -18.7316
       ...           ...                  ...                  ...
       120        2.0000           -0.4083294             -11.1112
       121        2.0000           -0.4078147             -11.0972
       122        2.0000           -0.4063622             -11.0577
       123        2.0000           -0.4032325             -10.9725
       124        2.0000           -0.4001685             -10.8891
       125        2.0000           -0.3989032             -10.8547
       126        2.0000           -0.3899205             -10.6103
       127        2.0000           -0.3831545             -10.4262
       128        2.0000           -0.3797131             -10.3325
       129        2.0000           -0.3784897             -10.2992
       130        2.0000           -0.3765325             -10.2460
       131        2.0000           -0.3653652              -9.9421
       132        2.0000           -0.3600956              -9.7987 (HOMO)
       133                         -0.2606712              -7.0932 (LUMO)
       134                         -0.2512761              -6.8376
       135                         -0.2460276              -6.6948
       136                         -0.2435335              -6.6269
       137                         -0.2414151              -6.5692
       138                         -0.2400666              -6.5325
       139                         -0.2384380              -6.4882
       140                         -0.2299309              -6.2567
       141                         -0.2262818              -6.1574
       142                         -0.2199617              -5.9855
       143                         -0.2156405              -5.8679
       ...                                ...                  ...
       261                          0.7464846              20.3129
      -------------------------------------------------------------
                  HL-Gap            0.0994244 Eh            2.7055 eV

     #   Z          covCN         q      C6AA      α(0)
     1   6 C        3.757    -0.106    22.583     6.775
     2   6 C        2.966     0.009    27.818     8.651
     3   6 C        2.932    -0.047    29.169     8.857
     4   6 C        2.980    -0.004    28.106     8.696
     5   6 C        2.977     0.016    27.638     8.624
     6   6 C        2.924    -0.039    28.965     8.826
     7   6 C        2.918    -0.030    28.744     8.792
     8   6 C        2.922    -0.046    29.137     8.852
     9   6 C        2.911     0.063    26.594     8.456
    10   7 N        2.802    -0.048    22.157     6.991
    11   6 C        3.076     0.048    26.847     8.495
    12   6 C        2.909    -0.052    29.293     8.875
    13   6 C        2.923    -0.036    28.886     8.814
    14   6 C        2.919    -0.043    29.077     8.843
    15   6 C        2.912    -0.035    28.878     8.812
    16   6 C        3.067    -0.019    28.420     8.742
    17   6 C        3.067    -0.019    28.421     8.742
    18   6 C        2.912    -0.035    28.880     8.812
    19   6 C        2.919    -0.043    29.073     8.842
    20   6 C        2.924    -0.035    28.879     8.813
    21   6 C        2.909    -0.052    29.289     8.874
    22   6 C        3.076     0.048    26.846     8.495
    23   6 C        2.927    -0.046    29.154     8.855
    24   6 C        2.966     0.009    27.810     8.650
    25   6 C        3.757    -0.107    22.594     6.777
    26   6 C        2.932    -0.047    29.158     8.856
    27   6 C        2.980    -0.003    28.094     8.694
    28   6 C        2.976     0.017    27.636     8.623
    29   6 C        2.925    -0.035    28.859     8.810
    30   6 C        2.917    -0.031    28.766     8.795
    31   6 C        2.922    -0.039    28.969     8.826
    32   6 C        2.973    -0.003    28.089     8.693
    33   6 C        3.192     0.137    24.552     8.081
    34   7 N        1.894    -0.319    29.131     8.002
    35   6 C        3.205     0.060    26.085     8.318
    36   6 C        2.985    -0.003    28.098     8.695
    37   6 C        2.921    -0.034    28.835     8.806
    38   6 C        2.917    -0.032    28.797     8.800
    39   6 C        2.917    -0.034    28.857     8.809
    40   6 C        2.921    -0.037    28.911     8.817
    41   6 C        2.979    -0.005    28.144     8.702
    42   6 C        2.979    -0.002    28.065     8.690
    43   6 C        2.922    -0.035    28.876     8.812
    44   6 C        2.916    -0.034    28.853     8.808
    45   6 C        2.917    -0.033    28.813     8.802
    46   6 C        2.919    -0.041    29.031     8.836
    47   6 C        2.978    -0.005    28.149     8.703
    48   6 C        3.074     0.022    27.444     8.589
    49   7 N        2.840    -0.055    22.302     7.014
    50   6 C        2.913     0.067    26.499     8.441
    51   6 C        2.921    -0.037    28.917     8.818
    52   6 C        2.920    -0.026    28.656     8.778
    53   6 C        2.919    -0.029    28.714     8.787
    54   6 C        2.920    -0.025    28.627     8.774
    55   6 C        2.921    -0.038    28.941     8.822
    56   6 C        2.933    -0.032    28.809     8.803
    57   1 H        0.924     0.047     2.361     2.403
    58   1 H        0.925     0.045     2.377     2.411
    59   1 H        0.925     0.041     2.440     2.443
    60   1 H        0.925     0.033     2.545     2.495
    61   1 H        0.926     0.038     2.474     2.460
    62   1 H        0.926     0.038     2.473     2.459
    63   1 H        0.926     0.039     2.467     2.456
    64   1 H        0.926     0.029     2.598     2.520
    65   1 H        0.926     0.029     2.602     2.522
    66   1 H        0.926     0.026     2.637     2.539
    67   1 H        0.926     0.029     2.604     2.524
    68   1 H        0.926     0.029     2.602     2.523
    69   1 H        0.926     0.027     2.636     2.539
    70   1 H        0.926     0.029     2.601     2.522
    71   1 H        0.926     0.030     2.590     2.517
    72   1 H        0.926     0.043     2.406     2.426
    73   1 H        0.925     0.045     2.385     2.415
    74   1 H        0.925     0.043     2.408     2.427
    75   1 H        0.924     0.048     2.351     2.398
    76   1 H        0.925     0.033     2.547     2.496
    77   1 H        0.926     0.039     2.456     2.451
    78   1 H        0.926     0.037     2.490     2.468
    79   1 H        0.926     0.027     2.633     2.537
    80   1 H        0.926     0.043     2.409     2.427
    81   1 H        0.926     0.032     2.557     2.500
    82   1 H        0.926     0.032     2.563     2.504
    83   1 H        0.926     0.034     2.525     2.485
    84   1 H        0.926     0.037     2.494     2.470
    85   1 H        0.926     0.032     2.552     2.498
    86   1 H        0.926     0.032     2.564     2.504
    87   1 H        0.926     0.029     2.598     2.521
    88   1 H        0.926     0.041     2.437     2.441
    89   1 H        0.926     0.047     2.355     2.400
    90   1 H        0.926     0.048     2.348     2.396
    91   1 H        0.926     0.047     2.352     2.398
    92   1 H        0.926     0.038     2.475     2.460
    93   1 H        0.926     0.046     2.374     2.410

molecular dipole:
                 x           y           z       tot (Debye)
 q only:       -0.894      -1.907      -0.300
   full:       -1.279      -2.023      -0.368       6.156

 projected vibrational frequencies (cm⁻¹)
eigval :       -0.00    -0.00     0.00     0.00     0.00     0.00
eigval :        5.12     8.81    13.31    19.69    20.94    24.57
eigval :       27.12    40.88    46.96    49.38    60.00    62.25
eigval :       68.86    80.09    84.86    86.29    94.78    98.94
eigval :      111.23   118.88   124.14   137.03   142.33   146.19
eigval :      163.77   182.16   189.17   210.05   220.93   226.53
eigval :      233.20   237.04   240.42   253.90   258.85   267.19
eigval :      272.36   275.83   284.53   285.71   300.35   324.23
eigval :      339.35   362.52   375.63   381.05   398.07   398.47
eigval :      400.60   404.55   410.02   423.30   427.28   436.07
eigval :      437.26   439.60   441.71   455.90   458.68   469.92
eigval :      478.14   490.82   514.54   517.98   519.03   529.98
eigval :      536.13   542.43   558.29   578.18   585.37   588.58
eigval :      594.74   598.08   607.84   615.64   628.85   639.63
eigval :      643.74   647.66   658.21   667.15   671.90   674.38
eigval :      676.55   679.94   680.59   687.32   693.30   696.13
eigval :      709.00   715.78   735.55   735.99   752.78   760.53
eigval :      763.51   767.45   767.88   778.67   783.19   791.43
eigval :      798.32   801.81   834.41   860.67   867.92   869.37
eigval :      871.58   874.06   876.46   888.70   890.55   894.32
eigval :      896.48   899.35   899.76   902.76   904.87   908.67
eigval :      908.74   915.30   919.80   921.17   921.75   926.45
eigval :      927.14   927.80   928.10   930.26   930.50   938.83
eigval :      952.18   974.12   998.82  1006.19  1009.60  1012.05
eigval :     1017.33  1028.39  1028.48  1030.46  1033.58  1067.97
eigval :     1068.91  1071.59  1074.49  1078.13  1084.74  1106.92
eigval :     1114.88  1115.64  1124.81  1129.93  1135.20  1149.03
eigval :     1150.37  1165.47  1169.63  1176.87  1177.54  1178.84
eigval :     1180.27  1184.50  1185.90  1187.57  1190.63  1194.36
eigval :     1202.55  1207.68  1230.73  1236.03  1248.06  1252.49
eigval :     1255.27  1256.22  1260.90  1266.51  1274.22  1281.47
eigval :     1297.86  1300.78  1303.10  1310.61  1311.06  1313.90
eigval :     1317.87  1327.65  1335.66  1336.92  1345.57  1354.91
eigval :     1358.77  1362.51  1372.34  1388.35  1402.41  1404.59
eigval :     1405.92  1414.48  1419.72  1427.05  1427.45  1429.90
eigval :     1432.47  1435.51  1447.55  1455.03  1470.63  1475.38
eigval :     1477.53  1479.62  1480.18  1481.45  1485.27  1487.14
eigval :     1508.09  1511.97  1513.02  1540.51  1558.76  1560.42
eigval :     1565.61  1570.70  1574.97  1578.75  1581.88  1586.97
eigval :     1588.79  1589.53  1591.38  1593.51  1597.38  1599.86
eigval :     1603.31  1613.38  2991.46  2992.38  3028.51  3028.76
eigval :     3037.21  3039.59  3065.34  3067.42  3069.23  3069.27
eigval :     3069.68  3073.32  3073.72  3074.24  3074.69  3075.65
eigval :     3079.42  3079.58  3082.49  3083.26  3083.38  3083.55
eigval :     3085.13  3085.49  3088.17  3089.53  3092.01  3092.98
eigval :     3093.04  3094.97  3096.87  3097.56  3098.20  3102.16
eigval :     3102.83  3108.92  3114.84

   temp. (K)  partition function   enthalpy   heat capacity  entropy
                                   cal/mol     cal/K/mol   cal/K/mol   J/K/mol
 298.15  VIB  0.370E+22            26633.748    167.001    167.417
         ROT  0.181E+09              888.752      2.981     40.762
         INT  0.669E+30            27522.500    169.982    208.180
         TR   0.185E+29             1481.254      4.968     45.565
         TOT                       29003.7541   174.9499   253.7442  1061.6658

       T/K    H(0)-H(T)+PV         H(T)/Eh          T*S/Eh         G(T)/Eh
   ------------------------------------------------------------------------
    298.15    0.462204E-01    0.769894E+00    0.120562E+00    0.649332E+00
   ------------------------------------------------------------------------

         :::::::::::::::::::::::::::::::::::::::::::::::::::::
         ::                  THERMODYNAMIC                  ::
         :::::::::::::::::::::::::::::::::::::::::::::::::::::
         :: total free energy        -140.636462861348 Eh   ::
         ::.................................................::
         :: total energy             -141.285794595877 Eh   ::
         :: zero point energy           0.723673377622 Eh   ::
         :: G(RRHO) w/o ZPVE           -0.074341643093 Eh   ::
         :: G(RRHO) contrib.            0.649331734529 Eh   ::
         :::::::::::::::::::::::::::::::::::::::::::::::::::::

           -------------------------------------------------
          | TOTAL ENERGY             -141.285794595877 Eh   |
          | TOTAL ENTHALPY           -140.515900794098 Eh   |
          | TOTAL FREE ENERGY        -140.636462861348 Eh   |
          | GRADIENT NORM               0.000064832772 Eh/α |
          | HOMO-LUMO GAP               2.705475551087 eV   |
           -------------------------------------------------

 * finished run on 2025/08/25 at 20:25:06.620
