   * xtb version 6.7.1 (edcfbbe) compiled by 'albert@albert-system' on 2024-07-22

   ID    Z sym.   atoms
    1    6 C      1-9, 11-33, 35-48, 50-56
    2    7 N      10, 34, 49
    3    1 H      57-93

          program call               : xtb data2507/toluene/mP2MPC/mP2MPC_toluene_S0_finalOpt.xtbopt.xyz --gfn 2 --uhf 2 --gbsa toluene --ohess vtight --parallel 40 --molden --ceasefiles --namespace data2507/toluene/mP2MPC/mP2MPC_toluene_T1_preOpt
      * Solvation model:               GBSA
        Solvent                        toluene
        Solvent mass                       9.2140E+01 g/mol
          :  Hamiltonian                  GFN2-xTB          :
 * total energy  :  -141.1814375 Eh     change       -0.5677521E-09 Eh
 * total energy  :  -141.1871547 Eh     change       -0.5717170E-02 Eh
 * total energy  :  -141.1896705 Eh     change       -0.2515750E-02 Eh
 * total energy  :  -141.1900021 Eh     change       -0.3316563E-03 Eh
 * total energy  :  -141.1905977 Eh     change       -0.5955433E-03 Eh
 * total energy  :  -141.1907970 Eh     change       -0.1993199E-03 Eh
 * total energy  :  -141.1909794 Eh     change       -0.1823957E-03 Eh
 * total energy  :  -141.1911044 Eh     change       -0.1249857E-03 Eh
 * total energy  :  -141.1911808 Eh     change       -0.7647216E-04 Eh
 * total energy  :  -141.1912417 Eh     change       -0.6088548E-04 Eh
 * total energy  :  -141.1917927 Eh     change       -0.8705769E-06 Eh
 * total energy  :  -141.1917935 Eh     change       -0.8458118E-06 Eh
 * total energy  :  -141.1917943 Eh     change       -0.7441477E-06 Eh
 * total energy  :  -141.1917949 Eh     change       -0.6555344E-06 Eh
 * total energy  :  -141.1917955 Eh     change       -0.6280314E-06 Eh
 * total energy  :  -141.1917962 Eh     change       -0.6213935E-06 Eh
 * total energy  :  -141.1917967 Eh     change       -0.5443938E-06 Eh
 * total energy  :  -141.1917972 Eh     change       -0.4799429E-06 Eh
 * total energy  :  -141.1917972 Eh     change       -0.3869360E-08 Eh
   *** GEOMETRY OPTIMIZATION CONVERGED AFTER 185 ITERATIONS ***

 final structure:
================
93
 xtb: 6.7.1 (edcfbbe)
C            1.17784579436315       -3.11508019692807       -2.52956762461507
C            1.35859502623226       -2.81204595610456       -1.07136344778199
C            2.61959238588424       -2.49789355555711       -0.58845819187565
C            2.85235224325364       -2.18946877639511        0.74746400605633
C            4.22724790182387       -1.84995986021621        1.16492647891459
C            4.88794497871898       -2.56907730604791        2.15705832145045
C            6.18002304589849       -2.23305574218844        2.52056425395070
C            6.82752057795363       -1.17093543421483        1.91495035421441
C            6.17940643676832       -0.45150203262477        0.91512212124715
N            6.81904360345362        0.63330011498215        0.29260416381952
C            6.28959125843094        1.89877721690131        0.14130244944022
C            5.07512424726116        2.40852162100899        0.58131817109790
C            4.79798134572480        3.73609188228422        0.31524022960627
C            5.70488912423689        4.54710636167954       -0.36420375049639
C            6.92388659541592        4.05168836112804       -0.78542194890067
C            7.22501262811258        2.72021344001614       -0.53100067740167
C            8.37100325768989        1.89597122269754       -0.80049595735113
C            9.58327269098178        2.12250787843096       -1.43845370505029
C           10.47944207083057        1.07657706146845       -1.54817927250388
C           10.17324505590533       -0.18575861830564       -1.04341528720698
C            8.97339836238096       -0.43587365022102       -0.40484322364052
C            8.07795141272153        0.61682982466386       -0.27149392779210
C            4.88887954042437       -0.80154277435680        0.53661432071759
C            1.77959469203818       -2.17228046591425        1.64242229469467
C            1.94714321886894       -1.80823770225430        3.08852849238343
C            0.51729714561930       -2.47514859988009        1.15635055564844
C            0.28595753275318       -2.80244257351215       -0.17527371232109
C           -1.10386336613631       -3.05252481440934       -0.60662003634273
C           -1.48518432523136       -4.24443918136290       -1.23927233855513
C           -2.82184871581534       -4.44022679632553       -1.59295927660690
C           -3.76010946332565       -3.46873721881882       -1.37169989571723
C           -3.39535744492178       -2.22620316391196       -0.76813833125225
C           -4.38947112529577       -1.25168319371909       -0.61106199218674
N           -5.70501439650398       -1.53420141144290       -0.74215194534668
C           -6.37030045626121       -0.44697536308080       -0.40680358783612
C           -7.78559122529704       -0.28076539178596       -0.34054103676675
C           -8.63995687136927       -1.35226251989420       -0.60459703510657
C          -10.01016523361903       -1.19568675481571       -0.51374871106392
C          -10.52353312085906        0.03953319385802       -0.14896967449229
C           -9.68408049715338        1.10972866836923        0.11084033631571
C           -8.29191446247575        0.99230480162645        0.01673172083976
C           -7.38518229318187        2.10467455609142        0.24975391480102
C           -7.85623267595108        3.38618266285920        0.52432041446682
C           -7.01180899346697        4.46415931199157        0.71563529321893
C           -5.62688412372055        4.29257706667966        0.61524123929863
C           -5.11218164386345        3.05475597992375        0.35392748136946
C           -5.95302862422106        1.92134245425018        0.18075107495452
C           -5.47623682090724        0.63913839721567       -0.08726809629847
N           -4.21399747360700        0.10847717909358       -0.22413241009380
C           -2.97347065206675        0.75799165482196       -0.13571423114579
C           -2.15509051464521        0.83929412123364       -1.26352948069371
C           -0.90396404479135        1.41715943011181       -1.16611815249532
C           -0.45767632251911        1.91901784428930        0.04669781229426
C           -1.27428443542053        1.84999439261842        1.16619166241104
C           -2.52735607745336        1.27369089562068        1.08211818782949
C           -2.04574236805325       -2.07974315400322       -0.35466509371445
H            1.31027318005287       -4.18132344433369       -2.71526860809316
H            0.18274602479661       -2.83415678902035       -2.86666680868200
H            1.91789528694301       -2.58069263098418       -3.12187997054898
H            3.45759219985018       -2.49586191374673       -1.27248347032721
H            4.39034325126525       -3.40038859329590        2.63245649065762
H            6.68543531624698       -2.79619196512210        3.29140327530771
H            7.82377101381983       -0.88762310161514        2.21956952030807
H            4.37207780417535        1.79281700266978        1.12181106700055
H            3.85893104684769        4.15645526309479        0.64476073326584
H            5.45063381731035        5.57958434366578       -0.55446870760931
H            7.63234122883767        4.68480807198198       -1.29846044980408
H            9.81548748762423        3.09630550464410       -1.84316604889615
H           11.42895352848893        1.23283397120537       -2.03886256058794
H           10.88807925052527       -0.98770363789482       -1.15737792378903
H            8.73831040336306       -1.42119710031386       -0.03175402130748
H            4.39374763367257       -0.25107974628689       -0.24994084160982
H            2.09724950163491       -2.70468916376901        3.69081794983654
H            2.80388511356473       -1.15471947968676        3.23444341883303
H            1.05279884759486       -1.30851272706265        3.45550292430047
H           -0.32394468310403       -2.45930815853141        1.83615197127675
H           -0.75611016339945       -5.01922487584622       -1.41561642543541
H           -3.11432178412367       -5.37174273096055       -2.05670854775848
H           -4.79037531116590       -3.60287831796298       -1.65935163719108
H           -8.19636706931179       -2.29828032632551       -0.87474229196260
H          -10.67057268998741       -2.02434513310666       -0.71968957998478
H          -11.59232015345839        0.17516936278175       -0.06574132146480
H          -10.13495113701607        2.04763393421428        0.39238732247386
H           -8.91789562847787        3.56486255590087        0.58491765794550
H           -7.42224262856473        5.43947610236422        0.92891033120060
H           -4.96747132879613        5.13900091196577        0.73955941228528
H           -4.04635670166828        2.92977605637664        0.25858987142897
H           -2.50827549266780        0.43580322958733       -2.20134982723861
H           -0.27336293927608        1.47375170455952       -2.04079786732858
H            0.52438573482750        2.36040126535429        0.12046501452693
H           -0.92874605955860        2.23732040923416        2.11326999120567
H           -3.16376635645255        1.20242121526294        1.95278164769376
H           -1.73852370222114       -1.19951391759347        0.18313859958851

          :  Hamiltonian                  GFN2-xTB          :
         :: gradient norm              0.000044517540 Eh/a0 ::
         :: HOMO-LUMO gap              0.519749312308 eV    ::
         :: SCC energy              -143.834359097485 Eh    ::
         :: -> dispersion             -0.132682444926 Eh    ::
         :: -> Gsolv                  -0.058966963169 Eh    ::
         :: repulsion energy           2.642561899979 Eh    ::

    * Orbital Energies and Occupations

         #    Occupation            Energy/Eh            Energy/eV
      -------------------------------------------------------------
         1        2.0000           -0.6842738             -18.6200
       ...           ...                  ...                  ...
       121        2.0000           -0.4082641             -11.1094
       122        2.0000           -0.4072534             -11.0819
       123        2.0000           -0.4007815             -10.9058
       124        2.0000           -0.3985629             -10.8454
       125        2.0000           -0.3970532             -10.8044
       126        2.0000           -0.3895850             -10.6011
       127        2.0000           -0.3845768             -10.4649
       128        2.0000           -0.3809445             -10.3660
       129        2.0000           -0.3808906             -10.3646
       130        2.0000           -0.3780001             -10.2859
       131        1.9402           -0.3644006              -9.9158
       132        1.0598           -0.3591661              -9.7734
       133        1.0000           -0.2725564              -7.4166 (HOMO)
       134        0.0000           -0.2534561              -6.8969 (LUMO)
       135        0.0000           -0.2483752              -6.7586
       136                         -0.2474351              -6.7331
       137                         -0.2429799              -6.6118
       138                         -0.2337881              -6.3617
       139                         -0.2335664              -6.3557
       140                         -0.2326095              -6.3296
       141                         -0.2244479              -6.1075
       142                         -0.2220200              -6.0415
       143                         -0.2157478              -5.8708
       144                         -0.2103059              -5.7227
       ...                                ...                  ...
       261                          0.7421519              20.1950
      -------------------------------------------------------------
                  HL-Gap            0.0191003 Eh            0.5197 eV

     #   Z          covCN         q      C6AA      α(0)
     1   6 C        3.757    -0.106    22.586     6.776
     2   6 C        2.966     0.009    27.825     8.652
     3   6 C        2.931    -0.048    29.185     8.860
     4   6 C        2.980    -0.005    28.132     8.700
     5   6 C        2.977     0.017    27.617     8.620
     6   6 C        2.923    -0.036    28.898     8.816
     7   6 C        2.918    -0.029    28.734     8.790
     8   6 C        2.921    -0.045    29.128     8.850
     9   6 C        2.911     0.062    26.604     8.458
    10   7 N        2.802    -0.041    22.024     6.970
    11   6 C        3.075     0.048    26.847     8.495
    12   6 C        2.909    -0.050    29.237     8.866
    13   6 C        2.923    -0.034    28.855     8.809
    14   6 C        2.919    -0.041    29.020     8.834
    15   6 C        2.912    -0.034    28.843     8.807
    16   6 C        3.067    -0.018    28.378     8.735
    17   6 C        3.067    -0.018    28.381     8.736
    18   6 C        2.912    -0.034    28.843     8.806
    19   6 C        2.920    -0.041    29.018     8.834
    20   6 C        2.923    -0.034    28.856     8.809
    21   6 C        2.909    -0.050    29.244     8.867
    22   6 C        3.075     0.048    26.846     8.495
    23   6 C        2.929    -0.047    29.179     8.859
    24   6 C        2.966     0.008    27.833     8.654
    25   6 C        3.757    -0.107    22.590     6.776
    26   6 C        2.932    -0.048    29.183     8.859
    27   6 C        2.982    -0.004    28.122     8.699
    28   6 C        2.971     0.012    27.732     8.638
    29   6 C        2.920    -0.040    28.986     8.829
    30   6 C        2.910    -0.032    28.795     8.799
    31   6 C        2.924    -0.037    28.908     8.817
    32   6 C        2.966    -0.010    28.256     8.719
    33   6 C        3.127     0.128    25.028     8.191
    34   7 N        1.874    -0.312    28.942     7.975
    35   6 C        3.159     0.088    25.750     8.296
    36   6 C        2.982    -0.007    28.183     8.708
    37   6 C        2.923    -0.028    28.689     8.784
    38   6 C        2.915    -0.034    28.843     8.807
    39   6 C        2.917    -0.027    28.665     8.780
    40   6 C        2.922    -0.037    28.927     8.820
    41   6 C        2.976     0.001    28.011     8.682
    42   6 C        2.975    -0.006    28.170     8.706
    43   6 C        2.918    -0.032    28.809     8.802
    44   6 C        2.915    -0.036    28.896     8.815
    45   6 C        2.912    -0.034    28.836     8.805
    46   6 C        2.916    -0.038    28.944     8.822
    47   6 C        2.971    -0.018    28.462     8.751
    48   6 C        3.021     0.042    27.032     8.529
    49   7 N        2.805    -0.080    22.788     7.090
    50   6 C        2.909     0.065    26.536     8.447
    51   6 C        2.921    -0.040    28.997     8.831
    52   6 C        2.919    -0.027    28.666     8.780
    53   6 C        2.919    -0.034    28.837     8.806
    54   6 C        2.919    -0.029    28.717     8.788
    55   6 C        2.920    -0.041    29.031     8.836
    56   6 C        2.926    -0.050    29.241     8.868
    57   1 H        0.924     0.049     2.336     2.390
    58   1 H        0.925     0.042     2.418     2.432
    59   1 H        0.925     0.044     2.398     2.422
    60   1 H        0.925     0.032     2.555     2.499
    61   1 H        0.926     0.042     2.425     2.435
    62   1 H        0.926     0.040     2.447     2.446
    63   1 H        0.926     0.041     2.441     2.443
    64   1 H        0.926     0.032     2.552     2.498
    65   1 H        0.926     0.031     2.567     2.505
    66   1 H        0.926     0.030     2.592     2.518
    67   1 H        0.926     0.032     2.560     2.502
    68   1 H        0.926     0.032     2.559     2.502
    69   1 H        0.926     0.030     2.591     2.517
    70   1 H        0.926     0.032     2.561     2.503
    71   1 H        0.926     0.033     2.551     2.498
    72   1 H        0.926     0.042     2.428     2.437
    73   1 H        0.924     0.049     2.337     2.391
    74   1 H        0.925     0.043     2.406     2.426
    75   1 H        0.925     0.043     2.410     2.428
    76   1 H        0.925     0.028     2.617     2.530
    77   1 H        0.926     0.035     2.510     2.478
    78   1 H        0.926     0.033     2.546     2.495
    79   1 H        0.926     0.044     2.398     2.422
    80   1 H        0.926     0.048     2.350     2.397
    81   1 H        0.926     0.037     2.483     2.464
    82   1 H        0.926     0.039     2.468     2.457
    83   1 H        0.926     0.039     2.467     2.456
    84   1 H        0.926     0.037     2.487     2.466
    85   1 H        0.926     0.032     2.552     2.498
    86   1 H        0.926     0.031     2.576     2.510
    87   1 H        0.926     0.031     2.569     2.506
    88   1 H        0.926     0.032     2.559     2.502
    89   1 H        0.926     0.041     2.438     2.442
    90   1 H        0.926     0.041     2.440     2.443
    91   1 H        0.926     0.041     2.434     2.440
    92   1 H        0.926     0.036     2.503     2.474
    93   1 H        0.926     0.027     2.633     2.538

molecular dipole:
                 x           y           z       tot (Debye)
 q only:        1.293       0.056       0.473
   full:        1.381       0.361       0.576       3.913

 projected vibrational frequencies (cm⁻¹)
eigval :       -0.00    -0.00    -0.00     0.00     0.00     0.00
eigval :        5.47     8.20    12.87    18.45    23.60    26.73
eigval :       28.75    42.36    50.89    53.99    56.76    64.46
eigval :       73.90    78.64    82.84    92.39    97.25   106.27
eigval :      113.58   119.19   126.26   134.55   144.75   151.85
eigval :      156.65   180.19   192.29   208.72   211.84   222.16
eigval :      228.29   237.59   243.18   255.97   257.67   260.29
eigval :      271.86   272.54   280.58   288.35   300.85   311.57
eigval :      324.74   363.27   378.88   380.34   388.37   391.25
eigval :      396.45   400.42   403.89   408.50   412.56   423.49
eigval :      431.43   434.73   436.85   448.29   452.90   461.90
eigval :      464.10   477.48   490.95   513.95   516.90   517.09
eigval :      527.32   540.02   540.78   562.99   579.09   586.19
eigval :      586.90   594.60   602.72   607.06   612.90   620.62
eigval :      628.80   639.54   643.25   648.15   652.80   658.61
eigval :      662.19   672.94   676.02   680.01   690.53   693.39
eigval :      704.81   709.97   719.83   736.79   742.89   751.23
eigval :      755.30   758.30   761.87   764.00   768.24   779.07
eigval :      790.81   799.93   824.63   837.50   839.65   848.65
eigval :      853.39   867.05   870.33   870.93   872.11   886.57
eigval :      889.79   893.29   894.40   896.54   901.65   902.83
eigval :      904.73   905.12   907.91   908.20   912.90   914.05
eigval :      916.26   919.91   923.05   925.55   929.43   929.82
eigval :      936.40   948.79   977.63   984.45   998.80  1007.04
eigval :     1009.91  1017.24  1027.84  1028.87  1032.63  1046.05
eigval :     1068.30  1071.29  1074.31  1075.47  1079.71  1084.71
eigval :     1097.23  1114.60  1115.50  1116.24  1124.44  1129.18
eigval :     1147.30  1148.93  1165.94  1169.92  1173.45  1175.56
eigval :     1176.65  1178.23  1180.43  1181.37  1181.98  1186.16
eigval :     1194.52  1198.35  1203.00  1232.48  1234.24  1236.60
eigval :     1242.59  1253.34  1256.34  1261.02  1263.10  1264.52
eigval :     1272.85  1277.76  1296.61  1298.20  1312.12  1312.99
eigval :     1313.79  1317.92  1327.52  1333.58  1342.41  1344.38
eigval :     1353.00  1354.15  1356.02  1361.16  1373.52  1387.31
eigval :     1393.73  1400.85  1401.54  1406.37  1413.69  1416.53
eigval :     1422.20  1427.38  1430.80  1436.37  1439.02  1466.59
eigval :     1469.10  1473.02  1479.19  1479.75  1482.19  1485.22
eigval :     1485.91  1489.20  1490.55  1494.36  1515.18  1533.75
eigval :     1543.26  1549.40  1554.23  1555.76  1560.21  1565.55
eigval :     1568.15  1572.65  1582.66  1584.54  1586.76  1591.48
eigval :     1598.96  1608.29  2994.18  2994.63  3028.12  3028.76
eigval :     3037.04  3038.43  3063.10  3064.91  3068.03  3072.53
eigval :     3072.62  3073.28  3075.06  3075.30  3077.34  3078.05
eigval :     3078.25  3079.17  3084.54  3085.82  3086.29  3087.07
eigval :     3087.45  3087.80  3088.02  3092.24  3092.52  3093.79
eigval :     3098.26  3098.99  3099.48  3099.56  3101.62  3107.94
eigval :     3110.76  3123.34  3135.95

   temp. (K)  partition function   enthalpy   heat capacity  entropy
                                   cal/mol     cal/K/mol   cal/K/mol   J/K/mol
 298.15  VIB  0.311E+22            26909.627    169.505    168.638
         ROT  0.148E+09              888.752      2.981     40.362
         INT  0.459E+30            27798.379    172.486    209.001
         TR   0.185E+29             1481.254      4.968     45.565
         TOT                       29279.6328   177.4542   254.5653  1065.1014

       T/K    H(0)-H(T)+PV         H(T)/Eh          T*S/Eh         G(T)/Eh
   ------------------------------------------------------------------------
    298.15    0.466601E-01    0.765724E+00    0.120952E+00    0.644772E+00
   ------------------------------------------------------------------------

         :::::::::::::::::::::::::::::::::::::::::::::::::::::
         ::                  THERMODYNAMIC                  ::
         :::::::::::::::::::::::::::::::::::::::::::::::::::::
         :: total free energy        -140.547025331469 Eh   ::
         ::.................................................::
         :: total energy             -141.191797195191 Eh   ::
         :: zero point energy           0.719064010481 Eh   ::
         :: G(RRHO) w/o ZPVE           -0.074292146759 Eh   ::
         :: G(RRHO) contrib.            0.644771863722 Eh   ::
         :::::::::::::::::::::::::::::::::::::::::::::::::::::

           -------------------------------------------------
          | TOTAL ENERGY             -141.191797195191 Eh   |
          | TOTAL ENTHALPY           -140.426073119832 Eh   |
          | TOTAL FREE ENERGY        -140.547025331469 Eh   |
          | GRADIENT NORM               0.000044518828 Eh/α |
          | HOMO-LUMO GAP               0.519745470216 eV   |
           -------------------------------------------------

 * finished run on 2025/08/25 at 20:34:36.630
