   * xtb version 6.7.1 (edcfbbe) compiled by 'albert@albert-system' on 2024-07-22

   ID    Z sym.   atoms
    1    6 C      1-9, 11-33, 35-48, 50-56
    2    7 N      10, 34, 49
    3    1 H      57-93

          program call               : xtb data2507/toluene/mP2MPC/mP2MPC_toluene_T1_crest.xyz --gfn 2 --uhf 2 --gbsa toluene --ohess vtight --parallel 40 --molden --ceasefiles --namespace data2507/toluene/mP2MPC/mP2MPC_toluene_T1_finalOpt
      * Solvation model:               GBSA
        Solvent                        toluene
        Solvent mass                       9.2140E+01 g/mol
          :  Hamiltonian                  GFN2-xTB          :
 * total energy  :  -141.1916514 Eh     change       -0.7250179E-08 Eh
 * total energy  :  -141.1917067 Eh     change       -0.5527821E-04 Eh
 * total energy  :  -141.1917483 Eh     change       -0.4164824E-04 Eh
 * total energy  :  -141.1917719 Eh     change       -0.2357114E-04 Eh
 * total energy  :  -141.1917911 Eh     change       -0.1917852E-04 Eh
 * total energy  :  -141.1918140 Eh     change       -0.2286877E-04 Eh
 * total energy  :  -141.1918218 Eh     change       -0.7809721E-05 Eh
 * total energy  :  -141.1918352 Eh     change       -0.1343951E-04 Eh
 * total energy  :  -141.1918423 Eh     change       -0.7090389E-05 Eh
 * total energy  :  -141.1918489 Eh     change       -0.6591091E-05 Eh
 * total energy  :  -141.1918885 Eh     change       -0.8415116E-06 Eh
 * total energy  :  -141.1918893 Eh     change       -0.8584206E-06 Eh
 * total energy  :  -141.1918902 Eh     change       -0.8349056E-06 Eh
 * total energy  :  -141.1918909 Eh     change       -0.7609719E-06 Eh
 * total energy  :  -141.1918916 Eh     change       -0.6615691E-06 Eh
 * total energy  :  -141.1918922 Eh     change       -0.5770086E-06 Eh
 * total energy  :  -141.1918927 Eh     change       -0.5156279E-06 Eh
 * total energy  :  -141.1918932 Eh     change       -0.5121858E-06 Eh
 * total energy  :  -141.1918932 Eh     change       -0.6089550E-08 Eh
   *** GEOMETRY OPTIMIZATION CONVERGED AFTER 44 ITERATIONS ***

 final structure:
================
93
 xtb: 6.7.1 (edcfbbe)
C            0.57127926215961       -4.70586573205562       -1.59991528757176
C            1.05522226905168       -3.71929718055610       -0.57802986057448
C            2.41021183478891       -3.43264744050427       -0.50403338237098
C            2.93021076711569       -2.50073864587818        0.38731009895899
C            4.38424254797996       -2.24498550952785        0.37057250081782
C            5.28272170842568       -3.29146782108519        0.56265094592817
C            6.64622517385326       -3.06038488893906        0.52193421603095
C            7.13514307810655       -1.78895028288043        0.28088742890531
C            6.24592136024533       -0.73909897689570        0.06957098254730
N            6.73057908023213        0.55304466397563       -0.19520848860273
C            6.35602792482534        1.70634563448271        0.46281993114070
C            5.49242848122646        1.86934556191304        1.53731809207395
C            5.30746560185089        3.14726392671564        2.02972462221194
C            5.97088329166449        4.24185490748525        1.47861829596359
C            6.85089367733457        4.08279788459675        0.42524032467685
C            7.05230806035320        2.80806274055969       -0.08742563357264
C            7.88457172105464        2.28127287373444       -1.13388169550623
C            8.77312482328214        2.85885451003807       -2.03094542150020
C            9.41149609392762        2.04529428433209       -2.94729018750629
C            9.16208163214470        0.67478523253803       -2.98502137154735
C            8.28249195276418        0.07680224203233       -2.10253594032466
C            7.65555491785662        0.88522505351181       -1.16380049491936
C            4.87612318843622       -0.96991220641878        0.11758771241382
C            2.06485635525350       -1.83397251649189        1.25867793095496
C            2.55790427478317       -0.84563799522165        2.27371957431170
C            0.71162169895675       -2.12155260906725        1.18666292367933
C            0.18814770635906       -3.04804710999672        0.28964391885311
C           -1.27131542248321       -3.26240977576712        0.28899854187472
C           -1.82170224858035       -4.54801221979840        0.40721426216742
C           -3.20646790392284       -4.71499895210877        0.36836842693863
C           -4.04102387142751       -3.63674704710149        0.24925252743462
C           -3.51519729756678       -2.31049293781080        0.19297534019486
C           -4.42668032580884       -1.24978171175435        0.09395737007691
N           -5.71535772512199       -1.44010898578213       -0.26557114884175
C           -6.26009207701511       -0.24723464146680       -0.39825058896535
C           -7.58528275629124        0.05831830720128       -0.82862436880818
C           -8.45646813419932       -0.95758084168327       -1.22449341420008
C           -9.72738707900969       -0.65508593535743       -1.67617519458825
C          -10.12105375886772        0.67256008888029       -1.73942159151267
C           -9.26529674140555        1.68725906715931       -1.34377923263835
C           -7.97693528535292        1.41809920668681       -0.86654934732958
C           -7.06781383888172        2.45653601401317       -0.40848029423831
C           -7.46217957171097        3.78982666399304       -0.33535607445895
C           -6.62595827720162        4.78910840365325        0.12792143205224
C           -5.33492977982320        4.47161739558083        0.56309956214440
C           -4.89641355513084        3.17932691210737        0.50806796698054
C           -5.72295638535294        2.13304978026336        0.01299075630045
C           -5.32650527558898        0.79841013333398       -0.05516897044646
N           -4.15694288854890        0.13837460392795        0.25157650947771
C           -2.96697859349325        0.66638841252061        0.77279003423231
C           -2.19011855792302        1.54645765513001        0.01707836094045
C           -1.00995476062433        2.04210126117115        0.53692173675180
C           -0.59355572655670        1.67138595613342        1.80714685883824
C           -1.36159832574367        0.79323145195914        2.55654667159634
C           -2.54164273019254        0.28717203055757        2.04659400609992
C           -2.10365007848706       -2.16792244271229        0.19494003042214
H           -0.46885825085703       -4.52523492126673       -1.85985633954472
H            1.17781214152271       -4.64072357590464       -2.50138696998911
H            0.65601686843848       -5.72322143160798       -1.21659502210548
H            3.08893542339231       -3.93428311685164       -1.18053926536986
H            4.90505362361366       -4.28445102473447        0.75679713746031
H            7.33596699720513       -3.87560569985140        0.68466633254380
H            8.19825611440699       -1.60135350748300        0.26576254092678
H            4.98968927985616        1.02481378325725        1.98151931911737
H            4.63753438043737        3.30067401157008        2.86328818774666
H            5.79909128624514        5.22581079165874        1.88994030852820
H            7.37650158192119        4.92948251738178        0.00945109796431
H            8.95602617448232        3.92296919174855       -2.01233255453100
H           10.10817603898217        2.47489248525157       -3.65216994927061
H            9.66485179579647        0.06679319127195       -3.72301199839304
H            8.08396673951797       -0.98324703781413       -2.15003389599690
H            4.19147838407902       -0.15779848295728       -0.07497305482139
H            1.91916129359347       -0.86232307535341        3.15404697834581
H            3.57864511937153       -1.07146588600332        2.57439620320800
H            2.53179812871693        0.16361691187618        1.86259619448144
H            0.03203906340227       -1.61574356729375        1.85866474505590
H           -1.17437750866469       -5.40088179786653        0.53397752656080
H           -3.62173412459259       -5.71046546356492        0.43706059502577
H           -5.11244115490407       -3.75248579702821        0.21918639392727
H           -8.10358509223163       -1.97606091413516       -1.17181654805775
H          -10.40069756031321       -1.44189128147607       -1.98096050612608
H          -11.10761315139149        0.92524520317856       -2.10061204910054
H           -9.61935721138606        2.70286778672610       -1.41690308332469
H           -8.45892571613148        4.07036732309980       -0.63632042061474
H           -6.97468978787268        5.80989863322340        0.16617257327690
H           -4.68919550904452        5.24714854971312        0.94817142614946
H           -3.90920353261642        2.93727846903474        0.86448135872065
H           -2.51919085754437        1.82600098399091       -0.97365388368908
H           -0.41003263671195        2.71798603383756       -0.05443054593327
H            0.32705725913679        2.06482097829110        2.20978823899083
H           -1.04399705985641        0.50546678579231        3.54803769302689
H           -3.14428364178059       -0.40073513037987        2.62190119817875
H           -1.66163906613466       -1.19450400537547        0.05818234297172

          :  Hamiltonian                  GFN2-xTB          :
         :: gradient norm              0.000049160872 Eh/a0 ::
         :: HOMO-LUMO gap              0.515694208297 eV    ::
         :: SCC energy              -143.834168139759 Eh    ::
         :: -> dispersion             -0.134545662986 Eh    ::
         :: -> Gsolv                  -0.057044847005 Eh    ::
         :: repulsion energy           2.642274946470 Eh    ::

    * Orbital Energies and Occupations

         #    Occupation            Energy/Eh            Energy/eV
      -------------------------------------------------------------
         1        2.0000           -0.6841011             -18.6153
       ...           ...                  ...                  ...
       121        2.0000           -0.4073211             -11.0838
       122        2.0000           -0.4069121             -11.0726
       123        2.0000           -0.4027615             -10.9597
       124        2.0000           -0.3996601             -10.8753
       125        2.0000           -0.3972800             -10.8105
       126        2.0000           -0.3895332             -10.5997
       127        2.0000           -0.3844742             -10.4621
       128        2.0000           -0.3809633             -10.3665
       129        2.0000           -0.3808291             -10.3629
       130        2.0000           -0.3775348             -10.2732
       131        1.9379           -0.3642495              -9.9117
       132        1.0621           -0.3590907              -9.7714
       133        1.0000           -0.2722112              -7.4072 (HOMO)
       134        0.0000           -0.2532597              -6.8915 (LUMO)
       135        0.0000           -0.2483255              -6.7573
       136                         -0.2473597              -6.7310
       137                         -0.2439830              -6.6391
       138                         -0.2335558              -6.3554
       139                         -0.2334239              -6.3518
       140                         -0.2327594              -6.3337
       141                         -0.2243262              -6.1042
       142                         -0.2230445              -6.0693
       143                         -0.2159191              -5.8755
       144                         -0.2103612              -5.7242
       ...                                ...                  ...
       261                          0.7423723              20.2010
      -------------------------------------------------------------
                  HL-Gap            0.0189516 Eh            0.5157 eV

     #   Z          covCN         q      C6AA      α(0)
     1   6 C        3.757    -0.107    22.598     6.778
     2   6 C        2.966     0.009    27.818     8.651
     3   6 C        2.932    -0.048    29.186     8.860
     4   6 C        2.980    -0.004    28.122     8.699
     5   6 C        2.977     0.017    27.615     8.620
     6   6 C        2.924    -0.037    28.930     8.821
     7   6 C        2.918    -0.029    28.725     8.789
     8   6 C        2.922    -0.045    29.118     8.849
     9   6 C        2.911     0.062    26.606     8.458
    10   7 N        2.802    -0.040    22.018     6.969
    11   6 C        3.076     0.048    26.848     8.495
    12   6 C        2.910    -0.051    29.274     8.872
    13   6 C        2.923    -0.035    28.862     8.810
    14   6 C        2.920    -0.041    29.022     8.834
    15   6 C        2.912    -0.034    28.844     8.807
    16   6 C        3.067    -0.018    28.381     8.736
    17   6 C        3.067    -0.018    28.380     8.735
    18   6 C        2.912    -0.034    28.844     8.807
    19   6 C        2.920    -0.041    29.018     8.834
    20   6 C        2.923    -0.034    28.856     8.809
    21   6 C        2.909    -0.050    29.242     8.867
    22   6 C        3.076     0.048    26.849     8.495
    23   6 C        2.927    -0.046    29.135     8.852
    24   6 C        2.966     0.008    27.849     8.656
    25   6 C        3.758    -0.104    22.545     6.770
    26   6 C        2.933    -0.048    29.188     8.860
    27   6 C        2.980    -0.004    28.121     8.699
    28   6 C        2.971     0.012    27.739     8.639
    29   6 C        2.920    -0.040    28.990     8.829
    30   6 C        2.910    -0.032    28.797     8.799
    31   6 C        2.925    -0.036    28.902     8.816
    32   6 C        2.966    -0.010    28.253     8.719
    33   6 C        3.130     0.128    25.012     8.188
    34   7 N        1.874    -0.312    28.950     7.976
    35   6 C        3.160     0.088    25.749     8.295
    36   6 C        2.982    -0.007    28.180     8.708
    37   6 C        2.923    -0.028    28.696     8.785
    38   6 C        2.915    -0.034    28.842     8.807
    39   6 C        2.917    -0.027    28.668     8.780
    40   6 C        2.922    -0.037    28.930     8.820
    41   6 C        2.976     0.001    28.012     8.682
    42   6 C        2.975    -0.006    28.173     8.706
    43   6 C        2.918    -0.033    28.812     8.802
    44   6 C        2.915    -0.036    28.901     8.816
    45   6 C        2.912    -0.034    28.835     8.805
    46   6 C        2.916    -0.038    28.956     8.824
    47   6 C        2.970    -0.018    28.461     8.751
    48   6 C        3.021     0.042    27.044     8.530
    49   7 N        2.805    -0.080    22.788     7.090
    50   6 C        2.909     0.065    26.540     8.448
    51   6 C        2.920    -0.041    29.028     8.835
    52   6 C        2.919    -0.029    28.718     8.788
    53   6 C        2.919    -0.034    28.840     8.806
    54   6 C        2.919    -0.026    28.656     8.778
    55   6 C        2.921    -0.041    29.012     8.833
    56   6 C        2.924    -0.049    29.209     8.863
    57   1 H        0.925     0.043     2.409     2.427
    58   1 H        0.925     0.044     2.392     2.418
    59   1 H        0.924     0.049     2.332     2.388
    60   1 H        0.925     0.033     2.546     2.495
    61   1 H        0.926     0.039     2.456     2.451
    62   1 H        0.926     0.040     2.450     2.448
    63   1 H        0.926     0.041     2.438     2.442
    64   1 H        0.926     0.036     2.499     2.472
    65   1 H        0.926     0.032     2.557     2.501
    66   1 H        0.926     0.029     2.597     2.520
    67   1 H        0.926     0.031     2.569     2.506
    68   1 H        0.926     0.032     2.561     2.502
    69   1 H        0.926     0.030     2.593     2.518
    70   1 H        0.926     0.032     2.564     2.504
    71   1 H        0.926     0.032     2.554     2.499
    72   1 H        0.926     0.044     2.397     2.421
    73   1 H        0.925     0.044     2.398     2.421
    74   1 H        0.925     0.041     2.432     2.439
    75   1 H        0.925     0.049     2.337     2.391
    76   1 H        0.925     0.029     2.596     2.520
    77   1 H        0.926     0.037     2.488     2.467
    78   1 H        0.926     0.033     2.543     2.494
    79   1 H        0.926     0.044     2.400     2.423
    80   1 H        0.926     0.047     2.352     2.398
    81   1 H        0.926     0.037     2.484     2.465
    82   1 H        0.926     0.038     2.469     2.457
    83   1 H        0.926     0.038     2.469     2.457
    84   1 H        0.926     0.037     2.489     2.467
    85   1 H        0.926     0.032     2.555     2.499
    86   1 H        0.926     0.031     2.578     2.511
    87   1 H        0.926     0.031     2.567     2.505
    88   1 H        0.926     0.035     2.518     2.481
    89   1 H        0.926     0.040     2.453     2.449
    90   1 H        0.926     0.041     2.431     2.438
    91   1 H        0.926     0.040     2.453     2.449
    92   1 H        0.926     0.031     2.576     2.510
    93   1 H        0.926     0.025     2.655     2.548

molecular dipole:
                 x           y           z       tot (Debye)
 q only:        1.423      -0.105       0.240
   full:        1.525       0.210       0.287       3.979

 projected vibrational frequencies (cm⁻¹)
eigval :       -0.00    -0.00    -0.00    -0.00     0.00     0.00
eigval :        6.65     9.05    11.43    18.47    22.24    27.53
eigval :       36.24    41.94    48.04    57.68    59.80    64.51
eigval :       69.31    75.86    85.76    92.10    96.73   104.96
eigval :      114.56   127.54   128.38   141.54   143.41   147.14
eigval :      158.26   174.83   194.33   209.66   213.30   219.73
eigval :      226.31   230.48   238.26   254.91   258.59   266.03
eigval :      270.66   276.11   280.35   284.81   304.38   315.60
eigval :      329.07   360.72   377.23   377.89   387.14   390.99
eigval :      392.94   397.44   402.81   408.88   412.25   421.89
eigval :      431.05   434.02   436.46   439.48   453.94   459.84
eigval :      476.94   483.14   492.83   513.06   516.61   516.68
eigval :      523.21   539.45   540.54   557.86   578.69   583.08
eigval :      587.72   593.05   599.51   609.49   617.46   624.67
eigval :      629.80   640.95   642.32   646.91   654.16   658.21
eigval :      661.81   671.58   675.64   678.69   690.23   693.79
eigval :      702.99   708.57   720.29   734.72   739.82   750.82
eigval :      757.06   759.00   762.58   763.88   766.37   777.68
eigval :      791.63   800.53   827.22   835.84   839.02   851.77
eigval :      853.34   866.38   869.52   870.77   873.54   888.85
eigval :      891.74   892.58   893.51   896.30   900.39   904.05
eigval :      904.19   905.84   906.87   907.68   913.25   913.95
eigval :      916.36   918.10   921.65   923.99   929.94   931.11
eigval :      936.89   949.00   977.29   984.87   998.48  1007.75
eigval :     1009.95  1018.17  1028.48  1031.32  1032.77  1045.62
eigval :     1067.27  1070.52  1074.26  1074.87  1077.74  1084.55
eigval :     1096.65  1114.92  1115.13  1116.50  1126.17  1128.13
eigval :     1147.77  1147.92  1165.85  1169.65  1172.42  1174.50
eigval :     1175.33  1177.44  1179.31  1181.00  1181.82  1188.40
eigval :     1193.82  1197.83  1202.55  1230.01  1233.06  1235.17
eigval :     1242.45  1251.23  1258.18  1259.25  1262.76  1263.82
eigval :     1271.68  1276.97  1296.65  1297.65  1311.69  1313.62
eigval :     1314.60  1317.83  1327.05  1332.67  1342.72  1344.79
eigval :     1352.37  1353.61  1355.65  1359.98  1371.92  1386.53
eigval :     1389.76  1400.45  1402.20  1403.96  1412.14  1419.41
eigval :     1421.51  1427.37  1430.93  1436.14  1445.03  1466.53
eigval :     1466.90  1471.15  1479.76  1480.82  1481.48  1484.99
eigval :     1485.75  1489.01  1489.78  1493.49  1513.82  1533.46
eigval :     1542.74  1549.16  1553.50  1554.49  1558.51  1564.50
eigval :     1567.86  1571.75  1583.30  1584.81  1586.78  1591.29
eigval :     1597.52  1608.25  2992.57  2995.88  3024.55  3029.20
eigval :     3033.19  3041.13  3064.28  3070.63  3070.88  3072.04
eigval :     3072.58  3072.95  3074.77  3074.97  3075.53  3076.85
eigval :     3077.87  3078.71  3084.31  3085.08  3085.96  3086.26
eigval :     3086.35  3087.43  3088.53  3092.89  3093.91  3095.93
eigval :     3097.55  3098.89  3101.79  3101.80  3102.40  3107.51
eigval :     3109.81  3115.30  3126.67

   temp. (K)  partition function   enthalpy   heat capacity  entropy
                                   cal/mol     cal/K/mol   cal/K/mol   J/K/mol
 298.15  VIB  0.213E+22            26903.859    169.675    168.397
         ROT  0.155E+09              888.752      2.981     40.456
         INT  0.329E+30            27792.611    172.656    208.853
         TR   0.185E+29             1481.254      4.968     45.565
         TOT                       29273.8654   177.6244   254.4179  1064.4846

       T/K    H(0)-H(T)+PV         H(T)/Eh          T*S/Eh         G(T)/Eh
   ------------------------------------------------------------------------
    298.15    0.466509E-01    0.765589E+00    0.120882E+00    0.644707E+00
   ------------------------------------------------------------------------

         :::::::::::::::::::::::::::::::::::::::::::::::::::::
         ::                  THERMODYNAMIC                  ::
         :::::::::::::::::::::::::::::::::::::::::::::::::::::
         :: total free energy        -140.547186385288 Eh   ::
         ::.................................................::
         :: total energy             -141.191893191707 Eh   ::
         :: zero point energy           0.718938097001 Eh   ::
         :: G(RRHO) w/o ZPVE           -0.074231290582 Eh   ::
         :: G(RRHO) contrib.            0.644706806419 Eh   ::
         :::::::::::::::::::::::::::::::::::::::::::::::::::::

           -------------------------------------------------
          | TOTAL ENERGY             -141.191893191707 Eh   |
          | TOTAL ENTHALPY           -140.426304220749 Eh   |
          | TOTAL FREE ENERGY        -140.547186385288 Eh   |
          | GRADIENT NORM               0.000049347765 Eh/α |
          | HOMO-LUMO GAP               0.515698758527 eV   |
           -------------------------------------------------

 * finished run on 2025/08/25 at 20:43:27.113
