   * xtb version 6.7.1 (edcfbbe) compiled by 'albert@albert-system' on 2024-07-22

   ID    Z sym.   atoms
    1    6 C      1-9, 11-33, 35-48, 50-56
    2    7 N      10, 34, 49
    3    1 H      57-93

          program call               : xtb data2507/toluene/mP2MPC/mP2MPC_toluene_S0_crest.xyz --gfn 2 --gbsa toluene --ohess vtight --parallel 40 --molden --ceasefiles --namespace data2507/toluene/mP2MPC/mP2MPC_toluene_S0_finalOpt
      * Solvation model:               GBSA
        Solvent                        toluene
        Solvent mass                       9.2140E+01 g/mol
          :  Hamiltonian                  GFN2-xTB          :
 * total energy  :  -141.2860898 Eh     change       -0.2626678E-08 Eh
 * total energy  :  -141.2861502 Eh     change       -0.6042948E-04 Eh
 * total energy  :  -141.2862092 Eh     change       -0.5904330E-04 Eh
 * total energy  :  -141.2862625 Eh     change       -0.5331160E-04 Eh
 * total energy  :  -141.2863223 Eh     change       -0.5975126E-04 Eh
 * total energy  :  -141.2864293 Eh     change       -0.1069891E-03 Eh
 * total energy  :  -141.2864651 Eh     change       -0.3583435E-04 Eh
 * total energy  :  -141.2864869 Eh     change       -0.2182004E-04 Eh
 * total energy  :  -141.2865005 Eh     change       -0.1360867E-04 Eh
 * total energy  :  -141.2865135 Eh     change       -0.1299257E-04 Eh
 * total energy  :  -141.2867764 Eh     change       -0.1467432E-05 Eh
 * total energy  :  -141.2867777 Eh     change       -0.1287695E-05 Eh
 * total energy  :  -141.2867787 Eh     change       -0.9414654E-06 Eh
 * total energy  :  -141.2867794 Eh     change       -0.7324578E-06 Eh
 * total energy  :  -141.2867801 Eh     change       -0.7377801E-06 Eh
 * total energy  :  -141.2867810 Eh     change       -0.8938761E-06 Eh
 * total energy  :  -141.2867820 Eh     change       -0.9749531E-06 Eh
 * total energy  :  -141.2867829 Eh     change       -0.8759227E-06 Eh
 * total energy  :  -141.2867829 Eh     change       -0.1018213E-07 Eh
   *** GEOMETRY OPTIMIZATION CONVERGED AFTER 94 ITERATIONS ***

 final structure:
================
93
 xtb: 6.7.1 (edcfbbe)
C            1.06686997420255       -2.79449027093300       -2.66081610579806
C            1.29159425571820       -2.64223387706054       -1.18533925475299
C            2.56601714544056       -2.36693789205637       -0.71346912883507
C            2.84201543508712       -2.20223620731026        0.63920436002302
C            4.23448810373238       -1.92550333391568        1.04583142234105
C            4.90919590193512       -2.76180770281804        1.93083912387356
C            6.22050701257170       -2.49535394983562        2.28221908912372
C            6.87388264466807       -1.38862210843501        1.77030027597735
C            6.21200067837824       -0.55137185029639        0.87708808565478
N            6.86248426626287        0.57783301548963        0.35178440635784
C            6.37632856022261        1.86955087376325        0.37306657174064
C            5.19351565311587        2.36140807217506        0.90811346657887
C            4.95915859634750        3.72016672068023        0.81663330919971
C            5.87741778655764        4.57877321222765        0.21484174775466
C            7.06497819755343        4.09884712383802       -0.30062886989959
C            7.32412641813346        2.73630886241428       -0.21993949781662
C            8.43289275589838        1.91554459890848       -0.61940575144484
C            9.63973723748742        2.18054336592943       -1.25450237405186
C           10.49622856034118        1.12920105180337       -1.51451524342117
C           10.15542210965400       -0.17602331369065       -1.16359620806266
C            8.96160789266710       -0.46482404810389       -0.53056664521461
C            8.10682746318032        0.59100823401809       -0.24458332521538
C            4.90084674446954       -0.82964284518608        0.51012784796321
C            1.79822641401919       -2.28212434380326        1.56468153042759
C            2.01219157892770       -2.06830998004238        3.03441397686450
C            0.52170744023060       -2.54466691022704        1.09136046542512
C            0.25136957120936       -2.74338186951612       -0.25777908877587
C           -1.14292199716594       -3.00306515049662       -0.66845168887066
C           -1.50345440500307       -4.14302171274665       -1.37984339869192
C           -2.82573259642492       -4.35130858277423       -1.73531704984768
C           -3.79077821865806       -3.41370391055725       -1.42221754384801
C           -3.44372755729188       -2.25548969911479       -0.72382266999471
C           -4.48890550055776       -1.28532160024291       -0.43690383632340
N           -5.74264166251251       -1.62106400076625       -0.24826975383497
C           -6.41234985297534       -0.45978368625779       -0.02409735231850
C           -7.79718666996487       -0.29102644102073        0.25721992919477
C           -8.66035249062859       -1.38920167941693        0.34344809844982
C           -9.98872478273586       -1.20756220050809        0.63783027820932
C          -10.47036879543717        0.08196390560735        0.85660571389911
C           -9.63238895995180        1.16932588706088        0.76908266754414
C           -8.27053968169822        1.02603802380547        0.45963799072601
C           -7.36821214761111        2.15756313199629        0.32580367181195
C           -7.82200845111963        3.47896671364914        0.45079129743239
C           -6.98456123218899        4.55743134005967        0.28810088074593
C           -5.64284075487747        4.35903596870054       -0.02302882645120
C           -5.15665710723676        3.08084445934069       -0.14852509143978
C           -5.98917303380518        1.96681972811926        0.03329344566746
C           -5.53677178995934        0.62262286312290       -0.09075077127378
N           -4.29915279473830        0.07652339661109       -0.34774209683486
C           -3.05901446766852        0.73561760046350       -0.50630960741359
C           -2.43407775649964        0.73684891089629       -1.74758201332579
C           -1.18911519060224        1.32498340357990       -1.88653313861083
C           -0.56902398137543        1.91142298900751       -0.79579363961519
C           -1.19833646514100        1.91867581806138        0.43910391039094
C           -2.44153254817052        1.33161832872637        0.58986958484391
C           -2.12305474369732       -2.08084656672634       -0.32249887878358
H            1.24215623210173       -3.82634455050415       -2.96661871824543
H            0.04807185029330       -2.52883904502016       -2.93223464716489
H            1.75865685532643       -2.16268438911473       -3.21437246047302
H            3.38071117445492       -2.28657196032606       -1.42029827508538
H            4.40703805494948       -3.62931218089669        2.33091164546170
H            6.73707547832913       -3.14948740727279        2.96930668489303
H            7.88756432587300       -1.16228087524808        2.06530244861773
H            4.48180209564615        1.70735298908288        1.38912081026250
H            4.04506004372054        4.12713960818050        1.22437085274870
H            5.65640823249791        5.63490539661651        0.16095847550971
H            7.78319651766236        4.76608791115473       -0.75378205155469
H            9.89737317313298        3.18961641026007       -1.54047526917543
H           11.44090872284854        1.31446126756049       -2.00479277928865
H           10.83910748701979       -0.98028755546759       -1.39416784654279
H            8.70027925157306       -1.48107377287998       -0.27612189806894
H            4.39412030885475       -0.18554403926866       -0.19362604116226
H            2.17506515119267       -3.02216216455704        3.53684822253685
H            2.87735083584489       -1.43616039759507        3.21932046610497
H            1.13308095834434       -1.60650424655590        3.47962521487711
H           -0.29613239802734       -2.60892000014490        1.79638863989846
H           -0.75165903973835       -4.87462411089172       -1.63457316412476
H           -3.10349795211674       -5.24727412589372       -2.27118898043365
H           -4.82097069998873       -3.55528799427122       -1.71011709979744
H           -8.24532770201213       -2.37160596788878        0.17611129664783
H          -10.65698370803806       -2.05361013602117        0.70503147675604
H          -11.51352192912973        0.23014995844907        1.09673691955167
H          -10.04988468504247        2.14734863258940        0.94840399730795
H           -8.85918495986590        3.67019194555054        0.67379122933766
H           -7.37222894302968        5.56039289097092        0.39161903979536
H           -4.98669679752929        5.20446493266406       -0.16913381436648
H           -4.12003659549515        2.93017919437928       -0.40418295411093
H           -2.92389010997953        0.26923185786795       -2.58915987521466
H           -0.70241510149759        1.32159619923286       -2.84998420006988
H            0.40525802582476        2.36255887605441       -0.90672818914391
H           -0.71815929161756        2.37643455648262        1.29086761109875
H           -2.93955221927826        1.32458319258988        1.54903466650405
H           -1.83512254110617       -1.22176349193846        0.26251747482541

          :  Hamiltonian                  GFN2-xTB          :
         :: gradient norm              0.000075563352 Eh/a0 ::
         :: HOMO-LUMO gap              2.729158688927 eV    ::
         :: SCC energy              -143.948941307314 Eh    ::
         :: -> dispersion             -0.132294188797 Eh    ::
         :: -> Gsolv                  -0.059398909162 Eh    ::
         :: repulsion energy           2.662158406502 Eh    ::

    * Orbital Energies and Occupations

         #    Occupation            Energy/Eh            Energy/eV
      -------------------------------------------------------------
         1        2.0000           -0.6879573             -18.7203
       ...           ...                  ...                  ...
       120        2.0000           -0.4093787             -11.1398
       121        2.0000           -0.4091591             -11.1338
       122        2.0000           -0.4049366             -11.0189
       123        2.0000           -0.4045788             -11.0092
       124        2.0000           -0.4015119             -10.9257
       125        2.0000           -0.3984395             -10.8421
       126        2.0000           -0.3911042             -10.6425
       127        2.0000           -0.3831061             -10.4248
       128        2.0000           -0.3798271             -10.3356
       129        2.0000           -0.3793501             -10.3226
       130        2.0000           -0.3780163             -10.2863
       131        2.0000           -0.3649206              -9.9300
       132        2.0000           -0.3615345              -9.8379 (HOMO)
       133                         -0.2612397              -7.1087 (LUMO)
       134                         -0.2510251              -6.8307
       135                         -0.2468946              -6.7183
       136                         -0.2447355              -6.6596
       137                         -0.2409825              -6.5575
       138                         -0.2402035              -6.5363
       139                         -0.2394108              -6.5147
       140                         -0.2310497              -6.2872
       141                         -0.2267437              -6.1700
       142                         -0.2214402              -6.0257
       143                         -0.2172798              -5.9125
       ...                                ...                  ...
       261                          0.7449956              20.2724
      -------------------------------------------------------------
                  HL-Gap            0.1002948 Eh            2.7292 eV

     #   Z          covCN         q      C6AA      α(0)
     1   6 C        3.757    -0.108    22.608     6.779
     2   6 C        2.966     0.009    27.821     8.652
     3   6 C        2.932    -0.047    29.174     8.858
     4   6 C        2.980    -0.004    28.109     8.697
     5   6 C        2.977     0.016    27.641     8.624
     6   6 C        2.923    -0.037    28.924     8.820
     7   6 C        2.918    -0.030    28.747     8.792
     8   6 C        2.922    -0.046    29.139     8.852
     9   6 C        2.911     0.063    26.592     8.456
    10   7 N        2.802    -0.048    22.163     6.992
    11   6 C        3.076     0.048    26.847     8.495
    12   6 C        2.909    -0.052    29.293     8.875
    13   6 C        2.924    -0.036    28.886     8.814
    14   6 C        2.919    -0.043    29.076     8.842
    15   6 C        2.912    -0.035    28.878     8.812
    16   6 C        3.067    -0.019    28.418     8.741
    17   6 C        3.067    -0.019    28.423     8.742
    18   6 C        2.912    -0.035    28.878     8.812
    19   6 C        2.919    -0.043    29.073     8.842
    20   6 C        2.924    -0.035    28.883     8.813
    21   6 C        2.909    -0.052    29.293     8.875
    22   6 C        3.076     0.048    26.847     8.495
    23   6 C        2.928    -0.048    29.196     8.861
    24   6 C        2.966     0.009    27.821     8.652
    25   6 C        3.757    -0.107    22.594     6.777
    26   6 C        2.932    -0.047    29.176     8.858
    27   6 C        2.980    -0.004    28.127     8.699
    28   6 C        2.977     0.014    27.691     8.632
    29   6 C        2.923    -0.033    28.822     8.804
    30   6 C        2.917    -0.030    28.745     8.792
    31   6 C        2.928    -0.033    28.811     8.803
    32   6 C        2.972    -0.003    28.098     8.695
    33   6 C        3.189     0.137    24.582     8.088
    34   7 N        1.895    -0.320    29.137     8.003
    35   6 C        3.203     0.060    26.096     8.322
    36   6 C        2.985    -0.003    28.102     8.696
    37   6 C        2.921    -0.034    28.836     8.806
    38   6 C        2.917    -0.032    28.797     8.800
    39   6 C        2.917    -0.034    28.858     8.809
    40   6 C        2.921    -0.037    28.910     8.817
    41   6 C        2.979    -0.005    28.144     8.702
    42   6 C        2.979    -0.002    28.065     8.690
    43   6 C        2.922    -0.035    28.876     8.812
    44   6 C        2.916    -0.034    28.852     8.808
    45   6 C        2.917    -0.033    28.812     8.802
    46   6 C        2.919    -0.041    29.027     8.835
    47   6 C        2.978    -0.005    28.153     8.703
    48   6 C        3.074     0.022    27.428     8.587
    49   7 N        2.840    -0.056    22.317     7.016
    50   6 C        2.912     0.068    26.485     8.439
    51   6 C        2.921    -0.037    28.929     8.820
    52   6 C        2.920    -0.024    28.608     8.771
    53   6 C        2.919    -0.028    28.693     8.784
    54   6 C        2.920    -0.026    28.643     8.776
    55   6 C        2.921    -0.037    28.918     8.818
    56   6 C        2.930    -0.043    29.056     8.840
    57   1 H        0.924     0.049     2.326     2.385
    58   1 H        0.925     0.042     2.420     2.432
    59   1 H        0.925     0.045     2.381     2.413
    60   1 H        0.925     0.033     2.542     2.493
    61   1 H        0.926     0.041     2.440     2.443
    62   1 H        0.926     0.039     2.468     2.457
    63   1 H        0.926     0.039     2.468     2.457
    64   1 H        0.926     0.030     2.587     2.515
    65   1 H        0.926     0.029     2.595     2.519
    66   1 H        0.926     0.027     2.634     2.538
    67   1 H        0.926     0.029     2.605     2.524
    68   1 H        0.926     0.029     2.603     2.523
    69   1 H        0.926     0.027     2.636     2.539
    70   1 H        0.926     0.029     2.601     2.522
    71   1 H        0.926     0.029     2.595     2.519
    72   1 H        0.926     0.041     2.438     2.442
    73   1 H        0.924     0.049     2.335     2.389
    74   1 H        0.925     0.043     2.406     2.426
    75   1 H        0.925     0.044     2.403     2.424
    76   1 H        0.925     0.029     2.594     2.519
    77   1 H        0.926     0.042     2.422     2.434
    78   1 H        0.926     0.039     2.461     2.453
    79   1 H        0.926     0.043     2.406     2.425
    80   1 H        0.926     0.043     2.411     2.428
    81   1 H        0.926     0.032     2.555     2.500
    82   1 H        0.926     0.032     2.562     2.503
    83   1 H        0.926     0.034     2.525     2.485
    84   1 H        0.926     0.037     2.493     2.469
    85   1 H        0.926     0.032     2.551     2.498
    86   1 H        0.926     0.032     2.563     2.504
    87   1 H        0.926     0.029     2.600     2.521
    88   1 H        0.926     0.038     2.482     2.464
    89   1 H        0.926     0.048     2.348     2.396
    90   1 H        0.926     0.048     2.349     2.397
    91   1 H        0.926     0.047     2.354     2.399
    92   1 H        0.926     0.041     2.440     2.443
    93   1 H        0.926     0.029     2.598     2.521

molecular dipole:
                 x           y           z       tot (Debye)
 q only:        1.046      -0.156       0.021
   full:        1.158       0.142       0.046       2.967

 projected vibrational frequencies (cm⁻¹)
eigval :       -0.00    -0.00     0.00     0.00     0.00     0.00
eigval :        4.83    10.87    12.47    20.12    22.60    25.30
eigval :       32.44    43.40    49.76    53.85    58.97    63.83
eigval :       75.79    80.53    81.60    91.12    94.29   104.38
eigval :      112.63   127.66   131.11   143.16   144.01   153.47
eigval :      165.08   181.22   197.10   210.50   221.70   227.00
eigval :      233.29   240.06   244.68   257.36   259.62   267.40
eigval :      271.64   272.75   279.13   287.55   301.06   324.13
eigval :      338.48   370.39   377.90   379.61   397.30   397.87
eigval :      401.09   406.03   407.69   423.26   428.75   435.44
eigval :      436.67   439.86   442.15   456.44   457.13   470.41
eigval :      477.16   491.82   514.70   518.20   520.17   530.43
eigval :      534.30   540.77   557.29   577.69   585.31   587.68
eigval :      592.25   603.74   604.93   615.95   631.70   636.98
eigval :      645.40   647.77   660.56   667.53   670.18   673.57
eigval :      679.86   680.70   683.88   689.90   697.39   699.00
eigval :      708.34   712.93   736.26   741.42   752.94   760.37
eigval :      764.54   768.04   768.60   780.08   781.64   791.68
eigval :      800.39   805.14   830.09   860.61   866.20   868.50
eigval :      872.39   872.42   875.85   885.61   892.91   895.35
eigval :      898.54   901.80   901.88   902.81   905.99   906.21
eigval :      909.55   913.27   921.51   922.27   922.43   922.95
eigval :      926.59   928.80   929.30   933.45   934.71   938.76
eigval :      951.65   974.39   998.98  1006.24  1009.06  1011.12
eigval :     1018.39  1027.03  1029.87  1032.44  1035.99  1067.90
eigval :     1068.59  1072.20  1077.95  1082.23  1084.94  1106.54
eigval :     1113.33  1116.03  1120.21  1125.27  1131.86  1149.21
eigval :     1150.57  1166.22  1170.06  1177.50  1178.79  1179.72
eigval :     1180.43  1180.67  1182.75  1186.53  1187.39  1194.70
eigval :     1203.00  1208.22  1234.27  1235.71  1251.09  1254.58
eigval :     1256.40  1257.77  1260.99  1265.05  1273.50  1281.68
eigval :     1298.15  1300.23  1303.12  1310.06  1311.77  1313.82
eigval :     1317.94  1326.30  1336.27  1338.40  1347.27  1355.42
eigval :     1358.91  1363.01  1372.38  1397.77  1402.07  1403.52
eigval :     1408.04  1411.10  1416.58  1417.34  1427.16  1429.04
eigval :     1431.40  1435.98  1441.27  1462.87  1472.88  1475.98
eigval :     1476.39  1479.19  1480.20  1482.32  1485.55  1487.38
eigval :     1508.33  1511.10  1513.11  1540.57  1559.42  1560.95
eigval :     1565.85  1570.83  1572.97  1575.07  1581.47  1586.84
eigval :     1588.66  1590.12  1590.89  1593.22  1597.24  1600.89
eigval :     1603.07  1613.31  2994.01  2995.47  3027.99  3028.59
eigval :     3038.99  3040.95  3064.11  3066.21  3069.28  3069.73
eigval :     3070.29  3072.80  3075.28  3075.79  3076.00  3076.88
eigval :     3078.33  3079.33  3082.10  3083.06  3083.08  3083.96
eigval :     3086.26  3086.78  3089.93  3091.22  3091.27  3092.39
eigval :     3092.77  3095.72  3097.87  3098.27  3101.65  3101.98
eigval :     3108.03  3108.92  3115.22

   temp. (K)  partition function   enthalpy   heat capacity  entropy
                                   cal/mol     cal/K/mol   cal/K/mol   J/K/mol
 298.15  VIB  0.147E+22            26528.906    167.249    166.235
         ROT  0.150E+09              888.752      2.981     40.390
         INT  0.221E+30            27417.658    170.230    206.625
         TR   0.185E+29             1481.254      4.968     45.565
         TOT                       28898.9118   175.1982   252.1895  1055.1611

       T/K    H(0)-H(T)+PV         H(T)/Eh          T*S/Eh         G(T)/Eh
   ------------------------------------------------------------------------
    298.15    0.460533E-01    0.770047E+00    0.119823E+00    0.650223E+00
   ------------------------------------------------------------------------

         :::::::::::::::::::::::::::::::::::::::::::::::::::::
         ::                  THERMODYNAMIC                  ::
         :::::::::::::::::::::::::::::::::::::::::::::::::::::
         :: total free energy        -140.636559451896 Eh   ::
         ::.................................................::
         :: total energy             -141.286782901679 Eh   ::
         :: zero point energy           0.723993494923 Eh   ::
         :: G(RRHO) w/o ZPVE           -0.073770045139 Eh   ::
         :: G(RRHO) contrib.            0.650223449783 Eh   ::
         :::::::::::::::::::::::::::::::::::::::::::::::::::::

           -------------------------------------------------
          | TOTAL ENERGY             -141.286782901679 Eh   |
          | TOTAL ENTHALPY           -140.516736059353 Eh   |
          | TOTAL FREE ENERGY        -140.636559451896 Eh   |
          | GRADIENT NORM               0.000075565670 Eh/α |
          | HOMO-LUMO GAP               2.729159283618 eV   |
           -------------------------------------------------

 * finished run on 2025/08/25 at 20:34:14.451
