   * xtb version 6.7.1 (edcfbbe) compiled by 'albert@albert-system' on 2024-07-22

   ID    Z sym.   atoms
    1    6 C      1-8, 10, 12-18, 20-32, 34-39, 41-55
    2    7 N      9, 19, 40
    3    8 O      11, 56
    4   16 S      33
    5    1 H      57-97

          program call               : xtb data2507/gas/m-PCzTPD/m-PCzTPD_gas_S0_crest.xyz --gfn 2 --ohess vtight --parallel 40 --molden --ceasefiles --namespace data2507/gas/m-PCzTPD/m-PCzTPD_gas_S0_finalOpt
          :  Hamiltonian                  GFN2-xTB          :
 * total energy  :  -148.2726256 Eh     change       -0.4896123E-08 Eh
 * total energy  :  -148.2726279 Eh     change       -0.2272834E-05 Eh
 * total energy  :  -148.2726301 Eh     change       -0.2261717E-05 Eh
 * total energy  :  -148.2726354 Eh     change       -0.5278745E-05 Eh
 * total energy  :  -148.2726376 Eh     change       -0.2166131E-05 Eh
 * total energy  :  -148.2726399 Eh     change       -0.2344643E-05 Eh
 * total energy  :  -148.2726454 Eh     change       -0.5542092E-05 Eh
 * total energy  :  -148.2726564 Eh     change       -0.1092088E-04 Eh
 * total energy  :  -148.2726648 Eh     change       -0.8452150E-05 Eh
 * total energy  :  -148.2726695 Eh     change       -0.4637630E-05 Eh
 * total energy  :  -148.2729722 Eh     change       -0.3512226E-06 Eh
 * total energy  :  -148.2729726 Eh     change       -0.3523226E-06 Eh
 * total energy  :  -148.2729729 Eh     change       -0.3410226E-06 Eh
 * total energy  :  -148.2729732 Eh     change       -0.3268061E-06 Eh
 * total energy  :  -148.2729735 Eh     change       -0.3016365E-06 Eh
 * total energy  :  -148.2729738 Eh     change       -0.2965773E-06 Eh
 * total energy  :  -148.2729742 Eh     change       -0.3268912E-06 Eh
 * total energy  :  -148.2729745 Eh     change       -0.3323440E-06 Eh
 * total energy  :  -148.2729745 Eh     change       -0.2925674E-08 Eh
   *** GEOMETRY OPTIMIZATION CONVERGED AFTER 94 ITERATIONS ***

 final structure:
================
97
 xtb: 6.7.1 (edcfbbe)
C           -5.90914213131575       -1.66742568090200        2.92698180715741
C           -4.53577479562107       -1.48218122297613        2.29587316067923
C           -3.86735498042910       -2.81743487230523        1.97810376668456
C           -2.53393245788295       -2.63249905638308        1.25748369943514
C           -1.76493203923343       -3.94607801722612        1.11877705426734
C           -0.45280407243670       -3.77353904246381        0.35021632522381
C           -0.67358891239103       -3.68323511926996       -1.16199102393119
C            0.42721804014405       -2.89289567636418       -1.87028691250548
N            0.45260991040650       -1.51722597134104       -1.41862109836847
C           -0.63727129764226       -0.66440255519503       -1.51968865324332
O           -1.67258522978026       -0.92898484825953       -2.08178054736451
C           -0.20989063371915        0.57357207200962       -0.85928134807487
C           -0.75798790916838        1.79490543404811       -0.58908024459492
C           -2.11879481269317        2.25809239086430       -0.77358353331175
C           -2.37620707595534        3.58208949006557       -1.12856118982637
C           -3.67866636574406        4.00160897117450       -1.32038143759305
C           -4.73251395409913        3.12496412015721       -1.13881281281890
C           -4.48945866789564        1.81024619918663       -0.73964022614643
N           -5.56028696656002        0.94816566178624       -0.49021820082925
C           -6.67434371279569        1.26223289336373        0.26903743545697
C           -6.96847628543218        2.41886221009342        0.97653322653760
C           -8.14961643297568        2.45690659371830        1.69337504172889
C           -9.02025982558379        1.37042991803331        1.72045671902716
C           -8.71800211273367        0.20503262202004        1.04521831460806
C           -7.53602043210487        0.14352335558662        0.31992414099867
C           -6.90230407330531       -0.89662066323173       -0.44030763709912
C           -7.25541818391137       -2.20698549408532       -0.73422773732853
C           -6.39401619126757       -2.96722725733934       -1.49913032294812
C           -5.20611672618074       -2.42666988035920       -1.98506907002911
C           -4.83665396599750       -1.12280942821184       -1.71318334149173
C           -5.68263366468708       -0.36548435644321       -0.91665541629236
C           -3.17927711204739        1.37838825376265       -0.56780257286358
S            0.46259448353981        2.82223935009931        0.11753361150852
C            1.69913914026156        1.57675689486934        0.05632941026431
C            3.03012672157212        1.87663494751047        0.53773952366020
C            3.27036842458060        3.05550235660019        1.25063085399765
C            4.53971126042391        3.34725470993284        1.70786272469856
C            5.58973966331640        2.47916439735766        1.46775506869313
C            5.36823291366120        1.30725168646115        0.74539437103371
N            6.42722803457878        0.43392253046036        0.48534822750560
C            7.66985768458798        0.79797603093927        0.00078348405782
C            8.13537194749309        2.04223899602957       -0.39935093611705
C            9.42843149413545        2.12504489270202       -0.88038612825590
C           10.24323464286211        0.99954194352465       -0.97395419816116
C            9.77606747213052       -0.24607762496336       -0.60464296118735
C            8.47997732136689       -0.35407481901430       -0.11892509191642
C            7.68024616493982       -1.46369943248503        0.31968692427142
C            7.92902577712864       -2.82420524970334        0.44492833684084
C            6.92388858160327       -3.63695474853366        0.92864901495173
C            5.69066843542213       -3.10567630136678        1.29868559279997
C            5.42092236162868       -1.75540497477519        1.18588811825564
C            6.41836074445910       -0.93766111091079        0.67625804291532
C            4.09227438786268        1.00964011647995        0.28167104199277
C            1.16111709279251        0.44102755826454       -0.49587693599634
C            1.56890582540071       -0.93546607447512       -0.82954860072919
O            2.61724009564670       -1.51177173271576       -0.66177872101771
H           -6.56035031976529       -2.21982586263430        2.25368896185543
H           -6.37031692277711       -0.70365112549571        3.13168075274022
H           -5.83014570310740       -2.21982153829265        3.86102152875850
H           -3.89729865060529       -0.90850000086592        2.97270443020247
H           -4.64078249299591       -0.90957055466779        1.37372345527751
H           -4.53521444562265       -3.41145333596045        1.35019750036695
H           -3.70487937106467       -3.36869731228029        2.90778344796683
H           -1.91884519855422       -1.92025883496972        1.81601449049637
H           -2.72492093542293       -2.20531585860094        0.27064956995951
H           -2.38952075840634       -4.68395710186141        0.61103370567362
H           -1.54750858364928       -4.32895159903089        2.11859784607173
H            0.04101331374668       -2.86653526945331        0.70852503887260
H            0.21502331734309       -4.60980440045016        0.56661764048679
H           -1.62718398233050       -3.19778158001013       -1.37011969201389
H           -0.71183360289993       -4.68424247706757       -1.59371810742107
H            1.41493829780118       -3.30892120025312       -1.65665937966960
H            0.25402149623558       -2.90441085380883       -2.95114416453210
H           -1.55246576745823        4.26558069581413       -1.27129039998778
H           -3.87567299537067        5.01983007985957       -1.62042592024548
H           -5.74718531314295        3.44852380571987       -1.31297116008159
H           -6.29240556803447        3.26054480591693        0.98597419217989
H           -8.39972623649393        3.34858498455146        2.24929525497949
H           -9.93536588326527        1.44072178754923        2.28937457833569
H           -9.37970511107811       -0.64697915239602        1.08427556301654
H           -8.18503708714512       -2.61716230179807       -0.36846691668013
H           -6.64433061814869       -3.99184543072445       -1.73214983784638
H           -4.55484286831017       -3.03770630956381       -2.59215575169068
H           -3.91718502944106       -0.72339782018111       -2.10777491480808
H           -2.98323505635647        0.36991491690266       -0.24174364492871
H            2.45505923088738        3.73521573183271        1.45000055453944
H            4.71255981677403        4.25469879865110        2.26666833592450
H            6.57588872518034        2.69339920866530        1.85008439534350
H            7.50701564004163        2.91914923017760       -0.35312202184388
H            9.81352619429052        3.08398986675951       -1.19481061797933
H           11.24919079325194        1.10603140120952       -1.35189478642954
H           10.40002237206021       -1.12237240963049       -0.69539979017123
H            8.89081681928277       -3.23115037368451        0.17093196181612
H            7.09420827908851       -4.69866555164027        1.02993417953571
H            4.92593587866651       -3.76349330564522        1.68379973713022
H            4.46332688092997       -1.35962314533563        1.48362714296257
H            3.93432889801309        0.10774054425388       -0.28569453193782

          :  Hamiltonian                  GFN2-xTB          :
         :: gradient norm              0.000056913546 Eh/a0 ::
         :: HOMO-LUMO gap              1.507949865809 eV    ::
         :: SCC energy              -150.789170475093 Eh    ::
         :: -> dispersion             -0.139418201802 Eh    ::
         :: repulsion energy           2.516195986482 Eh    ::

    * Orbital Energies and Occupations

         #    Occupation            Energy/Eh            Energy/eV
      -------------------------------------------------------------
         1        2.0000           -0.7544787             -20.5304
       ...           ...                  ...                  ...
       125        2.0000           -0.4151735             -11.2974
       126        2.0000           -0.4145294             -11.2799
       127        2.0000           -0.4135363             -11.2529
       128        2.0000           -0.4132329             -11.2446
       129        2.0000           -0.4120938             -11.2136
       130        2.0000           -0.4102785             -11.1642
       131        2.0000           -0.4015417             -10.9265
       132        2.0000           -0.4007798             -10.9058
       133        2.0000           -0.3965249             -10.7900
       134        2.0000           -0.3752179             -10.2102
       135        2.0000           -0.3740664             -10.1789
       136        2.0000           -0.3617071              -9.8426
       137        2.0000           -0.3602572              -9.8031 (HOMO)
       138                         -0.3048411              -8.2951 (LUMO)
       139                         -0.2995626              -8.1515
       140                         -0.2469547              -6.7200
       141                         -0.2449915              -6.6666
       142                         -0.2384978              -6.4899
       143                         -0.2383831              -6.4867
       144                         -0.2368167              -6.4441
       145                         -0.2295943              -6.2476
       146                         -0.2216379              -6.0311
       147                         -0.2186742              -5.9504
       148                         -0.2172479              -5.9116
       ...                                ...                  ...
       270                          0.7516155              20.4525
      -------------------------------------------------------------
                  HL-Gap            0.0554161 Eh            1.5079 eV

     #   Z          covCN         q      C6AA      α(0)
     1   6 C        3.752    -0.100    22.478     6.761
     2   6 C        3.801    -0.050    21.476     6.598
     3   6 C        3.803    -0.059    21.629     6.621
     4   6 C        3.802    -0.054    21.540     6.608
     5   6 C        3.802    -0.059    21.635     6.622
     6   6 C        3.801    -0.056    21.576     6.613
     7   6 C        3.803    -0.066    21.766     6.642
     8   6 C        3.741     0.009    20.501     6.460
     9   7 N        2.802    -0.105    23.292     7.168
    10   6 C        2.821     0.282    22.235     7.726
    11   8 O        0.857    -0.395    21.580     6.228
    12   6 C        3.253    -0.052    28.171     8.588
    13   6 C        2.980     0.037    27.174     8.551
    14   6 C        2.998     0.014    27.686     8.631
    15   6 C        2.923    -0.036    28.898     8.816
    16   6 C        2.917    -0.026    28.655     8.778
    17   6 C        2.923    -0.041    29.009     8.833
    18   6 C        2.910     0.072    26.399     8.425
    19   7 N        2.801    -0.045    22.107     6.983
    20   6 C        3.071     0.046    26.888     8.502
    21   6 C        2.910    -0.052    29.292     8.875
    22   6 C        2.924    -0.034    28.853     8.809
    23   6 C        2.920    -0.041    29.019     8.834
    24   6 C        2.913    -0.032    28.808     8.801
    25   6 C        3.067    -0.014    28.294     8.722
    26   6 C        3.068    -0.015    28.305     8.724
    27   6 C        2.913    -0.033    28.824     8.804
    28   6 C        2.920    -0.040    28.999     8.831
    29   6 C        2.925    -0.030    28.750     8.793
    30   6 C        2.910    -0.053    29.320     8.879
    31   6 C        3.069     0.048    26.860     8.498
    32   6 C        2.928    -0.039    28.981     8.828
    33  16 S        2.393    -0.004   141.216    20.001
    34   6 C        2.981     0.035    27.204     8.556
    35   6 C        3.001     0.012    27.730     8.638
    36   6 C        2.925    -0.037    28.931     8.821
    37   6 C        2.917    -0.027    28.670     8.780
    38   6 C        2.922    -0.040    29.001     8.831
    39   6 C        2.911     0.071    26.419     8.428
    40   7 N        2.803    -0.042    22.060     6.976
    41   6 C        3.072     0.046    26.900     8.504
    42   6 C        2.910    -0.052    29.284     8.873
    43   6 C        2.924    -0.034    28.848     8.808
    44   6 C        2.920    -0.041    29.017     8.833
    45   6 C        2.913    -0.033    28.817     8.803
    46   6 C        3.067    -0.016    28.331     8.728
    47   6 C        3.068    -0.016    28.344     8.730
    48   6 C        2.913    -0.033    28.826     8.804
    49   6 C        2.920    -0.040    28.989     8.829
    50   6 C        2.925    -0.030    28.743     8.792
    51   6 C        2.910    -0.044    29.101     8.846
    52   6 C        3.071     0.048    26.861     8.498
    53   6 C        2.927    -0.051    29.255     8.870
    54   6 C        3.220    -0.053    28.561     8.689
    55   6 C        2.826     0.279    22.291     7.736
    56   8 O        0.857    -0.395    21.583     6.229
    57   1 H        0.925     0.035     2.511     2.478
    58   1 H        0.925     0.031     2.571     2.507
    59   1 H        0.925     0.033     2.549     2.497
    60   1 H        0.924     0.024     2.678     2.559
    61   1 H        0.924     0.027     2.636     2.539
    62   1 H        0.924     0.031     2.567     2.506
    63   1 H        0.924     0.029     2.599     2.521
    64   1 H        0.924     0.021     2.721     2.580
    65   1 H        0.924     0.030     2.583     2.513
    66   1 H        0.924     0.034     2.528     2.486
    67   1 H        0.924     0.031     2.570     2.507
    68   1 H        0.924     0.028     2.614     2.528
    69   1 H        0.924     0.033     2.542     2.493
    70   1 H        0.925     0.064     2.154     2.295
    71   1 H        0.924     0.041     2.442     2.444
    72   1 H        0.924     0.070     2.081     2.256
    73   1 H        0.924     0.053     2.281     2.362
    74   1 H        0.926     0.043     2.412     2.429
    75   1 H        0.926     0.043     2.414     2.430
    76   1 H        0.926     0.049     2.337     2.391
    77   1 H        0.926     0.025     2.653     2.547
    78   1 H        0.926     0.028     2.616     2.529
    79   1 H        0.926     0.028     2.622     2.532
    80   1 H        0.926     0.031     2.570     2.507
    81   1 H        0.926     0.027     2.624     2.533
    82   1 H        0.926     0.026     2.650     2.545
    83   1 H        0.926     0.032     2.553     2.498
    84   1 H        0.926     0.057     2.230     2.335
    85   1 H        0.926     0.058     2.223     2.332
    86   1 H        0.926     0.046     2.368     2.407
    87   1 H        0.926     0.042     2.425     2.435
    88   1 H        0.926     0.048     2.347     2.396
    89   1 H        0.926     0.025     2.657     2.549
    90   1 H        0.926     0.028     2.613     2.528
    91   1 H        0.926     0.028     2.619     2.531
    92   1 H        0.926     0.031     2.567     2.506
    93   1 H        0.926     0.030     2.584     2.514
    94   1 H        0.926     0.028     2.617     2.530
    95   1 H        0.926     0.032     2.559     2.502
    96   1 H        0.926     0.037     2.489     2.467
    97   1 H        0.926     0.082     1.961     2.190

molecular dipole:
                 x           y           z       tot (Debye)
 q only:       -0.148       1.100       0.459
   full:       -0.130       1.115       0.353       2.990

 projected vibrational frequencies (cm⁻¹)
eigval :       -0.00    -0.00    -0.00    -0.00     0.00     0.00
eigval :        5.07     9.01    16.30    17.94    21.15    23.89
eigval :       29.09    35.67    44.20    53.42    57.86    64.48
eigval :       67.41    70.76    75.89    78.24    84.20    94.21
eigval :      106.69   108.56   119.61   120.67   135.56   137.47
eigval :      141.94   148.86   155.50   162.38   174.71   193.57
eigval :      199.38   212.30   222.58   229.24   239.83   243.25
eigval :      252.82   268.15   269.05   272.17   273.74   275.09
eigval :      285.72   291.12   296.76   322.14   328.03   333.76
eigval :      354.83   361.66   363.15   379.62   393.09   395.73
eigval :      398.20   416.85   422.93   424.45   431.84   433.57
eigval :      436.09   440.03   440.65   481.05   487.35   515.63
eigval :      518.51   521.18   531.08   535.99   541.05   541.08
eigval :      545.51   569.28   573.47   588.84   589.90   594.43
eigval :      597.51   610.82   613.89   627.31   631.18   645.28
eigval :      663.37   666.34   674.22   674.54   693.17   702.14
eigval :      708.14   710.50   711.48   722.10   725.82   755.73
eigval :      757.94   767.25   768.56   771.11   773.89   779.81
eigval :      782.90   783.95   791.33   796.17   798.21   824.62
eigval :      858.33   865.16   870.38   870.71   871.82   882.87
eigval :      887.85   888.51   895.13   897.02   898.00   898.27
eigval :      902.41   904.67   905.13   906.54   907.59   911.32
eigval :      921.21   921.53   923.09   931.38   932.21   934.51
eigval :      943.02   948.72   971.22   981.21   996.61  1001.93
eigval :     1010.61  1012.14  1016.51  1028.46  1040.09  1063.71
eigval :     1069.48  1071.92  1072.91  1075.44  1076.29  1082.16
eigval :     1089.05  1102.84  1114.14  1118.18  1119.81  1124.94
eigval :     1131.51  1134.93  1135.92  1152.57  1153.66  1154.65
eigval :     1173.65  1175.52  1180.73  1181.13  1181.39  1183.82
eigval :     1192.58  1194.22  1197.56  1221.05  1231.89  1235.29
eigval :     1236.50  1237.76  1253.50  1255.07  1258.67  1261.17
eigval :     1267.81  1269.22  1278.25  1282.52  1285.70  1294.97
eigval :     1299.24  1300.42  1302.58  1303.20  1314.27  1318.14
eigval :     1322.17  1324.79  1326.31  1329.35  1349.81  1355.71
eigval :     1357.70  1360.18  1361.29  1362.48  1363.38  1363.96
eigval :     1373.06  1379.77  1416.10  1417.04  1417.23  1427.75
eigval :     1428.08  1435.83  1436.75  1443.06  1468.64  1470.89
eigval :     1476.12  1476.58  1486.51  1488.11  1488.38  1493.17
eigval :     1493.52  1496.88  1499.10  1501.59  1504.05  1507.35
eigval :     1541.11  1563.91  1565.63  1572.55  1575.35  1576.41
eigval :     1579.78  1581.81  1589.49  1589.64  1599.36  1599.75
eigval :     1614.51  1614.69  1746.61  1762.13  2945.23  2946.20
eigval :     2957.40  2960.05  2965.87  2968.72  2978.99  2979.21
eigval :     2981.40  2984.67  2987.90  2995.83  3005.71  3016.68
eigval :     3030.18  3032.34  3040.62  3074.87  3075.13  3075.94
eigval :     3076.70  3080.72  3081.38  3081.61  3083.42  3084.11
eigval :     3085.01  3088.07  3089.02  3091.44  3092.60  3092.99
eigval :     3093.06  3095.78  3096.34  3102.45  3102.90  3106.96
eigval :     3118.20  3131.02  3135.35

   temp. (K)  partition function   enthalpy   heat capacity  entropy
                                   cal/mol     cal/K/mol   cal/K/mol   J/K/mol
 298.15  VIB  0.881E+23            28293.616    173.816    178.950
         ROT  0.130E+09              888.752      2.981     40.103
         INT  0.114E+32            29182.368    176.797    219.053
         TR   0.198E+29             1481.254      4.968     45.695
         TOT                       30663.6222   181.7654   264.7479  1107.7053

       T/K    H(0)-H(T)+PV         H(T)/Eh          T*S/Eh         G(T)/Eh
   ------------------------------------------------------------------------
    298.15    0.488656E-01    0.814242E+00    0.125790E+00    0.688451E+00
   ------------------------------------------------------------------------

         :::::::::::::::::::::::::::::::::::::::::::::::::::::
         ::                  THERMODYNAMIC                  ::
         :::::::::::::::::::::::::::::::::::::::::::::::::::::
         :: total free energy        -147.584523118941 Eh   ::
         ::.................................................::
         :: total energy             -148.272974488611 Eh   ::
         :: zero point energy           0.765376054725 Eh   ::
         :: G(RRHO) w/o ZPVE           -0.076924685054 Eh   ::
         :: G(RRHO) contrib.            0.688451369671 Eh   ::
         :::::::::::::::::::::::::::::::::::::::::::::::::::::

           -------------------------------------------------
          | TOTAL ENERGY             -148.272974488611 Eh   |
          | TOTAL ENTHALPY           -147.458732841470 Eh   |
          | TOTAL FREE ENERGY        -147.584523118941 Eh   |
          | GRADIENT NORM               0.000056907942 Eh/α |
          | HOMO-LUMO GAP               1.507949822289 eV   |
           -------------------------------------------------

 * finished run on 2025/08/30 at 01:29:03.330
