   * xtb version 6.7.1 (edcfbbe) compiled by 'albert@albert-system' on 2024-07-22

   ID    Z sym.   atoms
    1    6 C      1-8, 10, 12-18, 20-32, 34-39, 41-55
    2    7 N      9, 19, 40
    3    8 O      11, 56
    4   16 S      33
    5    1 H      57-97

          program call               : xtb data2507/gas/m-PCzTPD/m-PCzTPD_gas_S0_finalOpt.xtbopt.xyz --gfn 2 --spinpol --tblite --uhf 2 --ohess vtight --parallel 40 --molden --ceasefiles --namespace data2507/gas/m-PCzTPD/m-PCzTPD_gas_T1_preOpt
 * total energy  :  -148.1926212 Eh     change        0.4624781E-08 Eh
 * total energy  :  -148.1969567 Eh     change       -0.4335493E-02 Eh
 * total energy  :  -148.1984588 Eh     change       -0.1502042E-02 Eh
 * total energy  :  -148.1987172 Eh     change       -0.2584201E-03 Eh
 * total energy  :  -148.1989159 Eh     change       -0.1986714E-03 Eh
 * total energy  :  -148.1989836 Eh     change       -0.6776371E-04 Eh
 * total energy  :  -148.1990283 Eh     change       -0.4466431E-04 Eh
 * total energy  :  -148.1990461 Eh     change       -0.1782614E-04 Eh
 * total energy  :  -148.1990636 Eh     change       -0.1751513E-04 Eh
 * total energy  :  -148.1990773 Eh     change       -0.1369534E-04 Eh
 * total energy  :  -148.1996056 Eh     change       -0.2513204E-06 Eh
 * total energy  :  -148.1996060 Eh     change       -0.3288234E-06 Eh
 * total energy  :  -148.1996064 Eh     change       -0.4596374E-06 Eh
 * total energy  :  -148.1996068 Eh     change       -0.3785529E-06 Eh
 * total energy  :  -148.1996071 Eh     change       -0.3082160E-06 Eh
 * total energy  :  -148.1996075 Eh     change       -0.3461228E-06 Eh
 * total energy  :  -148.1996089 Eh     change       -0.1454315E-05 Eh
 * total energy  :  -148.1996092 Eh     change       -0.2682003E-06 Eh
 * total energy  :  -148.1996092 Eh     change       -0.2059323E-08 Eh
   *** GEOMETRY OPTIMIZATION CONVERGED AFTER 136 ITERATIONS ***

 final structure:
================
97
 xtb: 6.7.1 (edcfbbe)
C           -5.85652509487177       -1.66782175659793        2.99270344363307
C           -4.61155506398629       -1.51833464275882        2.12807572326767
C           -3.71217628209161       -2.74998736172247        2.19569608315992
C           -2.46149926944091       -2.58440455664557        1.33685905913484
C           -1.57526336857038       -3.82944611265118        1.35791790347058
C           -0.31103405925319       -3.65903434255867        0.51364950305966
C           -0.59770379937025       -3.70426996968548       -0.98992149836629
C            0.41074513601811       -2.89002752112139       -1.80145195097233
N            0.41365443601238       -1.50126745629128       -1.40005397006283
C           -0.69561248598930       -0.68978144340773       -1.38382457811315
O           -1.79548074089607       -1.00210578568786       -1.79291817803930
C           -0.22573286521364        0.58906046827763       -0.81767101216177
C           -0.79040291970274        1.82906332493316       -0.53831324570977
C           -2.14565697616187        2.27398619136754       -0.57197128078100
C           -2.43636570282364        3.65128258541627       -0.60923280666580
C           -3.74050528914473        4.09254025151128       -0.63856428936226
C           -4.79021091207437        3.18861139203681       -0.60463983202969
C           -4.51864152202213        1.81810690935113       -0.52467559901689
N           -5.58635541279168        0.91538973024683       -0.43854341509585
C           -6.66189886433608        1.04370013762762        0.41651432509005
C           -6.90047785273754        1.99145646260728        1.40308668749716
C           -8.05914928661983        1.87149525712095        2.14782909062417
C           -8.95778400578828        0.83014478329472        1.93142089090066
C           -8.70936806421415       -0.13593247724108        0.97312492836718
C           -7.55329650590452       -0.03613589628441        0.21484863994550
C           -6.96932507959649       -0.85857576971798       -0.81009239166590
C           -7.36546459821456       -2.03831240855780       -1.42086002904009
C           -6.54735854530440       -2.58506354938161       -2.39327567018392
C           -5.35959108849880       -1.96011561169871       -2.76324480314858
C           -4.94541154354851       -0.78066990145871       -2.17251162447951
C           -5.75064495282860       -0.24039953435903       -1.17869083292950
C           -3.21160221966082        1.36354629615166       -0.51900083930166
S            0.48086717708625        2.93186164085500       -0.01588089692708
C            1.75457385434977        1.69247168028552       -0.12949321374445
C            3.06989032230356        2.00513930944777        0.23081418337234
C            3.40438889514839        3.29920275404317        0.72685876508731
C            4.69174259880517        3.60529538301361        1.08994666016837
C            5.70709978268705        2.66276342860725        0.98075824011935
C            5.40080772595992        1.38576539309512        0.47127328339854
N            6.42069661479920        0.43151787519447        0.36998593345841
C            7.66816372979617        0.64701201071385       -0.17482779578959
C            8.17864870230789        1.77967128261904       -0.79608133588895
C            9.47320805486785        1.72307252218589       -1.27872594334052
C           10.24097929800223        0.56754748319050       -1.16436625540758
C            9.72643319511793       -0.57494057260361       -0.57610001853876
C            8.43246400197756       -0.54072424943286       -0.08206500667513
C            7.58636482086503       -1.51856783605584        0.55004387310627
C            7.77281480227728       -2.84176861716831        0.91711973322354
C            6.73022031555535       -3.50822136186358        1.53696233488539
C            5.52535273793741       -2.86372238465261        1.80324343908302
C            5.31734540202938       -1.54411510527675        1.44855503070897
C            6.35058898339780       -0.87723108790431        0.80323116743398
C            4.11543933173453        1.06118404015438        0.10518737254114
C            1.15485470933995        0.49066225319395       -0.60023975573360
C            1.57216624939336       -0.85565582636421       -0.93086962497431
O            2.64989408322387       -1.42018104462496       -0.85486009856882
H           -6.45473402558665       -2.51070158906809        2.65348440207962
H           -6.46993957482830       -0.77110591496089        2.94156482291684
H           -5.58148372605187       -1.83870662457888        4.03147377841612
H           -4.04805926922767       -0.63907534976854        2.45099181595101
H           -4.91009595295588       -1.35996170739139        1.09043450363696
H           -4.27381824247655       -3.62164824885993        1.85119284984828
H           -3.42067856115198       -2.93263939403129        3.23314908790342
H           -1.88513383800703       -1.72950381862742        1.70263357003773
H           -2.76679986610046       -2.36024705788227        0.31290787296660
H           -2.14290394212271       -4.68851374583768        0.99308759578063
H           -1.28821254627295       -4.03749263974179        2.39179132977764
H            0.14782247075689       -2.70146181232337        0.77188685591775
H            0.40901204745259       -4.43987815998175        0.76791108725360
H           -1.59031257487157       -3.30231885380329       -1.19131653278501
H           -0.57831447551791       -4.73534236409051       -1.34631262239456
H            1.43053204593679       -3.25219864680909       -1.64460700790976
H            0.16500531617679       -2.95490011672454       -2.86703551510339
H           -1.62073405513788        4.35802575077009       -0.63628686135722
H           -3.94945152015797        5.15050799818973       -0.69351377644563
H           -5.81235672823498        3.52991755617322       -0.66062616841764
H           -6.19812528208911        2.78744393383284        1.59784844396361
H           -8.26758870937890        2.59761646604918        2.91940282131725
H           -9.85253221837171        0.77114104633116        2.53273980732133
H           -9.39460036205787       -0.95601583149239        0.82246110174327
H           -8.29185609137382       -2.51615988051947       -1.14005170530345
H           -6.83374138115462       -3.50744001381575       -2.87635718535276
H           -4.74168925535020       -2.40582550390968       -3.52758604010156
H           -4.01917762830658       -0.31699477701534       -2.46731563325557
H           -3.01182921963681        0.30814285758995       -0.44539230769173
H            2.62175875589711        4.03708220874816        0.81902772885483
H            4.92144803028749        4.58781398715200        1.47549619377609
H            6.70667708755182        2.88266776244822        1.32058897497855
H            7.58141419006430        2.67074472998790       -0.91405278935187
H            9.89461846349929        2.59194798243693       -1.76176314958436
H           11.24806425140521        0.56183541222197       -1.55348919781271
H           10.31630947195851       -1.47621652181020       -0.50724412198825
H            8.71207358666697       -3.33759334714106        0.72418266397434
H            6.85263967366225       -4.54164032259972        1.82502737739556
H            4.73349248813417       -3.40646080601634        2.29669773005763
H            4.38191733526356       -1.05490488872880        1.66548789940157
H            3.90309181730625        0.08587776775305       -0.30006351273515

 projected vibrational frequencies (cm⁻¹)
eigval :       -0.00    -0.00    -0.00    -0.00     0.00     0.00
eigval :        4.92    10.73    12.36    17.01    20.23    27.12
eigval :       29.68    34.28    39.74    48.15    51.88    58.91
eigval :       61.94    69.57    75.10    75.45    86.75    96.15
eigval :      105.38   106.88   116.69   118.96   128.84   131.74
eigval :      137.19   148.76   152.10   154.06   169.66   190.32
eigval :      197.29   210.60   218.56   226.51   236.56   238.19
eigval :      254.71   263.53   267.97   270.48   272.18   274.39
eigval :      284.47   293.62   295.15   318.18   320.36   335.49
eigval :      340.58   364.27   365.59   372.62   383.72   392.14
eigval :      393.58   404.94   418.69   420.67   422.60   426.27
eigval :      430.30   436.43   437.32   450.11   472.22   498.64
eigval :      514.57   515.85   522.25   531.75   536.00   536.97
eigval :      540.87   547.83   561.21   575.44   583.75   585.99
eigval :      586.92   606.49   608.03   610.32   618.54   637.76
eigval :      639.48   652.88   663.48   673.98   674.91   689.06
eigval :      698.66   701.05   708.96   711.05   721.02   754.11
eigval :      754.86   756.21   764.46   767.93   768.56   772.32
eigval :      774.94   776.98   777.90   782.84   793.00   815.69
eigval :      820.86   838.92   858.25   860.11   862.26   866.22
eigval :      873.04   874.93   879.27   883.61   888.11   893.01
eigval :      897.32   897.79   903.65   903.88   905.94   906.55
eigval :      909.31   915.24   919.68   921.28   921.74   923.73
eigval :      925.55   940.83   944.64   956.64   972.32   985.29
eigval :      991.84  1009.18  1010.96  1013.44  1025.37  1031.89
eigval :     1052.62  1065.64  1068.89  1070.06  1071.90  1072.94
eigval :     1086.79  1095.73  1111.87  1113.53  1116.09  1124.25
eigval :     1128.88  1132.83  1135.96  1143.02  1144.16  1145.98
eigval :     1169.99  1172.26  1176.97  1178.10  1178.21  1178.90
eigval :     1182.63  1188.83  1195.76  1208.58  1221.79  1229.84
eigval :     1230.00  1231.84  1234.80  1248.71  1254.74  1255.11
eigval :     1259.95  1264.36  1276.99  1282.88  1285.56  1286.96
eigval :     1288.72  1291.93  1292.26  1296.37  1304.52  1314.71
eigval :     1325.73  1327.73  1329.24  1330.21  1339.53  1340.10
eigval :     1344.79  1346.91  1348.86  1360.71  1362.19  1365.17
eigval :     1373.43  1375.50  1380.99  1395.62  1406.85  1409.72
eigval :     1412.97  1415.20  1417.06  1428.06  1436.84  1446.89
eigval :     1449.00  1462.29  1464.30  1481.44  1482.64  1483.37
eigval :     1485.19  1490.38  1492.87  1496.55  1497.79  1499.72
eigval :     1503.13  1506.41  1507.21  1521.33  1532.64  1554.26
eigval :     1567.17  1567.29  1578.91  1580.70  1581.35  1582.72
eigval :     1602.80  1605.32  1683.50  1711.26  2933.09  2948.45
eigval :     2956.25  2960.67  2961.83  2968.17  2970.25  2975.12
eigval :     2980.45  2982.97  2986.07  2990.69  2996.24  3019.22
eigval :     3028.66  3032.49  3039.46  3078.15  3080.34  3080.85
eigval :     3081.32  3081.97  3082.92  3086.29  3086.87  3090.13
eigval :     3090.41  3091.70  3093.26  3094.23  3094.29  3097.72
eigval :     3099.03  3099.39  3099.77  3100.85  3102.72  3112.69
eigval :     3127.57  3128.12  3137.04

   temp. (K)  partition function   enthalpy   heat capacity  entropy
                                   cal/mol     cal/K/mol   cal/K/mol   J/K/mol
 298.15  VIB  0.258E+24            28679.093    175.509    181.466
         ROT  0.130E+09              888.752      2.981     40.105
         INT  0.335E+32            29567.845    178.490    221.571
         TR   0.198E+29             1481.254      4.968     45.695
         TOT                       31049.0994   183.4581   267.2665  1118.2429

       T/K    H(0)-H(T)+PV         H(T)/Eh          T*S/Eh         G(T)/Eh
   ------------------------------------------------------------------------
    298.15    0.494799E-01    0.809796E+00    0.126987E+00    0.682809E+00
   ------------------------------------------------------------------------

         :::::::::::::::::::::::::::::::::::::::::::::::::::::
         ::                  THERMODYNAMIC                  ::
         :::::::::::::::::::::::::::::::::::::::::::::::::::::
         :: total free energy        -147.516800442544 Eh   ::
         ::.................................................::
         :: total energy             -148.199609134236 Eh   ::
         :: zero point energy           0.760315724632 Eh   ::
         :: G(RRHO) w/o ZPVE           -0.077507032941 Eh   ::
         :: G(RRHO) contrib.            0.682808691691 Eh   ::
         :::::::::::::::::::::::::::::::::::::::::::::::::::::

           -------------------------------------------------
          | TOTAL ENERGY             -148.199609134236 Eh   |
          | TOTAL ENTHALPY           -147.389813520208 Eh   |
          | TOTAL FREE ENERGY        -147.516800442544 Eh   |
          | GRADIENT NORM               0.000170281663 Eh/α |
           -------------------------------------------------

 * finished run on 2025/08/30 at 01:29:35.795
