   * xtb version 6.7.1 (edcfbbe) compiled by 'albert@albert-system' on 2024-07-22

   ID    Z sym.   atoms
    1    6 C      1-8, 10, 12-18, 20-32, 34-39, 41-55
    2    7 N      9, 19, 40
    3    8 O      11, 56
    4   16 S      33
    5    1 H      57-97

          program call               : xtb data2507/gas/m-PCzTPD/m-PCzTPD_gas_T1_crest.xyz --gfn 2 --spinpol --tblite --uhf 2 --ohess vtight --parallel 40 --molden --ceasefiles --namespace data2507/gas/m-PCzTPD/m-PCzTPD_gas_T1_finalOpt
 * total energy  :  -148.2005021 Eh     change        0.1322331E-07 Eh
 * total energy  :  -148.2005274 Eh     change       -0.2533801E-04 Eh
 * total energy  :  -148.2005426 Eh     change       -0.1516789E-04 Eh
 * total energy  :  -148.2005496 Eh     change       -0.7062108E-05 Eh
 * total energy  :  -148.2005602 Eh     change       -0.1051703E-04 Eh
 * total energy  :  -148.2005674 Eh     change       -0.7210441E-05 Eh
 * total energy  :  -148.2005726 Eh     change       -0.5264593E-05 Eh
 * total energy  :  -148.2005758 Eh     change       -0.3132941E-05 Eh
 * total energy  :  -148.2005774 Eh     change       -0.1623370E-05 Eh
 * total energy  :  -148.2005808 Eh     change       -0.3389295E-05 Eh
 * total energy  :  -148.2006338 Eh     change        0.7192006E-06 Eh
 * total energy  :  -148.2006347 Eh     change       -0.8796903E-06 Eh
 * total energy  :  -148.2006349 Eh     change       -0.1403913E-06 Eh
 * total energy  :  -148.2006351 Eh     change       -0.2879207E-06 Eh
 * total energy  :  -148.2006353 Eh     change       -0.1863898E-06 Eh
 * total energy  :  -148.2006355 Eh     change       -0.1381205E-06 Eh
 * total energy  :  -148.2006354 Eh     change        0.5069356E-07 Eh
 * total energy  :  -148.2006356 Eh     change       -0.1421062E-06 Eh
 * total energy  :  -148.2006356 Eh     change        0.1998046E-10 Eh
   *** GEOMETRY OPTIMIZATION CONVERGED AFTER 54 ITERATIONS ***

 final structure:
================
97
 xtb: 6.7.1 (edcfbbe)
C           -1.03386834690566       -0.10546760501720        3.12139635078404
C           -0.78319063763762       -1.56684125104555        2.77072818901657
C            0.69456459238415       -1.84539343472731        2.50619425153065
C            0.93869094108546       -3.29264284504814        2.08329000264745
C            2.39712635918803       -3.53133894602544        1.69778556889276
C            2.68108229533844       -4.92792789719545        1.14023255378043
C            1.89756327211244       -5.32777870770419       -0.11323692901507
C            2.11058028312991       -4.42896410930752       -1.33641904379599
N            1.36039422735136       -3.19607883274477       -1.26310208773572
C           -0.01658354634064       -3.13486544284663       -1.24912745109171
O           -0.74134149486137       -4.10090883810497       -1.37639585346921
C           -0.33876732836916       -1.70712107328401       -1.06005805790583
C           -1.49205282551606       -0.93670521474249       -0.86654680070765
C           -2.86784194653862       -1.27532027637293       -0.78206961271891
C           -3.33018515013301       -2.59846372743701       -0.95389311470808
C           -4.67175593877292       -2.88744411514726       -0.83901561680258
C           -5.59690491821981       -1.89677957408150       -0.54404146675021
C           -5.15702649122610       -0.57769566126279       -0.38363546454187
N           -6.07563105433779        0.43001279884289       -0.06110679440492
C           -7.28090385936263        0.65928978164860       -0.69050218286442
C           -7.83161209551613        0.03256335691988       -1.80035047142216
C           -9.06107127983649        0.47814026483419       -2.24803152163985
C           -9.72613791835477        1.52840907723472       -1.62036384777797
C           -9.16941292229888        2.17511487078246       -0.53225131373543
C           -7.93734335692206        1.74455960452603       -0.06359336810570
C           -7.07375096893244        2.18314658788431        0.99958579335846
C           -7.17311043109285        3.17854113105686        1.96039150858734
C           -6.14338162127316        3.32341853170763        2.87161813480442
C           -5.03473175772698        2.48117546512185        2.84069790227652
C           -4.91376366259091        1.48213667938416        1.89340522998764
C           -5.93348279863811        1.34705520965668        0.96091838047166
C           -3.81715318457500       -0.27226096068991       -0.51153553338676
S           -1.01108602598735        0.74985186658728       -0.63420452863652
C            0.72370900527285        0.38942650508258       -0.73705853157749
C            1.66450475866304        1.39025701609578       -0.45455124251915
C            1.25075541229815        2.70681258100951       -0.10649738816241
C            2.17085903326951        3.67171324351512        0.22114610567974
C            3.53168909238031        3.38975628153419        0.22617766792316
C            3.96059185266956        2.10214414488303       -0.14102689095795
N            5.32611869433295        1.79318992845808       -0.11715402805807
C            6.33775398099639        2.54746982023582       -0.67024423921252
C            6.26413624771364        3.72669909117454       -1.40033593770768
C            7.44664862510774        4.27386704934834       -1.86303969390786
C            8.67328297478723        3.66125645610638       -1.62224019907856
C            8.75006414472897        2.46926398447514       -0.92274346383086
C            7.57837297307405        1.90356723606685       -0.44646734826807
C            7.28351930155620        0.69469406976482        0.27719520584872
C            8.06996356047542       -0.32995252937798        0.77960283077221
C            7.45128750659935       -1.36676497980361        1.45605441629739
C            6.07259356787836       -1.37506318407786        1.64947956361604
C            5.26897004559845       -0.36231118008206        1.16135597336008
C            5.88001002097522        0.66469863590201        0.45331033319140
C            3.05174525053132        1.12785907968398       -0.48637251289152
C            0.86650025181708       -0.99835946114859       -1.00622913333328
C            1.96197036574476       -1.93724975622312       -1.18175264973431
O            3.16676282610187       -1.77497698275004       -1.26463603053014
H           -2.08761458290964        0.06115985889516        3.33455447641947
H           -0.74260906904878        0.54135619096544        2.29635015577006
H           -0.45787510375488        0.18103684214240        3.99887449371483
H           -1.36361931854668       -1.83080466711719        1.88247520352587
H           -1.12910494185118       -2.20310714704842        3.58882251821762
H            1.27433163514024       -1.62216431531779        3.40550152729327
H            1.04755628270517       -1.17619548726222        1.71640321036770
H            0.28493145009039       -3.51963940042543        1.23997720716684
H            0.66160781951552       -3.96499292717177        2.89916619213800
H            3.01906465505541       -3.38909470362457        2.58651977625419
H            2.71123832089030       -2.78225042785726        0.97203918982375
H            3.74918616888506       -4.98914692278939        0.91466721155098
H            2.46464820079048       -5.66765886055743        1.91590147777372
H            0.83004406498283       -5.37421980891788        0.10292240646926
H            2.21295266003429       -6.33575069439596       -0.39210408885921
H            3.16175332710052       -4.14741142885398       -1.43834215518884
H            1.79174146978686       -4.96985860659561       -2.23364179128285
H           -2.62639632838535       -3.38425302273432       -1.17190948481820
H           -5.00800427234000       -3.90538529661614       -0.96698949990051
H           -6.64016981816058       -2.13558119731136       -0.40726218352558
H           -7.31282416461515       -0.76698754669603       -2.30678989185892
H           -9.51296405723119        0.00482543592066       -3.10690819237552
H          -10.68575621838685        1.84677280632692       -1.99909952390485
H           -9.67786864995686        3.00080712634222       -0.05810189193249
H           -8.03942474937246        3.82151416042531        1.99516223194173
H           -6.19988042535722        4.09456900466606        3.62518803571880
H           -4.25216863388018        2.60962941981788        3.57354762541526
H           -4.05770876462669        0.82556920097321        1.88712935234331
H           -3.49344986845427        0.75259200527276       -0.41075940796946
H            0.19556422868504        2.93500212171479       -0.09595125151415
H            1.83489385045935        4.66140545440354        0.49363892528039
H            4.24958539756217        4.12896918488878        0.54441807139287
H            5.31544195299157        4.19428904972324       -1.61466087866677
H            7.41685360206817        5.19250426344137       -2.42963780756957
H            9.57528901232822        4.11916495844068       -1.99948267575254
H            9.70042712817611        1.98588320325440       -0.75504269511823
H            9.14095010866771       -0.31592495694256        0.64545897053929
H            8.04532535828209       -2.17883485397191        1.84789581784036
H            5.61923411484088       -2.19084794998239        2.19187161255661
H            4.20416498811591       -0.37333324726481        1.32979878463836
H            3.40381655738968        0.15897969344617       -0.79850976147952

 projected vibrational frequencies (cm⁻¹)
eigval :       -0.00    -0.00    -0.00     0.00     0.00     0.00
eigval :       -0.98     8.64    11.52    16.19    18.08    22.46
eigval :       27.20    33.09    36.88    48.20    65.78    68.40
eigval :       71.15    76.80    79.51    90.05    95.05   104.40
eigval :      113.45   117.92   121.50   123.54   130.75   136.23
eigval :      145.77   150.36   156.68   164.54   169.73   194.21
eigval :      200.55   210.35   224.48   229.39   231.69   234.11
eigval :      243.94   249.14   257.02   270.64   271.09   277.39
eigval :      290.96   302.09   313.71   320.02   324.75   339.35
eigval :      348.25   367.61   371.80   375.23   386.74   392.92
eigval :      393.54   408.11   420.10   421.28   421.89   424.84
eigval :      433.84   436.32   437.16   448.46   481.69   490.02
eigval :      511.79   514.82   515.89   521.24   530.21   532.90
eigval :      536.38   538.16   554.70   567.11   582.18   586.11
eigval :      587.13   606.41   606.88   610.23   615.97   638.83
eigval :      639.38   648.28   667.58   674.47   674.99   680.43
eigval :      697.38   700.58   709.06   710.93   720.02   741.80
eigval :      755.15   756.24   760.74   764.44   768.40   768.92
eigval :      775.34   776.85   778.13   782.06   785.20   797.07
eigval :      830.91   841.36   846.31   853.55   861.79   868.80
eigval :      872.09   877.16   882.44   886.93   891.04   896.07
eigval :      897.54   898.56   903.07   903.42   903.87   904.82
eigval :      907.26   911.38   920.74   920.91   922.07   922.20
eigval :      923.76   927.52   940.85   951.42   965.46   982.39
eigval :      988.19  1000.45  1007.13  1011.07  1012.10  1029.33
eigval :     1049.17  1053.32  1068.52  1069.09  1071.64  1072.43
eigval :     1080.94  1096.06  1112.41  1114.54  1116.76  1126.61
eigval :     1126.95  1130.92  1142.12  1142.91  1146.60  1152.22
eigval :     1168.74  1172.73  1175.68  1177.21  1177.63  1178.36
eigval :     1180.55  1188.59  1193.81  1210.49  1220.36  1229.63
eigval :     1232.10  1232.94  1235.56  1243.58  1252.58  1256.05
eigval :     1260.86  1266.67  1278.13  1280.10  1281.98  1288.16
eigval :     1291.38  1292.33  1292.68  1294.32  1305.59  1324.40
eigval :     1328.93  1333.33  1333.43  1339.80  1340.92  1346.16
eigval :     1347.44  1349.63  1351.13  1359.87  1361.29  1364.21
eigval :     1369.33  1370.32  1378.63  1395.17  1408.06  1410.82
eigval :     1413.65  1414.24  1417.14  1424.22  1435.65  1437.93
eigval :     1453.71  1462.55  1466.63  1481.45  1482.24  1483.52
eigval :     1484.97  1487.65  1489.47  1497.75  1500.48  1502.66
eigval :     1503.90  1506.61  1509.18  1510.43  1533.47  1552.10
eigval :     1566.91  1569.29  1578.87  1581.05  1584.02  1585.61
eigval :     1603.90  1606.77  1681.89  1708.26  2940.22  2948.57
eigval :     2952.03  2956.08  2960.41  2967.73  2969.15  2972.11
eigval :     2975.66  2978.08  2980.15  3000.80  3014.75  3027.02
eigval :     3028.55  3033.61  3034.94  3078.80  3080.31  3080.78
eigval :     3081.25  3081.84  3085.25  3086.79  3086.95  3087.58
eigval :     3089.63  3091.80  3092.58  3094.07  3094.84  3095.98
eigval :     3096.97  3098.80  3099.55  3100.48  3100.85  3102.67
eigval :     3107.18  3129.92  3130.70

   temp. (K)  partition function   enthalpy   heat capacity  entropy
                                   cal/mol     cal/K/mol   cal/K/mol   J/K/mol
 298.15  VIB  0.400E+22            27969.609    175.167    174.192
         ROT  0.135E+09              888.752      2.981     40.179
         INT  0.538E+30            28858.361    178.148    214.371
         TR   0.198E+29             1481.254      4.968     45.695
         TOT                       30339.6150   183.1164   260.0664  1088.1178

       T/K    H(0)-H(T)+PV         H(T)/Eh          T*S/Eh         G(T)/Eh
   ------------------------------------------------------------------------
    298.15    0.483493E-01    0.808531E+00    0.123566E+00    0.684965E+00
   ------------------------------------------------------------------------

         :::::::::::::::::::::::::::::::::::::::::::::::::::::
         ::                  THERMODYNAMIC                  ::
         :::::::::::::::::::::::::::::::::::::::::::::::::::::
         :: total free energy        -147.515670297469 Eh   ::
         ::.................................................::
         :: total energy             -148.200635542833 Eh   ::
         :: zero point energy           0.760181926078 Eh   ::
         :: G(RRHO) w/o ZPVE           -0.075216680714 Eh   ::
         :: G(RRHO) contrib.            0.684965245364 Eh   ::
         :::::::::::::::::::::::::::::::::::::::::::::::::::::

           -------------------------------------------------
          | TOTAL ENERGY             -148.200635542833 Eh   |
          | TOTAL ENTHALPY           -147.392104362758 Eh   |
          | TOTAL FREE ENERGY        -147.515670297469 Eh   |
          | GRADIENT NORM               0.000169345323 Eh/α |
           -------------------------------------------------

 * finished run on 2025/08/30 at 02:28:08.163
