   * xtb version 6.7.1 (edcfbbe) compiled by 'albert@albert-system' on 2024-07-22

   ID    Z sym.   atoms
    1    6 C      1-8, 10, 12-18, 20-32, 34-39, 41-55
    2    7 N      9, 19, 40
    3    8 O      11, 56
    4   16 S      33
    5    1 H      57-97

          program call               : xtb data2507/gas/m-PCzTPD/m-PCzTPD.xyz --gfn 2 --ohess vtight --parallel 40 --molden --ceasefiles --namespace data2507/gas/m-PCzTPD/m-PCzTPD_gas_S0_preOpt
          :  Hamiltonian                  GFN2-xTB          :
 * total energy  :  -148.2404554 Eh     change       -0.2379380E-08 Eh
 * total energy  :  -148.2563003 Eh     change       -0.1584490E-01 Eh
 * total energy  :  -148.2601303 Eh     change       -0.3829927E-02 Eh
 * total energy  :  -148.2609793 Eh     change       -0.8490184E-03 Eh
 * total energy  :  -148.2617504 Eh     change       -0.7711627E-03 Eh
 * total energy  :  -148.2621865 Eh     change       -0.4360498E-03 Eh
 * total energy  :  -148.2625412 Eh     change       -0.3547314E-03 Eh
 * total energy  :  -148.2628066 Eh     change       -0.2653711E-03 Eh
 * total energy  :  -148.2629917 Eh     change       -0.1850516E-03 Eh
 * total energy  :  -148.2631384 Eh     change       -0.1467588E-03 Eh
 * total energy  :  -148.2667339 Eh     change       -0.5784642E-06 Eh
 * total energy  :  -148.2667347 Eh     change       -0.7795965E-06 Eh
 * total energy  :  -148.2667359 Eh     change       -0.1213998E-05 Eh
 * total energy  :  -148.2667377 Eh     change       -0.1838420E-05 Eh
 * total energy  :  -148.2667399 Eh     change       -0.2177142E-05 Eh
 * total energy  :  -148.2667418 Eh     change       -0.1872354E-05 Eh
 * total energy  :  -148.2667432 Eh     change       -0.1405492E-05 Eh
 * total energy  :  -148.2667442 Eh     change       -0.1028207E-05 Eh
 * total energy  :  -148.2667442 Eh     change       -0.4442114E-08 Eh
   *** GEOMETRY OPTIMIZATION CONVERGED AFTER 221 ITERATIONS ***

 final structure:
================
97
 xtb: 6.7.1 (edcfbbe)
C            8.70481011757112        6.25343633792448       -0.52993207925236
C            7.48136790726726        6.61509271464425        0.30335396009978
C            6.34027432518989        5.62152210599498        0.09758169435920
C            5.11653199320587        5.97717763696437        0.93922367087303
C            3.91193893563122        5.07606908781078        0.66509217840456
C            4.13868265815184        3.62910141730113        1.10103157092399
C            2.86297446879011        2.78975282911493        1.07494142856940
C            2.31898305603038        2.60247723795402       -0.34207824400889
N            1.18610721330575        1.70425165801817       -0.35352182666493
C           -0.12104571460229        2.13751246636409       -0.19138879626293
O           -0.42788394086265        3.29777189761915       -0.04872826725082
C           -0.94316129817316        0.91700846737902       -0.25484366011696
C           -2.27177904172175        0.57252560586547       -0.22021359340488
C           -3.47768902889095        1.35679356424925       -0.06465098758275
C           -3.43486788088918        2.74676628950815        0.07677299651873
C           -4.60947030000718        3.46247823211770        0.21502012561175
C           -5.83742165346349        2.82635888250633        0.20509925298201
C           -5.89336944946303        1.43966663653012        0.07369933391856
N           -7.12489833950589        0.77589040127128        0.05752848475887
C           -7.52026482184911       -0.16428011213449       -0.87570418142474
C           -6.85314536493610       -0.63226005200776       -1.99861260358296
C           -7.49672284175523       -1.56484522490809       -2.78958934612324
C           -8.77709695912540       -2.01978272878320       -2.48324440276453
C           -9.45569020180437       -1.53929055492024       -1.38131716863866
C           -8.82928855554109       -0.60169226769214       -0.57089595297944
C           -9.23372734294156        0.10905464121426        0.60993564885402
C          -10.38569298547882        0.09366146917097        1.38507647510361
C          -10.44293142792535        0.90467084585282        2.50071248524238
C           -9.36408139286171        1.71125320199962        2.85551211589137
C           -8.20755248965427        1.74385295979109        2.09983715955578
C           -8.15436350986350        0.95064254344427        0.96288876582403
C           -4.71750587890051        0.71458376681113       -0.05068488813179
S           -2.40939673524733       -1.16206444042629       -0.42818704098031
C           -0.68305408205033       -1.40271731223914       -0.55079135484981
C           -0.16557043769589       -2.74060456505485       -0.74613384257636
C           -1.00710137104888       -3.74465761696746       -1.23399191717802
C           -0.52663335792187       -5.02484861545535       -1.42313894806612
C            0.78835737158573       -5.33056857820656       -1.12380509315463
C            1.63325367045435       -4.34474681369685       -0.61425046271815
N            2.95165540567949       -4.66659672220926       -0.28162696915695
C            4.08831860867437       -3.96853298060508       -0.65505457404185
C            4.21254532599511       -2.82658730444485       -1.43200366414787
C            5.48662781775413       -2.35128984822528       -1.67704188350617
C            6.61585335540930       -2.99582579682844       -1.17756064958590
C            6.49908775594794       -4.14594819494656       -0.42360530273433
C            5.22854590297652       -4.64125281723576       -0.16101564453788
C            4.75114164465569       -5.79163318879933        0.55423626372255
C            5.38389264618499       -6.80259291998035        1.26495876329360
C            4.60862273495058       -7.76939793146375        1.87350426512843
C            3.21891155789398       -7.72485205045161        1.79488060245881
C            2.56707758563020       -6.72876217217364        1.09267168927190
C            3.34160647750453       -5.77125233172181        0.45348282935004
C            1.15648232904036       -3.05189685855227       -0.42996942218702
C           -0.05832740443641       -0.18917677643265       -0.43137999187837
C            1.31570082131090        0.33024331866965       -0.49271177266599
O            2.37088756351412       -0.23727621086547       -0.64377756414535
H            9.50415234762315        6.97356955006473       -0.37121560284400
H            8.45578593676447        6.24516449547932       -1.58900193789406
H            9.07316410207699        5.26645290157557       -0.25828961337546
H            7.14144219868944        7.61742039905677        0.03223191528881
H            7.75535722418711        6.63458102562614        1.36077191187954
H            6.69103232321920        4.62196481665509        0.35977258632658
H            6.06008410463805        5.61065847689131       -0.95860251947506
H            4.83367622333921        7.01108190463254        0.72565137823057
H            5.37778142793110        5.92079633748163        1.99870902788702
H            3.68253680218938        5.11096363466440       -0.40135639669196
H            3.04857009885121        5.47313169091590        1.20435077146497
H            4.88349589479467        3.15799768217858        0.45778697988405
H            4.52992958275512        3.62678148715070        2.12102495520686
H            2.09421784292759        3.26262667046619        1.69049417249075
H            3.07660923505006        1.80303988680146        1.49360956780900
H            1.98009133687582        3.55515092869775       -0.75322201824631
H            3.08854224015847        2.16723648875893       -0.98462571034165
H           -2.48911802609178        3.26137674404231        0.07523883560704
H           -4.56603356905294        4.53602109699271        0.31902961703927
H           -6.75282051056834        3.39290973927293        0.28147316298360
H           -5.86883128694910       -0.27278608246339       -2.25835906487827
H           -6.99654545969948       -1.94616369980546       -3.66763044770978
H           -9.24497420912071       -2.75107582777673       -3.12534178129665
H          -10.45466516935332       -1.87847057087180       -1.15257685209075
H          -11.21462886785180       -0.54468452364619        1.11906920310810
H          -11.33036870953718        0.90996710262006        3.11583124957374
H           -9.43106206254759        2.32233447854540        3.74351353753061
H           -7.37026979166681        2.35796088240319        2.39554599167427
H           -4.76956743488619       -0.36188924263775       -0.12478617605265
H           -2.03347403603543       -3.51053771584982       -1.47512117437207
H           -1.17905136039791       -5.79019300601992       -1.81566452751348
H            1.17201930170248       -6.32450189019337       -1.29570276489606
H            3.35093682549551       -2.31480042967952       -1.82814556845534
H            5.60714489592496       -1.45779239785538       -2.27100022072442
H            7.59421864512803       -2.59079872866693       -1.39056971489250
H            7.37279465860368       -4.65565338038917       -0.04592098277187
H            6.46048943834553       -6.82449689735468        1.34199202494871
H            5.08072061444271       -8.56625836588905        2.42872338251881
H            2.63640035313754       -8.48316149480496        2.29724163566429
H            1.48837517884448       -6.69386986207566        1.05846394941798
H            1.81133421849959       -2.29643953390165       -0.02898344648059

          :  Hamiltonian                  GFN2-xTB          :
         :: gradient norm              0.000051082135 Eh/a0 ::
         :: HOMO-LUMO gap              1.498508776418 eV    ::
         :: SCC energy              -150.781493309909 Eh    ::
         :: -> dispersion             -0.127556780367 Eh    ::
         :: repulsion energy           2.514749111475 Eh    ::

    * Orbital Energies and Occupations

         #    Occupation            Energy/Eh            Energy/eV
      -------------------------------------------------------------
         1        2.0000           -0.7537743             -20.5112
       ...           ...                  ...                  ...
       125        2.0000           -0.4168883             -11.3441
       126        2.0000           -0.4164813             -11.3330
       127        2.0000           -0.4156494             -11.3104
       128        2.0000           -0.4142751             -11.2730
       129        2.0000           -0.4129005             -11.2356
       130        2.0000           -0.4109678             -11.1830
       131        2.0000           -0.4070477             -11.0763
       132        2.0000           -0.4005301             -10.8990
       133        2.0000           -0.3951400             -10.7523
       134        2.0000           -0.3804952             -10.3538
       135        2.0000           -0.3738061             -10.1718
       136        2.0000           -0.3658570              -9.9555
       137        2.0000           -0.3600708              -9.7980 (HOMO)
       138                         -0.3050016              -8.2995 (LUMO)
       139                         -0.3018796              -8.2146
       140                         -0.2488435              -6.7714
       141                         -0.2452442              -6.6734
       142                         -0.2402430              -6.5373
       143                         -0.2370641              -6.4508
       144                         -0.2346867              -6.3862
       145                         -0.2275647              -6.1924
       146                         -0.2237159              -6.0876
       147                         -0.2208796              -6.0104
       148                         -0.2169679              -5.9040
       ...                                ...                  ...
       270                          0.7506179              20.4254
      -------------------------------------------------------------
                  HL-Gap            0.0550692 Eh            1.4985 eV

     #   Z          covCN         q      C6AA      α(0)
     1   6 C        3.752    -0.102    22.514     6.766
     2   6 C        3.801    -0.053    21.529     6.606
     3   6 C        3.803    -0.060    21.662     6.626
     4   6 C        3.802    -0.059    21.637     6.623
     5   6 C        3.802    -0.061    21.670     6.628
     6   6 C        3.802    -0.061    21.665     6.627
     7   6 C        3.802    -0.059    21.639     6.623
     8   6 C        3.742     0.008    20.511     6.461
     9   7 N        2.803    -0.108    23.350     7.177
    10   6 C        2.823     0.279    22.294     7.737
    11   8 O        0.857    -0.395    21.580     6.228
    12   6 C        3.229    -0.053    28.461     8.664
    13   6 C        2.979     0.036    27.195     8.554
    14   6 C        3.004     0.013    27.718     8.636
    15   6 C        2.922    -0.042    29.039     8.837
    16   6 C        2.918    -0.025    28.622     8.773
    17   6 C        2.921    -0.040    28.984     8.829
    18   6 C        2.910     0.068    26.471     8.437
    19   7 N        2.803    -0.045    22.099     6.982
    20   6 C        3.074     0.046    26.890     8.502
    21   6 C        2.910    -0.051    29.271     8.871
    22   6 C        2.924    -0.033    28.826     8.805
    23   6 C        2.920    -0.040    29.003     8.831
    24   6 C        2.913    -0.032    28.809     8.801
    25   6 C        3.068    -0.016    28.341     8.729
    26   6 C        3.068    -0.016    28.347     8.730
    27   6 C        2.913    -0.032    28.809     8.801
    28   6 C        2.920    -0.040    29.001     8.831
    29   6 C        2.924    -0.033    28.822     8.804
    30   6 C        2.910    -0.051    29.266     8.871
    31   6 C        3.073     0.047    26.882     8.501
    32   6 C        2.932    -0.047    29.176     8.858
    33  16 S        2.411    -0.009   141.412    20.015
    34   6 C        2.978     0.036    27.182     8.552
    35   6 C        3.004     0.012    27.721     8.637
    36   6 C        2.926    -0.037    28.921     8.819
    37   6 C        2.917    -0.027    28.665     8.780
    38   6 C        2.923    -0.040    28.996     8.831
    39   6 C        2.911     0.071    26.415     8.428
    40   7 N        2.802    -0.043    22.073     6.978
    41   6 C        3.070     0.047    26.877     8.501
    42   6 C        2.910    -0.046    29.149     8.853
    43   6 C        2.925    -0.030    28.746     8.793
    44   6 C        2.920    -0.040    29.000     8.831
    45   6 C        2.913    -0.034    28.837     8.806
    46   6 C        3.068    -0.017    28.357     8.732
    47   6 C        3.066    -0.016    28.335     8.729
    48   6 C        2.913    -0.033    28.822     8.803
    49   6 C        2.920    -0.041    29.018     8.834
    50   6 C        2.924    -0.034    28.850     8.808
    51   6 C        2.910    -0.052    29.286     8.874
    52   6 C        3.072     0.046    26.906     8.505
    53   6 C        2.926    -0.047    29.159     8.855
    54   6 C        3.242    -0.053    28.326     8.627
    55   6 C        2.821     0.278    22.304     7.738
    56   8 O        0.857    -0.394    21.557     6.225
    57   1 H        0.925     0.033     2.548     2.496
    58   1 H        0.925     0.033     2.539     2.492
    59   1 H        0.925     0.034     2.537     2.491
    60   1 H        0.924     0.028     2.613     2.528
    61   1 H        0.924     0.028     2.610     2.527
    62   1 H        0.924     0.033     2.551     2.498
    63   1 H        0.924     0.031     2.579     2.511
    64   1 H        0.924     0.031     2.577     2.511
    65   1 H        0.924     0.030     2.589     2.516
    66   1 H        0.924     0.031     2.565     2.505
    67   1 H        0.924     0.035     2.512     2.479
    68   1 H        0.924     0.038     2.474     2.460
    69   1 H        0.924     0.039     2.467     2.456
    70   1 H        0.924     0.042     2.417     2.431
    71   1 H        0.924     0.041     2.438     2.442
    72   1 H        0.924     0.066     2.129     2.282
    73   1 H        0.924     0.065     2.146     2.291
    74   1 H        0.926     0.083     1.950     2.184
    75   1 H        0.926     0.047     2.357     2.401
    76   1 H        0.926     0.048     2.351     2.398
    77   1 H        0.926     0.027     2.634     2.538
    78   1 H        0.926     0.030     2.593     2.518
    79   1 H        0.926     0.029     2.601     2.522
    80   1 H        0.926     0.032     2.558     2.501
    81   1 H        0.926     0.032     2.560     2.502
    82   1 H        0.926     0.029     2.599     2.521
    83   1 H        0.926     0.030     2.585     2.514
    84   1 H        0.926     0.027     2.623     2.532
    85   1 H        0.926     0.053     2.277     2.360
    86   1 H        0.926     0.046     2.371     2.408
    87   1 H        0.926     0.042     2.418     2.432
    88   1 H        0.926     0.048     2.343     2.394
    89   1 H        0.926     0.044     2.394     2.420
    90   1 H        0.926     0.033     2.551     2.498
    91   1 H        0.926     0.027     2.626     2.534
    92   1 H        0.926     0.030     2.593     2.518
    93   1 H        0.926     0.031     2.570     2.507
    94   1 H        0.926     0.028     2.621     2.532
    95   1 H        0.926     0.028     2.614     2.528
    96   1 H        0.926     0.025     2.658     2.549
    97   1 H        0.926     0.075     2.028     2.227

molecular dipole:
                 x           y           z       tot (Debye)
 q only:       -0.661      -0.168      -0.066
   full:       -0.583      -0.030      -0.081       1.497

 projected vibrational frequencies (cm⁻¹)
eigval :       -0.00    -0.00    -0.00     0.00     0.00     0.00
eigval :        3.73     5.49     7.60     9.81    12.34    19.25
eigval :       19.73    25.24    30.01    38.75    52.38    55.21
eigval :       57.05    61.67    67.97    72.74    77.29    86.53
eigval :       98.77   104.34   109.95   112.92   124.79   129.25
eigval :      135.62   141.85   153.36   156.02   172.44   195.84
eigval :      199.96   207.90   215.74   224.34   227.62   232.43
eigval :      233.96   247.92   267.23   271.73   272.23   276.56
eigval :      281.58   288.61   308.35   322.88   339.69   344.22
eigval :      347.89   358.65   371.53   380.42   395.64   395.90
eigval :      400.04   404.10   421.42   423.03   424.60   432.30
eigval :      433.00   439.31   439.75   478.30   499.62   514.82
eigval :      518.31   520.27   531.54   536.40   541.01   541.16
eigval :      559.23   569.67   572.36   588.87   590.30   597.66
eigval :      608.16   611.48   614.48   630.25   632.14   645.58
eigval :      663.05   664.00   674.26   674.48   696.49   697.50
eigval :      705.39   708.43   710.00   722.72   727.85   755.44
eigval :      757.70   768.99   769.43   769.51   779.39   780.40
eigval :      780.95   791.03   796.66   804.17   804.68   822.31
eigval :      836.37   864.97   865.79   871.08   872.60   884.75
eigval :      885.16   895.33   896.18   897.49   899.30   901.41
eigval :      904.92   904.93   905.49   906.07   908.41   910.15
eigval :      918.05   921.34   923.20   923.21   923.22   932.83
eigval :      934.22   949.10   966.49   976.10   996.92  1001.89
eigval :     1008.19  1012.15  1012.41  1023.45  1035.11  1050.65
eigval :     1067.59  1071.00  1072.10  1074.62  1075.44  1081.79
eigval :     1094.73  1102.83  1114.19  1118.65  1120.35  1133.09
eigval :     1133.82  1136.01  1142.03  1153.14  1153.91  1156.95
eigval :     1174.51  1175.75  1180.91  1181.30  1183.10  1184.67
eigval :     1193.57  1195.56  1207.09  1229.68  1231.27  1235.30
eigval :     1236.64  1237.25  1254.60  1256.05  1258.75  1267.41
eigval :     1267.68  1278.40  1280.00  1285.85  1289.98  1298.43
eigval :     1299.90  1300.93  1302.79  1303.55  1305.08  1315.28
eigval :     1318.47  1323.30  1325.72  1344.85  1348.98  1355.94
eigval :     1356.20  1359.91  1360.77  1360.81  1362.65  1364.26
eigval :     1375.10  1379.31  1414.50  1416.51  1417.38  1427.83
eigval :     1427.91  1430.67  1434.88  1436.58  1468.70  1473.40
eigval :     1476.36  1477.14  1482.70  1488.11  1488.19  1490.32
eigval :     1491.21  1496.02  1498.67  1501.14  1505.04  1507.81
eigval :     1536.94  1558.03  1563.39  1564.23  1574.98  1575.41
eigval :     1580.27  1581.35  1589.38  1589.46  1599.49  1599.66
eigval :     1614.50  1614.97  1745.00  1759.82  2956.91  2961.24
eigval :     2964.32  2967.08  2971.06  2972.11  2972.97  2976.53
eigval :     2981.31  2984.57  2987.97  2988.90  2994.41  2997.74
eigval :     3029.57  3032.30  3037.89  3075.09  3076.23  3076.65
eigval :     3077.29  3080.65  3081.71  3082.10  3082.83  3085.46
eigval :     3086.52  3088.06  3088.78  3089.97  3090.67  3091.93
eigval :     3093.51  3095.84  3095.95  3097.56  3101.59  3102.45
eigval :     3115.42  3132.57  3139.86

   temp. (K)  partition function   enthalpy   heat capacity  entropy
                                   cal/mol     cal/K/mol   cal/K/mol   J/K/mol
 298.15  VIB  0.215E+26            28621.037    172.430    184.599
         ROT  0.212E+09              888.752      2.981     41.083
         INT  0.456E+34            29509.790    175.411    225.681
         TR   0.198E+29             1481.254      4.968     45.695
         TOT                       30991.0436   180.3788   271.3763  1135.4384

       T/K    H(0)-H(T)+PV         H(T)/Eh          T*S/Eh         G(T)/Eh
   ------------------------------------------------------------------------
    298.15    0.493874E-01    0.814093E+00    0.128940E+00    0.685154E+00
   ------------------------------------------------------------------------

         :::::::::::::::::::::::::::::::::::::::::::::::::::::
         ::                  THERMODYNAMIC                  ::
         :::::::::::::::::::::::::::::::::::::::::::::::::::::
         :: total free energy        -147.581590527377 Eh   ::
         ::.................................................::
         :: total energy             -148.266744198433 Eh   ::
         :: zero point energy           0.764705937103 Eh   ::
         :: G(RRHO) w/o ZPVE           -0.079552266046 Eh   ::
         :: G(RRHO) contrib.            0.685153671056 Eh   ::
         :::::::::::::::::::::::::::::::::::::::::::::::::::::

           -------------------------------------------------
          | TOTAL ENERGY             -148.266744198433 Eh   |
          | TOTAL ENTHALPY           -147.452650889790 Eh   |
          | TOTAL FREE ENERGY        -147.581590527377 Eh   |
          | GRADIENT NORM               0.000051074758 Eh/α |
          | HOMO-LUMO GAP               1.498509413523 eV   |
           -------------------------------------------------

 * finished run on 2025/08/30 at 00:47:07.342
