   * xtb version 6.7.1 (edcfbbe) compiled by 'albert@albert-system' on 2024-07-22

   ID    Z sym.   atoms
    1    8 O      1
    2    6 C      2-16, 18-33
    3    7 N      17
    4    1 H      34-54

          program call               : xtb data2507/gas/PCBP/PCBP_gas_S0_crest.xyz --gfn 2 --ohess vtight --parallel 40 --molden --ceasefiles --namespace data2507/gas/PCBP/PCBP_gas_S0_finalOpt
          :  Hamiltonian                  GFN2-xTB          :
 * total energy  :   -84.0841667 Eh     change       -0.3216456E-08 Eh
 * total energy  :   -84.0841677 Eh     change       -0.1043363E-05 Eh
 * total energy  :   -84.0841692 Eh     change       -0.1459614E-05 Eh
 * total energy  :   -84.0841727 Eh     change       -0.3497253E-05 Eh
 * total energy  :   -84.0841746 Eh     change       -0.1907531E-05 Eh
 * total energy  :   -84.0841755 Eh     change       -0.9166823E-06 Eh
 * total energy  :   -84.0841764 Eh     change       -0.8906011E-06 Eh
 * total energy  :   -84.0841773 Eh     change       -0.9070226E-06 Eh
 * total energy  :   -84.0841779 Eh     change       -0.6035161E-06 Eh
 * total energy  :   -84.0841785 Eh     change       -0.5681885E-06 Eh
 * total energy  :   -84.0841809 Eh     change       -0.3836494E-06 Eh
 * total energy  :   -84.0841812 Eh     change       -0.2949495E-06 Eh
 * total energy  :   -84.0841814 Eh     change       -0.2832445E-06 Eh
 * total energy  :   -84.0841817 Eh     change       -0.2812315E-06 Eh
 * total energy  :   -84.0841820 Eh     change       -0.2771724E-06 Eh
 * total energy  :   -84.0841822 Eh     change       -0.2276442E-06 Eh
 * total energy  :   -84.0841824 Eh     change       -0.1863695E-06 Eh
 * total energy  :   -84.0841826 Eh     change       -0.1573577E-06 Eh
 * total energy  :   -84.0841826 Eh     change       -0.2537348E-08 Eh
   *** GEOMETRY OPTIMIZATION CONVERGED AFTER 22 ITERATIONS ***

 final structure:
================
54
 xtb: 6.7.1 (edcfbbe)
O            6.44109930172807        2.21872745596633        0.65099897145581
C            5.97488590749832        1.14616544075411        0.32035561399481
C            6.84742479451065       -0.00206912227134       -0.03923438833756
C            8.07351520731563       -0.13774315452759        0.60810913468767
C            8.91967207366981       -1.18227828377182        0.28852714254231
C            8.55938901178730       -2.08769741108294       -0.69676182065960
C            7.35356711567115       -1.94312654680558       -1.36423048325659
C            6.49627625208049       -0.90849652320406       -1.03719940026577
C            4.50971663637334        0.92163001107085        0.25839587888964
C            3.67752733476112        2.00236790295534       -0.03019970332755
C            2.30945134772274        1.84090924719609       -0.08097531045728
C            1.73089140185606        0.59894387840134        0.18204914617654
C            0.27402228780550        0.42596912044891        0.13631753990885
C           -0.38101492312917       -0.36340064530048        1.08054760447377
C           -1.75103606780409       -0.52166568805658        1.04501692031510
C           -2.50211261336932        0.09623595628998        0.04801589395688
N           -3.89050798422450       -0.07087036961152        0.00317681091444
C           -4.82450087845948        0.94140771733624       -0.10671272767175
C           -4.63855569155497        2.31576233445363       -0.14541191205584
C           -5.76156083942596        3.11655938587676       -0.22891805146068
C           -7.04309598539844        2.57162540133943       -0.26447178691649
C           -7.23547198193278        1.20610866768845       -0.20097887370604
C           -6.12209937311290        0.38061973244115       -0.11666749217475
C           -5.95328908194149       -1.04193769988976       -0.01371704941749
C           -6.84085431161932       -2.10958780440715        0.00721187451892
C           -6.33305882781970       -3.39037381509254        0.09360909139410
C           -4.95898449036978       -3.61393561072137        0.14276708058735
C           -4.05623608134115       -2.56796684312258        0.12328052100489
C           -4.56142951127477       -1.27722074633311        0.06216411576696
C           -1.85585933671464        0.88141523935011       -0.90368348962080
C           -0.48728852298630        1.04843300685648       -0.85197493608792
C            2.56540803910797       -0.47322244648281        0.49839949348660
C            3.93630314847616       -0.31907781263778        0.53149596862657
H            8.34140891370539        0.58331008106722        1.36609098037063
H            9.86343521699619       -1.28896426565627        0.80251729554557
H            9.22173970630664       -2.90220187881704       -0.95069278523765
H            7.08097544170787       -2.64001564286856       -2.14323921857180
H            5.56475220662191       -0.78788502249439       -1.57116951051632
H            4.12881556885445        2.96533761682354       -0.21820527990774
H            1.67649541121912        2.68834655658152       -0.29919826241896
H            0.18705432887487       -0.83079896359960        1.87118232956187
H           -2.25128147996708       -1.11006893042783        1.79957764419097
H           -3.65097846417469        2.74945833799424       -0.09889748695877
H           -5.64282397601883        4.18953214144359       -0.26328427380993
H           -7.89521323023932        3.23138404737072       -0.33267550094508
H           -8.22900410569325        0.78390971779638       -0.21119267979295
H           -7.90500100331523       -1.93646282545403       -0.04810854833355
H           -7.00596758418091       -4.23467233151941        0.11378203253900
H           -4.59036918025275       -4.62793947554268        0.19334833910239
H           -2.99280710172922       -2.75343880463609        0.14243431650837
H           -2.43176859855564        1.34322219246909       -1.69164690642630
H            0.00392855997256        1.64376870285934       -1.60738288501410
H            2.13274435614396       -1.44214213618713        0.70044794677005
H            4.56535265663871       -1.15806624120811        0.79149560175870

          :  Hamiltonian                  GFN2-xTB          :
         :: gradient norm              0.000029493844 Eh/a0 ::
         :: HOMO-LUMO gap              2.039617392368 eV    ::
         :: SCC energy               -85.648786738783 Eh    ::
         :: -> dispersion             -0.068384382537 Eh    ::
         :: repulsion energy           1.564604159166 Eh    ::

    * Orbital Energies and Occupations

         #    Occupation            Energy/Eh            Energy/eV
      -------------------------------------------------------------
         1        2.0000           -0.7020199             -19.1029
       ...           ...                  ...                  ...
        66        2.0000           -0.4247691             -11.5586
        67        2.0000           -0.4225398             -11.4979
        68        2.0000           -0.4206843             -11.4474
        69        2.0000           -0.4188256             -11.3968
        70        2.0000           -0.4185141             -11.3883
        71        2.0000           -0.4169351             -11.3454
        72        2.0000           -0.4158032             -11.3146
        73        2.0000           -0.4151706             -11.2974
        74        2.0000           -0.4054382             -11.0325
        75        2.0000           -0.4003238             -10.8934
        76        2.0000           -0.3877061             -10.5500
        77        2.0000           -0.3788468             -10.3089
        78        2.0000           -0.3631300              -9.8813 (HOMO)
        79                         -0.2881754              -7.8417 (LUMO)
        80                         -0.2543677              -6.9217
        81                         -0.2443220              -6.6483
        82                         -0.2369516              -6.4478
        83                         -0.2362825              -6.4296
        84                         -0.2330697              -6.3422
        85                         -0.2244705              -6.1082
        86                         -0.2220807              -6.0431
        87                         -0.1942613              -5.2861
        88                         -0.1861788              -5.0662
        89                         -0.1817984              -4.9470
       ...                                ...                  ...
       153                          0.7457643              20.2933
      -------------------------------------------------------------
                  HL-Gap            0.0749546 Eh            2.0396 eV

     #   Z          covCN         q      C6AA      α(0)
     1   8 O        0.858    -0.371    21.102     6.159
     2   6 C        2.828     0.225    23.269     7.904
     3   6 C        2.973    -0.011    28.284     8.724
     4   6 C        2.925    -0.018    28.452     8.747
     5   6 C        2.918    -0.027    28.668     8.780
     6   6 C        2.920    -0.024    28.594     8.769
     7   6 C        2.919    -0.028    28.691     8.784
     8   6 C        2.921    -0.026    28.663     8.780
     9   6 C        2.972    -0.014    28.351     8.734
    10   6 C        2.923    -0.018    28.470     8.750
    11   6 C        2.923    -0.033    28.816     8.803
    12   6 C        2.977     0.017    27.635     8.623
    13   6 C        2.976     0.006    27.875     8.660
    14   6 C        2.924    -0.033    28.811     8.802
    15   6 C        2.920    -0.043    29.069     8.841
    16   6 C        2.913     0.065    26.553     8.450
    17   7 N        2.802    -0.043    22.078     6.979
    18   6 C        3.075     0.047    26.879     8.500
    19   6 C        2.910    -0.051    29.262     8.870
    20   6 C        2.924    -0.033    28.828     8.805
    21   6 C        2.920    -0.041    29.007     8.832
    22   6 C        2.913    -0.033    28.813     8.802
    23   6 C        3.068    -0.017    28.355     8.731
    24   6 C        3.068    -0.017    28.354     8.731
    25   6 C        2.913    -0.033    28.813     8.802
    26   6 C        2.920    -0.041    29.009     8.832
    27   6 C        2.924    -0.033    28.833     8.806
    28   6 C        2.910    -0.051    29.265     8.871
    29   6 C        3.075     0.046    26.880     8.501
    30   6 C        2.920    -0.043    29.069     8.842
    31   6 C        2.924    -0.033    28.812     8.802
    32   6 C        2.923    -0.034    28.836     8.806
    33   6 C        2.919    -0.027    28.681     8.782
    34   1 H        0.926     0.053     2.278     2.360
    35   1 H        0.926     0.039     2.462     2.453
    36   1 H        0.926     0.037     2.483     2.464
    37   1 H        0.926     0.036     2.501     2.473
    38   1 H        0.926     0.036     2.508     2.476
    39   1 H        0.926     0.055     2.254     2.348
    40   1 H        0.926     0.040     2.448     2.447
    41   1 H        0.926     0.039     2.464     2.455
    42   1 H        0.926     0.043     2.414     2.430
    43   1 H        0.926     0.027     2.627     2.534
    44   1 H        0.926     0.029     2.594     2.519
    45   1 H        0.926     0.028     2.608     2.525
    46   1 H        0.926     0.031     2.568     2.506
    47   1 H        0.926     0.031     2.568     2.506
    48   1 H        0.926     0.028     2.610     2.527
    49   1 H        0.926     0.029     2.602     2.522
    50   1 H        0.926     0.027     2.636     2.539
    51   1 H        0.926     0.043     2.413     2.429
    52   1 H        0.926     0.039     2.460     2.453
    53   1 H        0.926     0.037     2.484     2.465
    54   1 H        0.926     0.037     2.490     2.468

molecular dipole:
                 x           y           z       tot (Debye)
 q only:       -0.206      -0.986      -0.304
   full:       -0.180      -1.129      -0.347       3.037

 projected vibrational frequencies (cm⁻¹)
eigval :       -0.00    -0.00    -0.00    -0.00     0.00     0.00
eigval :       13.36    16.80    27.42    39.02    40.14    58.23
eigval :       75.61    88.42    93.36   105.07   126.09   132.03
eigval :      147.06   175.81   193.91   218.68   231.78   254.18
eigval :      271.75   297.13   317.10   359.03   365.54   376.93
eigval :      383.98   387.74   390.84   399.71   412.74   423.18
eigval :      436.89   481.12   482.32   516.68   523.96   535.79
eigval :      541.15   558.85   582.59   586.79   596.62   602.34
eigval :      613.33   617.90   645.69   669.67   674.02   678.28
eigval :      693.59   707.93   714.46   724.73   756.33   769.66
eigval :      774.13   780.32   781.58   812.59   836.50   866.15
eigval :      873.19   873.76   880.05   882.16   898.13   902.56
eigval :      902.99   908.04   914.71   918.66   921.18   922.95
eigval :      928.25   928.90   932.88   933.78   935.51   937.57
eigval :      985.44  1005.57  1012.12  1024.28  1070.52  1074.04
eigval :     1078.76  1080.88  1118.27  1119.52  1134.60  1143.08
eigval :     1152.97  1175.85  1176.70  1181.33  1181.36  1183.68
eigval :     1191.38  1201.31  1208.36  1236.59  1244.53  1258.63
eigval :     1265.61  1271.58  1277.91  1295.47  1302.59  1304.00
eigval :     1316.01  1320.85  1323.28  1357.68  1362.04  1370.52
eigval :     1392.08  1412.95  1428.25  1429.87  1430.87  1462.94
eigval :     1472.80  1476.25  1488.19  1504.97  1553.48  1564.42
eigval :     1575.53  1580.75  1584.18  1589.55  1592.04  1599.31
eigval :     1600.18  1615.17  1693.21  3074.20  3076.12  3076.30
eigval :     3076.79  3079.04  3080.78  3081.49  3082.41  3083.29
eigval :     3084.51  3085.12  3088.30  3088.47  3090.01  3091.73
eigval :     3094.76  3095.31  3095.74  3096.04  3096.89  3097.13

   temp. (K)  partition function   enthalpy   heat capacity  entropy
                                   cal/mol     cal/K/mol   cal/K/mol   J/K/mol
 298.15  VIB  0.868E+11            14505.898     94.194     89.246
         ROT  0.362E+08              888.752      2.981     37.568
         INT  0.314E+19            15394.651     97.175    126.815
         TR   0.843E+28             1481.254      4.968     44.000
         TOT                       16875.9046   102.1427   170.8154   714.6914

       T/K    H(0)-H(T)+PV         H(T)/Eh          T*S/Eh         G(T)/Eh
   ------------------------------------------------------------------------
    298.15    0.268935E-01    0.442086E+00    0.811599E-01    0.360926E+00
   ------------------------------------------------------------------------

         :::::::::::::::::::::::::::::::::::::::::::::::::::::
         ::                  THERMODYNAMIC                  ::
         :::::::::::::::::::::::::::::::::::::::::::::::::::::
         :: total free energy         -83.723256166154 Eh   ::
         ::.................................................::
         :: total energy              -84.084182579617 Eh   ::
         :: zero point energy           0.415192833983 Eh   ::
         :: G(RRHO) w/o ZPVE           -0.054266420520 Eh   ::
         :: G(RRHO) contrib.            0.360926413463 Eh   ::
         :::::::::::::::::::::::::::::::::::::::::::::::::::::

           -------------------------------------------------
          | TOTAL ENERGY              -84.084182579617 Eh   |
          | TOTAL ENTHALPY            -83.642096279733 Eh   |
          | TOTAL FREE ENERGY         -83.723256166154 Eh   |
          | GRADIENT NORM               0.000029493427 Eh/α |
          | HOMO-LUMO GAP               2.039617670221 eV   |
           -------------------------------------------------

 * finished run on 2025/08/25 at 14:57:59.956
