   * xtb version 6.7.1 (edcfbbe) compiled by 'albert@albert-system' on 2024-07-22

   ID    Z sym.   atoms
    1    8 O      1
    2    6 C      2-16, 18-33
    3    7 N      17
    4    1 H      34-54

          program call               : xtb data2507/gas/PCBP/PCBP.xyz --gfn 2 --ohess vtight --parallel 40 --molden --ceasefiles --namespace data2507/gas/PCBP/PCBP_gas_S0_preOpt
          :  Hamiltonian                  GFN2-xTB          :
 * total energy  :   -84.0717654 Eh     change       -0.9759873E-09 Eh
 * total energy  :   -84.0805625 Eh     change       -0.8797110E-02 Eh
 * total energy  :   -84.0822712 Eh     change       -0.1708722E-02 Eh
 * total energy  :   -84.0827414 Eh     change       -0.4701411E-03 Eh
 * total energy  :   -84.0831634 Eh     change       -0.4220518E-03 Eh
 * total energy  :   -84.0833146 Eh     change       -0.1511980E-03 Eh
 * total energy  :   -84.0834294 Eh     change       -0.1147402E-03 Eh
 * total energy  :   -84.0835338 Eh     change       -0.1044310E-03 Eh
 * total energy  :   -84.0836209 Eh     change       -0.8709557E-04 Eh
 * total energy  :   -84.0836873 Eh     change       -0.6641200E-04 Eh
 * total energy  :   -84.0841611 Eh     change       -0.3165270E-06 Eh
 * total energy  :   -84.0841614 Eh     change       -0.3477193E-06 Eh
 * total energy  :   -84.0841616 Eh     change       -0.2134354E-06 Eh
 * total energy  :   -84.0841618 Eh     change       -0.1440831E-06 Eh
 * total energy  :   -84.0841619 Eh     change       -0.1486098E-06 Eh
 * total energy  :   -84.0841621 Eh     change       -0.1652400E-06 Eh
 * total energy  :   -84.0841622 Eh     change       -0.1531094E-06 Eh
 * total energy  :   -84.0841624 Eh     change       -0.1134179E-06 Eh
 * total energy  :   -84.0841624 Eh     change       -0.8152540E-07 Eh
   *** GEOMETRY OPTIMIZATION CONVERGED AFTER 59 ITERATIONS ***

 final structure:
================
54
 xtb: 6.7.1 (edcfbbe)
O            6.39360372446755       -2.34326494630030        1.14746459564883
C            5.95994371808212       -1.33714330611554        0.62155729457953
C            6.86626302129589       -0.29652133163933        0.06965500225716
C            6.54869754465252        0.41761830211655       -1.08357594998493
C            7.43594306466739        1.35292419418755       -1.58388792394849
C            8.63836871910329        1.58993499733533       -0.93702837615190
C            8.96496659616536        0.87454998129721        0.20398353730635
C            8.08882531689391       -0.07247041308489        0.69872897594871
C            4.50200362243369       -1.08915129365687        0.50219115057239
C            3.64140329136347       -2.18189468701931        0.40782500138205
C            2.27827209048947       -1.99610760480618        0.31856280638226
C            1.73436117949250       -0.71171687441956        0.33895409422144
C            0.28312578252367       -0.50930808612837        0.24959704594554
C           -0.59686852770899       -1.34782424270204        0.93208187744717
C           -1.96078325662153       -1.15240734956957        0.86125507893487
C           -2.48116106205642       -0.11882542531484        0.08601802195044
N           -3.86400225631615        0.07827858404525        0.00603574826692
C           -4.52149640947724        1.27922826252030        0.19192528439655
C           -4.01182266999839        2.52217928301748        0.53879299010276
C           -4.90442799595174        3.56588671402090        0.69155142219216
C           -6.27409092707969        3.38404090493035        0.51432412635952
C           -6.78956082464085        2.14402673783417        0.19438236463384
C           -5.91220824577260        1.07954591430811        0.03556811381010
C           -6.09376681178282       -0.31306536940756       -0.26509889994408
C           -7.20992068169815       -1.09344240845243       -0.53591039492038
C           -7.02836614443604       -2.43312574435649       -0.81511652851812
C           -5.75279268145168       -2.99230251857680       -0.84225899476380
C           -4.62720443507280       -2.23616946246088       -0.57637465145736
C           -4.80541976853069       -0.89484893245205       -0.26964803467854
C           -1.60988846502341        0.71730692244217       -0.60805641435256
C           -0.24635319809818        0.52737527344751       -0.51733681459257
C            2.59710360702336        0.37808762340052        0.45673850177598
C            3.96262720043221        0.19567371526455        0.53625032812361
H            5.61960025112255        0.22213168212208       -1.59930662031557
H            7.18962228083355        1.89959267981454       -2.48239318451496
H            9.32429086399227        2.32724426587192       -1.32752652850481
H            9.90589365908173        1.05234791738835        0.70327748910942
H            8.33030115620060       -0.64669323738230        1.58086766168662
H            4.06676133316141       -3.17448330721784        0.39601029990096
H            1.62514652231427       -2.85012003790975        0.21612471090916
H           -0.20473442701568       -2.14044079963036        1.55190823127580
H           -2.63178880883924       -1.78725999295273        1.42022167400155
H           -2.95425365028448        2.67001193193723        0.69785620980665
H           -4.53167764869165        4.54387991882383        0.95841822787675
H           -6.93869295375326        4.22580160550625        0.64000072743859
H           -7.85246459439137        1.99849976872886        0.07396309750175
H           -8.19669612842697       -0.65559623161936       -0.53150828917559
H           -7.88313499305035       -3.05846248204174       -1.02572456446824
H           -5.64031505741357       -4.03982310620893       -1.08018778003176
H           -3.64195955529574       -2.67550230055791       -0.61916345709128
H           -2.01039077419051        1.50367239718869       -1.23020544493707
H            0.41821407935095        1.17155754045231       -1.07407113635805
H            2.18763916541069        1.37629001375400        0.50968903928803
H            4.61326416250773        1.05028136022635        0.65259325767804

          :  Hamiltonian                  GFN2-xTB          :
         :: gradient norm              0.000025705228 Eh/a0 ::
         :: HOMO-LUMO gap              2.037532633669 eV    ::
         :: SCC energy               -85.648815117549 Eh    ::
         :: -> dispersion             -0.068410527141 Eh    ::
         :: repulsion energy           1.564652680437 Eh    ::

    * Orbital Energies and Occupations

         #    Occupation            Energy/Eh            Energy/eV
      -------------------------------------------------------------
         1        2.0000           -0.7021379             -19.1061
       ...           ...                  ...                  ...
        66        2.0000           -0.4238343             -11.5331
        67        2.0000           -0.4224392             -11.4952
        68        2.0000           -0.4206461             -11.4464
        69        2.0000           -0.4187962             -11.3960
        70        2.0000           -0.4184292             -11.3860
        71        2.0000           -0.4168665             -11.3435
        72        2.0000           -0.4159995             -11.3199
        73        2.0000           -0.4152638             -11.2999
        74        2.0000           -0.4054356             -11.0325
        75        2.0000           -0.4005434             -10.8993
        76        2.0000           -0.3877811             -10.5521
        77        2.0000           -0.3788480             -10.3090
        78        2.0000           -0.3631167              -9.8809 (HOMO)
        79                         -0.2882388              -7.8434 (LUMO)
        80                         -0.2542957              -6.9197
        81                         -0.2443064              -6.6479
        82                         -0.2368927              -6.4462
        83                         -0.2363794              -6.4322
        84                         -0.2331330              -6.3439
        85                         -0.2245352              -6.1099
        86                         -0.2220860              -6.0433
        87                         -0.1941626              -5.2834
        88                         -0.1861787              -5.0662
        89                         -0.1818125              -4.9474
       ...                                ...                  ...
       153                          0.7457539              20.2930
      -------------------------------------------------------------
                  HL-Gap            0.0748779 Eh            2.0375 eV

     #   Z          covCN         q      C6AA      α(0)
     1   8 O        0.858    -0.370    21.097     6.158
     2   6 C        2.828     0.225    23.267     7.904
     3   6 C        2.973    -0.011    28.283     8.723
     4   6 C        2.921    -0.026    28.662     8.779
     5   6 C        2.919    -0.028    28.691     8.784
     6   6 C        2.920    -0.024    28.594     8.769
     7   6 C        2.918    -0.027    28.667     8.780
     8   6 C        2.925    -0.018    28.451     8.747
     9   6 C        2.972    -0.014    28.353     8.734
    10   6 C        2.923    -0.018    28.469     8.750
    11   6 C        2.922    -0.033    28.815     8.803
    12   6 C        2.977     0.017    27.633     8.623
    13   6 C        2.976     0.006    27.877     8.661
    14   6 C        2.924    -0.032    28.806     8.802
    15   6 C        2.920    -0.043    29.067     8.841
    16   6 C        2.913     0.065    26.554     8.450
    17   7 N        2.802    -0.043    22.077     6.978
    18   6 C        3.075     0.046    26.880     8.501
    19   6 C        2.910    -0.051    29.265     8.871
    20   6 C        2.924    -0.033    28.832     8.806
    21   6 C        2.920    -0.041    29.009     8.832
    22   6 C        2.913    -0.033    28.813     8.802
    23   6 C        3.068    -0.017    28.354     8.731
    24   6 C        3.068    -0.017    28.355     8.731
    25   6 C        2.913    -0.033    28.813     8.802
    26   6 C        2.920    -0.041    29.007     8.832
    27   6 C        2.924    -0.033    28.829     8.805
    28   6 C        2.910    -0.051    29.263     8.870
    29   6 C        3.075     0.046    26.880     8.500
    30   6 C        2.920    -0.043    29.074     8.842
    31   6 C        2.924    -0.033    28.816     8.803
    32   6 C        2.923    -0.033    28.835     8.806
    33   6 C        2.919    -0.027    28.680     8.782
    34   1 H        0.926     0.036     2.509     2.477
    35   1 H        0.926     0.036     2.501     2.473
    36   1 H        0.926     0.037     2.483     2.464
    37   1 H        0.926     0.039     2.461     2.453
    38   1 H        0.926     0.053     2.279     2.361
    39   1 H        0.926     0.055     2.256     2.349
    40   1 H        0.926     0.040     2.449     2.447
    41   1 H        0.926     0.040     2.447     2.446
    42   1 H        0.926     0.043     2.408     2.427
    43   1 H        0.926     0.027     2.634     2.538
    44   1 H        0.926     0.029     2.601     2.522
    45   1 H        0.926     0.028     2.610     2.526
    46   1 H        0.926     0.031     2.568     2.506
    47   1 H        0.926     0.031     2.568     2.506
    48   1 H        0.926     0.028     2.608     2.525
    49   1 H        0.926     0.029     2.595     2.519
    50   1 H        0.926     0.027     2.628     2.535
    51   1 H        0.926     0.042     2.418     2.431
    52   1 H        0.926     0.038     2.478     2.462
    53   1 H        0.926     0.037     2.485     2.465
    54   1 H        0.926     0.037     2.491     2.468

molecular dipole:
                 x           y           z       tot (Debye)
 q only:       -0.177       0.913      -0.477
   full:       -0.146       1.045      -0.546       3.020

 projected vibrational frequencies (cm⁻¹)
eigval :       -0.00    -0.00    -0.00    -0.00     0.00     0.00
eigval :       13.14    20.55    22.32    36.84    43.71    58.19
eigval :       73.67    87.59    96.08   107.58   120.47   132.57
eigval :      147.56   170.82   198.96   218.83   234.50   253.64
eigval :      271.80   293.66   317.68   358.69   365.74   376.75
eigval :      383.10   388.78   390.22   400.53   412.77   423.32
eigval :      437.02   480.82   487.14   515.72   521.73   535.18
eigval :      541.15   557.23   582.53   586.78   596.58   601.39
eigval :      612.04   619.17   646.66   671.13   674.03   679.36
eigval :      691.52   707.96   714.90   724.87   756.32   769.63
eigval :      773.98   780.31   781.62   813.06   836.29   866.30
eigval :      873.56   873.81   879.89   882.02   898.12   902.61
eigval :      903.00   907.95   914.66   918.75   921.19   922.83
eigval :      928.38   928.61   932.84   934.03   935.25   937.82
eigval :      985.46  1005.59  1012.11  1024.24  1070.61  1074.11
eigval :     1079.13  1080.88  1118.26  1119.47  1134.77  1142.50
eigval :     1153.04  1175.81  1176.75  1181.33  1181.36  1183.63
eigval :     1191.34  1201.42  1207.62  1236.58  1244.50  1258.51
eigval :     1265.80  1271.02  1277.83  1295.58  1302.55  1304.12
eigval :     1316.00  1320.84  1323.24  1357.72  1362.02  1370.51
eigval :     1392.21  1412.71  1428.24  1429.86  1430.88  1463.01
eigval :     1472.82  1476.26  1488.18  1504.97  1553.58  1564.69
eigval :     1575.56  1580.81  1584.66  1589.55  1592.09  1599.31
eigval :     1600.24  1615.15  1693.61  3074.12  3076.08  3076.33
eigval :     3076.78  3079.03  3080.87  3081.67  3082.05  3082.83
eigval :     3085.06  3085.10  3088.24  3088.48  3090.07  3091.70
eigval :     3094.78  3095.16  3095.64  3096.42  3096.93  3097.21

   temp. (K)  partition function   enthalpy   heat capacity  entropy
                                   cal/mol     cal/K/mol   cal/K/mol   J/K/mol
 298.15  VIB  0.878E+11            14508.673     94.187     89.253
         ROT  0.362E+08              888.752      2.981     37.570
         INT  0.318E+19            15397.425     97.167    126.823
         TR   0.843E+28             1481.254      4.968     44.000
         TOT                       16878.6792   102.1356   170.8239   714.7274

       T/K    H(0)-H(T)+PV         H(T)/Eh          T*S/Eh         G(T)/Eh
   ------------------------------------------------------------------------
    298.15    0.268979E-01    0.442087E+00    0.811640E-01    0.360923E+00
   ------------------------------------------------------------------------

         :::::::::::::::::::::::::::::::::::::::::::::::::::::
         ::                  THERMODYNAMIC                  ::
         :::::::::::::::::::::::::::::::::::::::::::::::::::::
         :: total free energy         -83.723239333642 Eh   ::
         ::.................................................::
         :: total energy              -84.084162437114 Eh   ::
         :: zero point energy           0.415189180611 Eh   ::
         :: G(RRHO) w/o ZPVE           -0.054266077139 Eh   ::
         :: G(RRHO) contrib.            0.360923103472 Eh   ::
         :::::::::::::::::::::::::::::::::::::::::::::::::::::

           -------------------------------------------------
          | TOTAL ENERGY              -84.084162437114 Eh   |
          | TOTAL ENTHALPY            -83.642075369028 Eh   |
          | TOTAL FREE ENERGY         -83.723239333642 Eh   |
          | GRADIENT NORM               0.000025708687 Eh/α |
          | HOMO-LUMO GAP               2.037532012941 eV   |
           -------------------------------------------------

 * finished run on 2025/08/25 at 14:56:13.957
