   * xtb version 6.7.1 (edcfbbe) compiled by 'albert@albert-system' on 2024-07-22

   ID    Z sym.   atoms
    1    8 O      1
    2    6 C      2-16, 18-33
    3    7 N      17
    4    1 H      34-54

          program call               : xtb data2507/gas/PCBP/PCBP_gas_S0_finalOpt.xtbopt.xyz --gfn 2 --spinpol --tblite --uhf 2 --ohess vtight --parallel 40 --molden --ceasefiles --namespace data2507/gas/PCBP/PCBP_gas_T1_preOpt
 * total energy  :   -83.9928030 Eh     change       -0.2501571E-07 Eh
 * total energy  :   -83.9959396 Eh     change       -0.3136665E-02 Eh
 * total energy  :   -83.9968067 Eh     change       -0.8670475E-03 Eh
 * total energy  :   -83.9970044 Eh     change       -0.1977299E-03 Eh
 * total energy  :   -83.9971807 Eh     change       -0.1762794E-03 Eh
 * total energy  :   -83.9973457 Eh     change       -0.1650435E-03 Eh
 * total energy  :   -83.9975325 Eh     change       -0.1867322E-03 Eh
 * total energy  :   -83.9977044 Eh     change       -0.1719565E-03 Eh
 * total energy  :   -83.9978232 Eh     change       -0.1187552E-03 Eh
 * total energy  :   -83.9979017 Eh     change       -0.7854424E-04 Eh
 * total energy  :   -83.9986834 Eh     change       -0.3134586E-06 Eh
 * total energy  :   -83.9986837 Eh     change       -0.2463447E-06 Eh
 * total energy  :   -83.9986840 Eh     change       -0.2829788E-06 Eh
 * total energy  :   -83.9986842 Eh     change       -0.2418236E-06 Eh
 * total energy  :   -83.9986844 Eh     change       -0.1789873E-06 Eh
 * total energy  :   -83.9986846 Eh     change       -0.1579402E-06 Eh
 * total energy  :   -83.9986847 Eh     change       -0.1050895E-06 Eh
 * total energy  :   -83.9986848 Eh     change       -0.1078004E-06 Eh
 * total energy  :   -83.9986848 Eh     change       -0.6192244E-07 Eh
   *** GEOMETRY OPTIMIZATION CONVERGED AFTER 67 ITERATIONS ***

 final structure:
================
54
 xtb: 6.7.1 (edcfbbe)
O            6.40830880208005        2.30722348667775       -0.36234598647362
C            5.92961951061382        1.15159192752354       -0.24036809368288
C            6.86328213112443        0.00749455211869       -0.14492089428636
C            8.07226289162343        0.18139461818998        0.53116382475461
C            8.97485881175810       -0.85996386069358        0.61387557207255
C            8.69872328220880       -2.07515107712941        0.00687769159907
C            7.51658494684707       -2.23823283043730       -0.69906294791993
C            6.60294858662820       -1.20530345056797       -0.78392489284835
C            4.51687021853655        0.91431209127694       -0.17835871350979
C            3.64017869993244        1.96822590668046       -0.54367367662656
C            2.28767711967129        1.79959496468432       -0.51578051148301
C            1.69778226625384        0.59303193246860       -0.07359392498371
C            0.26815827243380        0.42036202205291       -0.04526897418917
C           -0.35393814923163       -0.47614938960132        0.84794981470606
C           -1.71594563508867       -0.64053293940501        0.87152175556729
C           -2.53353458713357        0.08594988882876       -0.00132331074913
N           -3.91863075269803       -0.08042500537730        0.01951983298925
C           -4.85351918448588        0.93515817425147        0.04096369134101
C           -4.66422809847850        2.30933150177874        0.10648926593026
C           -5.78794057521197        3.11378356206955        0.14552941478629
C           -7.07050489306302        2.57174819973783        0.13245410776165
C           -7.26523711856172        1.20236063030888        0.09861888058752
C           -6.15333806839669        0.37576404706430        0.05760331404786
C           -5.98203552773356       -1.05272637175914        0.04143223715852
C           -6.86736312285472       -2.11914777787760        0.02782719295798
C           -6.35510710913602       -3.40362270015219       -0.01662149017776
C           -4.98156436775190       -3.62668813324626       -0.06694000990944
C           -4.07957013890829       -2.57898388738662       -0.05556522138839
C           -4.58677004823655       -1.28847246067437        0.02032426862261
C           -1.93756166827243        0.98186449905507       -0.89597374082871
C           -0.57521596756161        1.14258907984367       -0.91496735626744
C            2.57752550506714       -0.42659086215447        0.35675004697137
C            3.93487926025465       -0.28006876749959        0.30520539806923
H            8.28118253324151        1.13293467744987        0.99566587908323
H            9.90129111527190       -0.72132583851042        1.15202938894531
H            9.40759854133342       -2.88740857185005        0.06976104744660
H            7.30839008746733       -3.17427060684720       -1.19720812469596
H            5.70327483337141       -1.32753778270329       -1.36862872867487
H            4.07902030795086        2.90135735367221       -0.86309302183236
H            1.65386880051176        2.62666531479660       -0.79985553648832
H            0.24701262366602       -1.01568136722807        1.56311416435459
H           -2.17179471059463       -1.30153315503676        1.59410915894568
H           -3.67449043767623        2.73761094542420        0.14116903709462
H           -5.66763930028696        4.18560781097556        0.19268531675815
H           -7.92341666226385        3.23286010538674        0.16144414095270
H           -8.25978231795728        0.78329640788769        0.10938847010033
H           -7.93274265444349       -1.94744335530887        0.04585116330047
H           -7.02777951437826       -4.24791514646206       -0.02484433753001
H           -4.61237455966780       -4.63974714495229       -0.12156830312835
H           -3.01788894573765       -2.76084536206756       -0.11892993694534
H           -2.55831925990191        1.51454067463021       -1.60144143603195
H           -0.13927701200378        1.80589876352448       -1.64555760138537
H            2.17082641663549       -1.36258881417930        0.71009610544867
H            4.56902950804791       -1.07636941577340        0.66489602892755

 projected vibrational frequencies (cm⁻¹)
eigval :       -0.00     0.00     0.00     0.00     0.00     0.00
eigval :       13.18    18.91    27.80    39.99    44.93    62.03
eigval :       81.15    90.63    93.81   107.51   127.59   133.26
eigval :      148.08   183.84   205.89   218.80   231.54   260.89
eigval :      270.36   292.60   299.61   323.11   366.16   373.56
eigval :      381.62   383.11   389.71   400.41   407.95   420.60
eigval :      433.82   436.25   474.52   483.46   515.42   531.92
eigval :      536.75   539.41   543.63   579.06   580.61   588.95
eigval :      592.83   596.54   614.58   646.26   658.55   669.44
eigval :      674.35   682.09   708.18   715.33   751.44   754.75
eigval :      763.61   769.54   778.58   792.15   815.88   819.80
eigval :      843.12   861.77   871.61   871.85   884.49   890.90
eigval :      896.17   903.14   903.29   905.19   911.51   916.26
eigval :      917.52   920.49   921.07   925.09   928.64   936.76
eigval :      964.36   981.71  1003.15  1011.02  1046.50  1068.62
eigval :     1071.85  1077.91  1112.99  1116.29  1133.43  1143.98
eigval :     1149.85  1154.91  1163.22  1173.93  1177.44  1178.20
eigval :     1178.78  1200.52  1206.16  1230.58  1238.87  1244.74
eigval :     1260.92  1270.32  1272.68  1278.30  1285.56  1292.98
eigval :     1314.28  1320.70  1331.49  1344.88  1348.16  1362.90
eigval :     1401.82  1413.29  1415.09  1421.89  1423.01  1436.46
eigval :     1444.16  1446.89  1450.57  1462.75  1479.46  1482.62
eigval :     1493.13  1528.13  1555.19  1567.74  1569.51  1576.55
eigval :     1580.39  1581.80  1602.16  3070.93  3075.04  3075.61
eigval :     3076.76  3081.17  3082.57  3083.65  3084.23  3084.91
eigval :     3088.68  3089.23  3089.98  3090.77  3095.84  3096.06
eigval :     3097.30  3100.02  3100.97  3101.47  3101.93  3102.61

   temp. (K)  partition function   enthalpy   heat capacity  entropy
                                   cal/mol     cal/K/mol   cal/K/mol   J/K/mol
 298.15  VIB  0.685E+11            14713.652     96.197     90.011
         ROT  0.364E+08              888.752      2.981     37.577
         INT  0.249E+19            15602.405     99.178    127.587
         TR   0.843E+28             1481.254      4.968     44.000
         TOT                       17083.6586   104.1465   171.5879   717.9240

       T/K    H(0)-H(T)+PV         H(T)/Eh          T*S/Eh         G(T)/Eh
   ------------------------------------------------------------------------
    298.15    0.272245E-01    0.438593E+00    0.815270E-01    0.357066E+00
   ------------------------------------------------------------------------

         :::::::::::::::::::::::::::::::::::::::::::::::::::::
         ::                  THERMODYNAMIC                  ::
         :::::::::::::::::::::::::::::::::::::::::::::::::::::
         :: total free energy         -83.641619198105 Eh   ::
         ::.................................................::
         :: total energy              -83.998684840818 Eh   ::
         :: zero point energy           0.411368069342 Eh   ::
         :: G(RRHO) w/o ZPVE           -0.054302426630 Eh   ::
         :: G(RRHO) contrib.            0.357065642713 Eh   ::
         :::::::::::::::::::::::::::::::::::::::::::::::::::::

           -------------------------------------------------
          | TOTAL ENERGY              -83.998684840818 Eh   |
          | TOTAL ENTHALPY            -83.560092228622 Eh   |
          | TOTAL FREE ENERGY         -83.641619198105 Eh   |
          | GRADIENT NORM               0.000034783859 Eh/α |
           -------------------------------------------------

 * finished run on 2025/08/25 at 14:58:07.525
