   * xtb version 6.7.1 (edcfbbe) compiled by 'albert@albert-system' on 2024-07-22

   ID    Z sym.   atoms
    1    8 O      1
    2    6 C      2-16, 18-33
    3    7 N      17
    4    1 H      34-54

          program call               : xtb data2507/gas/PCBP/PCBP_gas_T1_crest.xyz --gfn 2 --spinpol --tblite --uhf 2 --ohess vtight --parallel 40 --molden --ceasefiles --namespace data2507/gas/PCBP/PCBP_gas_T1_finalOpt
 * total energy  :   -83.9987523 Eh     change       -0.1306444E-07 Eh
 * total energy  :   -83.9988614 Eh     change       -0.1090960E-03 Eh
 * total energy  :   -83.9989429 Eh     change       -0.8151635E-04 Eh
 * total energy  :   -83.9989526 Eh     change       -0.9739183E-05 Eh
 * total energy  :   -83.9989693 Eh     change       -0.1672069E-04 Eh
 * total energy  :   -83.9989751 Eh     change       -0.5787589E-05 Eh
 * total energy  :   -83.9989864 Eh     change       -0.1128337E-04 Eh
 * total energy  :   -83.9989890 Eh     change       -0.2553020E-05 Eh
 * total energy  :   -83.9989907 Eh     change       -0.1765153E-05 Eh
 * total energy  :   -83.9989916 Eh     change       -0.9187330E-06 Eh
 * total energy  :   -83.9989937 Eh     change       -0.1168231E-05 Eh
 * total energy  :   -83.9989949 Eh     change       -0.1208759E-05 Eh
 * total energy  :   -83.9989962 Eh     change       -0.1289616E-05 Eh
 * total energy  :   -83.9989975 Eh     change       -0.1328779E-05 Eh
 * total energy  :   -83.9989987 Eh     change       -0.1144521E-05 Eh
 * total energy  :   -83.9989993 Eh     change       -0.6905366E-06 Eh
 * total energy  :   -83.9989997 Eh     change       -0.3278266E-06 Eh
 * total energy  :   -83.9989998 Eh     change       -0.1703230E-06 Eh
 * total energy  :   -83.9989999 Eh     change       -0.2402959E-07 Eh
   *** GEOMETRY OPTIMIZATION CONVERGED AFTER 20 ITERATIONS ***

 final structure:
================
54
 xtb: 6.7.1 (edcfbbe)
O            6.42784303197615       -2.09228432472337        0.91581285203812
C            5.94514721202201       -1.03891205690522        0.42898181555548
C            6.86536810851981        0.00797657693207       -0.06170303489928
C            8.08299395163493        0.19625643539282        0.59548696318195
C            8.97492500299297        1.14699451980386        0.14174184972231
C            8.67897821402329        1.90479075572107       -0.98070761726792
C            7.48797750021598        1.69384559461427       -1.65838765679483
C            6.58486085084752        0.74912513692337       -1.21031151449387
C            4.52817333435654       -0.82069592378676        0.36595061473669
C            3.66664480479416       -1.92647139227416        0.58383464646698
C            2.31199918967341       -1.78446099874428        0.52888951945535
C            1.70540750887335       -0.53128102488226        0.27951351261891
C            0.27562259525771       -0.38019792582482        0.21092785370820
C           -0.31874884503372        0.66677292483483       -0.52421051901888
C           -1.68090503560242        0.81418250551411       -0.59453953238771
C           -2.52639992111911       -0.08292225315114        0.06776515125823
N           -3.91197074339313        0.06349218266385       -0.00381899804582
C           -4.81688275365842       -0.94061280608777       -0.28493786727742
C           -4.58775437990903       -2.27101859817470       -0.61035025973933
C           -5.68552276201495       -3.06720017163558       -0.87943990266556
C           -6.98053342806204       -2.55701363744282       -0.83946388649509
C           -7.21307934751166       -1.22504585252916       -0.54623242239478
C           -6.12775837472607       -0.40763927175562       -0.27187799412753
C           -5.99551403832384        0.99121863518697        0.03787484505050
C           -6.90787370661296        2.02096815839852        0.20676802019669
C           -6.43307444553316        3.27787002525997        0.53688230662340
C           -5.07122753235437        3.50578261202478        0.71677780015497
C           -4.14285998301226        2.49422941581297        0.55469499763170
C           -4.61065938033851        1.23781440740241        0.19280399374851
C           -1.95820974091846       -1.12991336999166        0.80243170734943
C           -0.59538271355310       -1.27123227064803        0.87178016047866
C            2.57039180421670        0.57697790474068        0.12649409616602
C            3.92873628853146        0.44787746434164        0.18857835805708
H            8.30646135850906       -0.40219983002196        1.46542102846770
H            9.90834246508756        1.29576623099297        0.66492146319263
H            9.37916065555661        2.64641544502824       -1.33564366910028
H            7.26463057577417        2.26237746206943       -2.54977015811539
H            5.67825880980861        0.56300816555736       -1.76688736128608
H            4.11980806329367       -2.89100935486857        0.75597496774184
H            1.69179824491633       -2.66208084619306        0.63470863114356
H            0.30818254479053        1.34445797431139       -1.08247262076516
H           -2.11319446112294        1.59895775309791       -1.19796659034276
H           -3.58669222834834       -2.66967174396530       -0.66673677790100
H           -5.53433939624380       -4.10605706524553       -1.13130766958361
H           -7.81244475170851       -3.21092487270120       -1.05320007152130
H           -8.21598563333115       -0.82639850167192       -0.53622231559177
H           -7.96548550519384        1.84129260870999        0.08833996063547
H           -7.12705071201531        4.09400310262355        0.66995077750583
H           -4.73268893458180        4.49268206187904        0.99424559130637
H           -3.09186698422656        2.67465508171042        0.71943054273582
H           -2.60355817475523       -1.80108212662842        1.35000520869340
H           -0.18406987171637       -2.05967593730078        1.48233615174250
H            2.14710530190317        1.56456092275201        0.01509925292091
H            4.54971944534431        1.32950358985496        0.13389998073071

 projected vibrational frequencies (cm⁻¹)
eigval :       -0.00    -0.00    -0.00     0.00     0.00     0.00
eigval :       13.51    21.08    25.13    37.75    47.14    62.19
eigval :       76.39    91.84   101.20   111.50   123.85   133.44
eigval :      148.66   177.43   211.77   218.61   233.31   261.27
eigval :      270.38   295.25   300.75   323.83   368.21   375.33
eigval :      380.26   387.72   390.54   399.59   405.31   420.23
eigval :      435.61   442.62   474.56   482.79   515.43   528.49
eigval :      536.85   541.87   547.03   578.79   580.89   589.07
eigval :      592.70   597.47   614.17   647.21   658.99   669.53
eigval :      674.35   682.90   708.12   715.52   751.63   754.68
eigval :      763.40   769.51   778.60   793.86   816.04   820.63
eigval :      843.13   862.43   871.64   871.89   883.86   891.74
eigval :      896.22   903.19   903.23   905.13   912.17   916.45
eigval :      917.40   920.37   921.34   925.15   928.92   937.57
eigval :      964.37   981.83  1002.86  1011.08  1046.23  1068.67
eigval :     1071.84  1077.89  1112.95  1116.58  1133.72  1144.00
eigval :     1149.84  1155.24  1163.83  1174.51  1177.50  1178.56
eigval :     1178.73  1200.76  1206.35  1230.62  1239.37  1245.33
eigval :     1260.90  1270.56  1272.13  1278.00  1285.54  1293.02
eigval :     1314.59  1321.58  1331.50  1345.10  1348.16  1363.02
eigval :     1403.01  1413.31  1415.13  1421.66  1423.23  1436.32
eigval :     1443.52  1447.24  1450.73  1462.73  1478.64  1482.50
eigval :     1492.66  1527.84  1555.53  1567.87  1569.77  1577.28
eigval :     1580.62  1581.97  1602.22  3070.45  3072.90  3075.25
eigval :     3078.40  3081.01  3082.76  3083.42  3083.98  3084.02
eigval :     3087.01  3088.37  3089.68  3090.25  3095.77  3096.08
eigval :     3097.02  3099.98  3100.10  3101.63  3102.23  3102.62

   temp. (K)  partition function   enthalpy   heat capacity  entropy
                                   cal/mol     cal/K/mol   cal/K/mol   J/K/mol
 298.15  VIB  0.637E+11            14693.699     96.118     89.784
         ROT  0.364E+08              888.752      2.981     37.580
         INT  0.232E+19            15582.452     99.098    127.364
         TR   0.843E+28             1481.254      4.968     44.000
         TOT                       17063.7056   104.0666   171.3643   716.9882

       T/K    H(0)-H(T)+PV         H(T)/Eh          T*S/Eh         G(T)/Eh
   ------------------------------------------------------------------------
    298.15    0.271927E-01    0.438635E+00    0.814207E-01    0.357214E+00
   ------------------------------------------------------------------------

         :::::::::::::::::::::::::::::::::::::::::::::::::::::
         ::                  THERMODYNAMIC                  ::
         :::::::::::::::::::::::::::::::::::::::::::::::::::::
         :: total free energy         -83.641785955866 Eh   ::
         ::.................................................::
         :: total energy              -83.998999836065 Eh   ::
         :: zero point energy           0.411441836572 Eh   ::
         :: G(RRHO) w/o ZPVE           -0.054227956374 Eh   ::
         :: G(RRHO) contrib.            0.357213880198 Eh   ::
         :::::::::::::::::::::::::::::::::::::::::::::::::::::

           -------------------------------------------------
          | TOTAL ENERGY              -83.998999836065 Eh   |
          | TOTAL ENTHALPY            -83.560365253693 Eh   |
          | TOTAL FREE ENERGY         -83.641785955866 Eh   |
          | GRADIENT NORM               0.000114385491 Eh/α |
           -------------------------------------------------

 * finished run on 2025/08/25 at 15:01:03.711
