   * xtb version 6.7.1 (edcfbbe) compiled by 'albert@albert-system' on 2024-07-22

   ID    Z sym.   atoms
    1    6 C      1-20, 22-25, 27-58, 60-64, 66-72, 74-80, 82-97
    2    7 N      21, 26, 59, 65, 73, 81
    3    1 H      98-171

          program call               : xtb data2507/gas/c-D2T/c-D2T.xyz --gfn 2 --ohess vtight --parallel 40 --molden --ceasefiles --namespace data2507/gas/c-D2T/c-D2T_gas_S0_preOpt
          :  Hamiltonian                  GFN2-xTB          :
 * total energy  :  -250.3135703 Eh     change       -0.7480168E-08 Eh
 * total energy  :  -250.3429287 Eh     change       -0.2935840E-01 Eh
 * total energy  :  -250.3546889 Eh     change       -0.1176027E-01 Eh
 * total energy  :  -250.3583877 Eh     change       -0.3698767E-02 Eh
 * total energy  :  -250.3608652 Eh     change       -0.2477507E-02 Eh
 * total energy  :  -250.3627695 Eh     change       -0.1904270E-02 Eh
 * total energy  :  -250.3641463 Eh     change       -0.1376774E-02 Eh
 * total energy  :  -250.3651188 Eh     change       -0.9725196E-03 Eh
 * total energy  :  -250.3657622 Eh     change       -0.6434414E-03 Eh
 * total energy  :  -250.3662034 Eh     change       -0.4411559E-03 Eh
 * total energy  :  -250.3709309 Eh     change       -0.1165751E-05 Eh
 * total energy  :  -250.3709321 Eh     change       -0.1214416E-05 Eh
 * total energy  :  -250.3709334 Eh     change       -0.1309626E-05 Eh
 * total energy  :  -250.3709348 Eh     change       -0.1395756E-05 Eh
 * total energy  :  -250.3709364 Eh     change       -0.1533621E-05 Eh
 * total energy  :  -250.3709381 Eh     change       -0.1730299E-05 Eh
 * total energy  :  -250.3709401 Eh     change       -0.2035612E-05 Eh
 * total energy  :  -250.3709423 Eh     change       -0.2179771E-05 Eh
 * total energy  :  -250.3709423 Eh     change       -0.8171810E-08 Eh
   *** GEOMETRY OPTIMIZATION CONVERGED AFTER 221 ITERATIONS ***

 final structure:
================
171
 xtb: 6.7.1 (edcfbbe)
C          -11.42762667479717       -6.90082265054103        0.39239769063655
C           -9.95320116966771       -6.64882894620200        0.71976950269531
C           -9.10549734974173       -7.57745086834100       -0.16112305814408
C           -9.72995369243618       -6.98865375169189        2.20018257851011
C           -9.53720926333714       -5.20651636621458        0.46959814909196
C           -8.21131878246373       -4.83105334552745        0.72370771642672
C           -7.74209807873619       -3.54899023666689        0.52172382866252
C           -8.62843424102228       -2.60008113863302        0.03680200303251
C           -9.97489787438517       -2.94515251323855       -0.20149529201011
C          -10.42011297199908       -4.24317691321266        0.01086193023901
C          -10.63387563571099       -1.74449849227843       -0.63645088544714
C          -11.93816372436265       -1.46958361381663       -1.02623949081930
C          -12.28111062876936       -0.18819496647540       -1.42433399667466
C          -13.69153485568664        0.18894898737256       -1.85378873176205
C          -13.66167334589525        0.68336613666300       -3.30690074205122
C          -14.66580748004896       -0.98952123076596       -1.77307870140343
C          -14.21616367213095        1.30234186431147       -0.93602856013111
C          -11.28373540042788        0.79599050142533       -1.44099011930815
C           -9.98052825459115        0.55066753167490       -1.05920515978105
C           -9.65682154130136       -0.72800000935072       -0.63307171148269
N           -8.44452790189518       -1.25495652020225       -0.22597865406910
C           -7.25139371778163       -0.54250453691077       -0.08761480944867
C           -7.23922904902624        0.67472046982683        0.59080151771553
C           -6.06598335148781        1.39106922467914        0.70958882716659
C           -4.88344386519729        0.89927732922925        0.16804874434811
N           -3.69503261996327        1.66052127816657        0.30732509829637
C           -3.11734281678873        2.27344091758622       -0.79779162514022
C           -3.57481674839302        2.01264999183476       -2.09028766400090
C           -2.96703234259411        2.59543126693580       -3.18470873762614
C           -1.89229332720567        3.44956302692982       -3.01511317837190
C           -1.46106284141303        3.74733679269999       -1.73496344329533
C           -2.06565395127090        3.18088708352907       -0.62494051040244
C           -1.68168438863420        3.63830803865381        0.76280414806011
C           -2.42156100703988        4.93013539647990        1.07544220860897
C           -3.77980879921132        5.15003421871735        1.12910140438484
C           -4.23431963715186        6.42514739951227        1.43744964233664
C           -3.34110554988641        7.45609069925419        1.68473782101293
C           -1.97382639703419        7.24009210480210        1.62706248677007
C           -1.51560889782365        5.96988153895511        1.31974193402864
C           -0.16453429784523        5.44994265197881        1.18376898986688
C            1.05839268283160        6.08667773658024        1.32345321961919
C            2.19789137558210        5.32192676326473        1.13058023020230
C            2.11320179394167        3.95673678763757        0.80929373731256
C            0.89364019912924        3.32200203222323        0.66716468066559
C           -0.24270499594135        4.08552933156873        0.85721789799912
C            3.48980000601129        3.35590511082813        0.65481131156101
C            4.37877608023187        4.55821934678724        0.93587035063084
C            5.75410293634927        4.62426437223048        0.95126333011191
C            6.35693193138677        5.84270966217225        1.23373683043972
C            5.59210693572460        6.96862221315975        1.49663313479176
C            4.20814119413172        6.90489732920917        1.48755569681040
C            3.60207341471191        5.69191046066922        1.20621796533182
C            3.74938714434115        2.85735308499511       -0.74549640240676
C            3.14109554341564        3.46282020534460       -1.83324015371194
C            3.42617882681532        3.06150284764304       -3.12573261891051
C            4.33158826660432        2.03587377347609       -3.33443420094319
C            4.94063459516434        1.41627671135878       -2.26174075752715
C            4.66634895486834        1.82429372204610       -0.95510437419218
N            5.26221423054273        1.17523320446311        0.12152742409120
C            6.37121742959559        0.33515815207740       -0.13250280190605
C            7.57193897514397        0.91341854944961       -0.53938382671831
C            8.67496188710684        0.12448847234705       -0.78455071017903
C            8.59613183350940       -1.25858321300670       -0.62753900553295
C            9.77225740757790       -2.09128229285649       -0.87206823541032
N            9.67548499042057       -3.39688686576587       -0.63869556278830
C           10.77160543774535       -4.10969934475269       -0.87539390232977
C           10.73038960570327       -5.55023498197626       -0.62646835117136
C           11.87241282467579       -6.32460037479225       -0.82314780601337
C           11.83395164804885       -7.68454193634626       -0.58463467115010
C           10.66062550713530       -8.28165486972997       -0.15016759341862
C            9.52237331876798       -7.51524608507235        0.04728061513580
C            9.55373078087392       -6.15464406259037       -0.18838801962689
N           11.91393253934850       -3.58992629908112       -1.32151838915517
C           11.92467276770117       -2.28075667060852       -1.51653204639423
C           13.17629243585100       -1.63480143815638       -2.03790547169805
C           13.47206786914588       -0.33855609702651       -1.27517741381080
C           13.89670393719826       -0.64130491432351        0.15819800394473
C           15.12097349093504       -1.55092712543945        0.17198663348513
C           14.82000762161038       -2.85311886387370       -0.56273048746130
C           14.38152674760802       -2.57460090055780       -1.99763541877689
N           10.87756641399068       -1.49271012572673       -1.30837253239451
C            7.38899477260196       -1.83790090914056       -0.24056360942420
C            6.28312170340076       -1.04892166892108        0.00012818957256
C            4.72834412101052        1.28862328868434        1.40175538314833
C            5.13238803104203        0.44320865357197        2.43609964991314
C            4.56196944080851        0.53853089522155        3.69010254314599
C            3.58031900525542        1.47970060588733        3.94245519877431
C            3.21387543659975        2.35761610117969        2.93869896979518
C            3.78340487395540        2.28406994723965        1.67790876519946
C           -2.03366722614672        2.59662771850553        1.79729219790686
C           -1.39676228875782        2.58271894474908        3.02734751943423
C           -1.76692063800521        1.68606838711132        4.01360302225566
C           -2.79225072158253        0.79014970728102        3.76703150006211
C           -3.43261459581522        0.78471592741760        2.54404577391267
C           -3.06573367801634        1.68831406539686        1.54534561885288
C           -4.88814065824266       -0.32847225048010       -0.48574535121391
C           -6.06434879051967       -1.03899659951457       -0.62281224748264
H          -11.63683540426291       -6.69328600362125       -0.65449372350163
H          -12.07675442950937       -6.28935575740602        1.01490153989633
H          -11.66772508353873       -7.94517185259476        0.58224275102945
H           -8.04799608918195       -7.49006957420740        0.07190836884230
H           -9.40270214492794       -8.61311390159101       -0.00933662912866
H           -9.24467489671019       -7.32854243121017       -1.21122193392397
H          -10.04367519606601       -8.01081780289084        2.40198894940280
H           -8.68353259822217       -6.89379866928108        2.47628348534110
H          -10.31042147558419       -6.31812427655561        2.83060560641324
H           -7.51590315753320       -5.56645397793666        1.09879218052597
H           -6.71701676150515       -3.29861790357516        0.75063805007253
H          -11.45489083782905       -4.47069882242645       -0.18333932612272
H          -12.65897908501763       -2.26992200957535       -1.01367706623393
H          -14.66691221227153        0.93611567362897       -3.63794315353239
H          -13.26792555817542       -0.09323856218179       -3.95944967455981
H          -13.03706381023642        1.56582400915108       -3.41357897561516
H          -14.73793864193049       -1.36820458600143       -0.75610244943140
H          -15.65703745558646       -0.66206355085337       -2.08063828106470
H          -14.35942794852545       -1.79668456549382       -2.43441447525046
H          -14.22333915818754        0.96388413882677        0.09810560970223
H          -15.23159569979279        1.57346160947574       -1.21773631722754
H          -13.59743828640427        2.19315862497029       -0.99804089044311
H          -11.53100913677089        1.79434232035198       -1.76843868134964
H           -9.23897447991895        1.33412630250212       -1.10646765263701
H           -8.15115165152862        1.04697740597744        1.03197305409960
H           -6.05579462411595        2.33222015749015        1.23936345773369
H           -4.41814647531795        1.35648579947654       -2.24016302942654
H           -3.33876671328105        2.37727917212592       -4.17495004175483
H           -1.40868759320553        3.89927587467969       -3.86844689914400
H           -0.65010887323166        4.44583111179350       -1.59040184402464
H           -4.47939511764488        4.35149859872928        0.93130261094664
H           -5.29644949378206        6.61669328380890        1.48429171667880
H           -3.71719909267814        8.44041420505955        1.92331506041618
H           -1.28151357777050        8.04683722425035        1.81732611672165
H            1.12080078841562        7.13505283572290        1.57234190723857
H            0.83119494439568        2.27271144655880        0.41798131912795
H            6.35504418349021        3.74882680167332        0.75426720638162
H            7.43469085542449        5.91378807944916        1.24994596911848
H            6.08258594934539        7.90652702099946        1.71343197992103
H            3.61610926097162        7.78364531373812        1.69640303429928
H            2.44141105615243        4.26745802878381       -1.66211827530871
H            2.94700449617831        3.54755285591634       -3.96149574823468
H            4.56233604439655        1.70835406914067       -4.33721642206262
H            5.63163997347431        0.60488105938383       -2.43424231752852
H            7.62634789256290        1.98528022363428       -0.66334045864052
H            9.61239889812359        0.55961758196826       -1.09247727730516
H           12.77614138317767       -5.84167275858431       -1.16072731656953
H           12.71974682797075       -8.28370852189651       -0.73674805592435
H           10.63330883257461       -9.34556690943981        0.03526708261112
H            8.60962913305296       -7.98306154985426        0.38632782570369
H            8.67867253242438       -5.54189681850014       -0.03937328585143
H           12.95955108089673       -1.37570682039824       -3.08301931600050
H           14.27476223319649        0.19699301392070       -1.78690008188125
H           12.58072863394954        0.28946113082974       -1.27750466645148
H           14.11700613483515        0.29201905633481        0.68125921717011
H           13.07310252431199       -1.13162321939889        0.68308218751800
H           15.41576266141907       -1.76399425669192        1.20181160769421
H           15.95530456331586       -1.04084996831940       -0.31642482086958
H           14.02318152468045       -3.38868189953064       -0.04399186614748
H           15.70583401079421       -3.49208092454246       -0.56844139269425
H           14.12691300893244       -3.51138275096037       -2.49442553470709
H           15.20443256760582       -2.10771478277736       -2.54411608677989
H            7.33532369405420       -2.91055486090571       -0.14177447463572
H            5.34070671407644       -1.49702947914710        0.27918519975419
H            5.90863914038295       -0.28591835489213        2.26538915672816
H            4.89085272604347       -0.12926578269237        4.47247252085583
H            3.12387722372129        1.54949767353307        4.91765429064921
H            2.48428365004648        3.12818491271312        3.13920689381238
H           -0.60630756842343        3.29383549446950        3.21690974371941
H           -1.26268747036087        1.69233057412290        4.96759646929296
H           -3.09472872893243        0.08555310105359        4.52750775447546
H           -4.22250994776753        0.07308598388027        2.35588325380367
H           -3.96615466157701       -0.71861833002139       -0.89109491569404
H           -6.07253123666172       -1.97724310823726       -1.15643140403102

          :  Hamiltonian                  GFN2-xTB          :
         :: gradient norm              0.000065937661 Eh/a0 ::
         :: HOMO-LUMO gap              1.597176727567 eV    ::
         :: SCC energy              -254.881812702781 Eh    ::
         :: -> dispersion             -0.253210988468 Eh    ::
         :: repulsion energy           4.510870390169 Eh    ::

    * Orbital Energies and Occupations

         #    Occupation            Energy/Eh            Energy/eV
      -------------------------------------------------------------
         1        2.0000           -0.6833776             -18.5957
       ...           ...                  ...                  ...
       222        2.0000           -0.3946371             -10.7386
       223        2.0000           -0.3940610             -10.7229
       224        2.0000           -0.3936282             -10.7112
       225        2.0000           -0.3909706             -10.6389
       226        2.0000           -0.3895116             -10.5992
       227        2.0000           -0.3818083             -10.3895
       228        2.0000           -0.3713253             -10.1043
       229        2.0000           -0.3695139             -10.0550
       230        2.0000           -0.3689934             -10.0408
       231        2.0000           -0.3689292             -10.0391
       232        2.0000           -0.3565686              -9.7027
       233        2.0000           -0.3475911              -9.4584
       234        2.0000           -0.3455022              -9.4016 (HOMO)
       235                         -0.2868071              -7.8044 (LUMO)
       236                         -0.2741355              -7.4596
       237                         -0.2518711              -6.8538
       238                         -0.2450898              -6.6692
       239                         -0.2446451              -6.6571
       240                         -0.2387237              -6.4960
       241                         -0.2356026              -6.4111
       242                         -0.2355000              -6.4083
       243                         -0.2287284              -6.2240
       244                         -0.2285386              -6.2189
       245                         -0.2278312              -6.1996
       ...                                ...                  ...
       462                          0.7450418              20.2736
      -------------------------------------------------------------
                  HL-Gap            0.0586952 Eh            1.5972 eV

     #   Z          covCN         q      C6AA      α(0)
     1   6 C        3.761    -0.107    22.587     6.775
     2   6 C        3.903     0.026    20.087     6.371
     3   6 C        3.762    -0.105    22.552     6.770
     4   6 C        3.762    -0.105    22.553     6.770
     5   6 C        2.973    -0.002    28.067     8.690
     6   6 C        2.931    -0.039    28.977     8.828
     7   6 C        2.908    -0.054    29.338     8.882
     8   6 C        3.077     0.042    26.975     8.515
     9   6 C        3.068    -0.020    28.428     8.743
    10   6 C        2.918    -0.044    29.084     8.844
    11   6 C        3.067    -0.020    28.429     8.743
    12   6 C        2.918    -0.044    29.084     8.844
    13   6 C        2.973    -0.002    28.066     8.690
    14   6 C        3.903     0.026    20.087     6.371
    15   6 C        3.761    -0.105    22.553     6.770
    16   6 C        3.761    -0.107    22.587     6.775
    17   6 C        3.762    -0.105    22.553     6.770
    18   6 C        2.931    -0.039    28.976     8.828
    19   6 C        2.908    -0.054    29.336     8.881
    20   6 C        3.078     0.042    26.976     8.515
    21   7 N        2.802    -0.045    22.102     6.982
    22   6 C        2.912     0.065    26.554     8.450
    23   6 C        2.922    -0.043    29.079     8.843
    24   6 C        2.923    -0.038    28.941     8.822
    25   6 C        2.925     0.063    26.581     8.455
    26   7 N        2.753    -0.072    22.633     7.066
    27   6 C        2.925     0.059    26.675     8.470
    28   6 C        2.923    -0.059    29.461     8.901
    29   6 C        2.920    -0.033    28.818     8.803
    30   6 C        2.918    -0.043    29.056     8.839
    31   6 C        2.925    -0.035    28.873     8.812
    32   6 C        2.985    -0.008    28.206     8.712
    33   6 C        3.950     0.013    20.281     6.399
    34   6 C        3.061     0.003    27.908     8.663
    35   6 C        2.915    -0.033    28.824     8.804
    36   6 C        2.923    -0.033    28.813     8.803
    37   6 C        2.921    -0.033    28.820     8.804
    38   6 C        2.915    -0.034    28.843     8.807
    39   6 C        3.035     0.002    27.955     8.672
    40   6 C        3.038    -0.002    28.046     8.686
    41   6 C        2.910    -0.040    28.994     8.829
    42   6 C        3.038    -0.002    28.048     8.687
    43   6 C        3.057     0.001    27.953     8.671
    44   6 C        2.909    -0.034    28.849     8.807
    45   6 C        3.057     0.001    27.946     8.669
    46   6 C        3.951     0.013    20.282     6.399
    47   6 C        3.061     0.002    27.912     8.664
    48   6 C        2.914    -0.033    28.828     8.804
    49   6 C        2.923    -0.032    28.810     8.802
    50   6 C        2.921    -0.033    28.817     8.803
    51   6 C        2.915    -0.034    28.842     8.807
    52   6 C        3.035     0.002    27.954     8.672
    53   6 C        2.985    -0.006    28.166     8.706
    54   6 C        2.924    -0.035    28.863     8.810
    55   6 C        2.918    -0.041    29.021     8.834
    56   6 C        2.920    -0.032    28.802     8.801
    57   6 C        2.923    -0.056    29.385     8.890
    58   6 C        2.931     0.059    26.684     8.472
    59   7 N        2.753    -0.069    22.577     7.057
    60   6 C        2.926     0.073    26.370     8.421
    61   6 C        2.922    -0.038    28.942     8.822
    62   6 C        2.923    -0.024    28.607     8.771
    63   6 C        2.984    -0.003    28.087     8.693
    64   6 C        2.986     0.201    23.724     7.990
    65   7 N        1.844    -0.296    28.528     7.916
    66   6 C        2.986     0.201    23.728     7.990
    67   6 C        2.984    -0.000    28.031     8.685
    68   6 C        2.924    -0.024    28.607     8.771
    69   6 C        2.918    -0.027    28.686     8.783
    70   6 C        2.920    -0.023    28.588     8.768
    71   6 C        2.918    -0.027    28.688     8.783
    72   6 C        2.924    -0.024    28.594     8.769
    73   7 N        1.842    -0.292    28.418     7.900
    74   6 C        2.977     0.211    23.542     7.959
    75   6 C        3.864    -0.024    20.959     6.510
    76   6 C        3.809    -0.057    21.586     6.614
    77   6 C        3.805    -0.051    21.479     6.598
    78   6 C        3.805    -0.055    21.566     6.611
    79   6 C        3.805    -0.055    21.554     6.609
    80   6 C        3.807    -0.058    21.606     6.617
    81   7 N        1.843    -0.298    28.574     7.922
    82   6 C        2.923    -0.025    28.617     8.773
    83   6 C        2.919    -0.039    28.981     8.828
    84   6 C        2.924     0.059    26.678     8.470
    85   6 C        2.923    -0.059    29.456     8.900
    86   6 C        2.920    -0.033    28.812     8.802
    87   6 C        2.918    -0.042    29.038     8.837
    88   6 C        2.925    -0.035    28.869     8.811
    89   6 C        2.985    -0.007    28.187     8.709
    90   6 C        2.984    -0.007    28.193     8.710
    91   6 C        2.924    -0.035    28.868     8.811
    92   6 C        2.918    -0.042    29.046     8.838
    93   6 C        2.920    -0.033    28.812     8.802
    94   6 C        2.923    -0.057    29.412     8.894
    95   6 C        2.930     0.059    26.678     8.471
    96   6 C        2.920    -0.039    28.966     8.826
    97   6 C        2.922    -0.044    29.099     8.846
    98   1 H        0.925     0.035     2.511     2.478
    99   1 H        0.925     0.035     2.512     2.479
   100   1 H        0.925     0.035     2.520     2.483
   101   1 H        0.925     0.035     2.512     2.478
   102   1 H        0.925     0.036     2.508     2.477
   103   1 H        0.925     0.033     2.544     2.494
   104   1 H        0.925     0.036     2.507     2.476
   105   1 H        0.925     0.035     2.511     2.478
   106   1 H        0.925     0.033     2.543     2.494
   107   1 H        0.926     0.029     2.604     2.524
   108   1 H        0.926     0.024     2.673     2.557
   109   1 H        0.926     0.037     2.486     2.466
   110   1 H        0.926     0.037     2.486     2.466
   111   1 H        0.925     0.036     2.507     2.476
   112   1 H        0.925     0.033     2.543     2.494
   113   1 H        0.925     0.035     2.511     2.478
   114   1 H        0.925     0.035     2.511     2.478
   115   1 H        0.925     0.035     2.520     2.482
   116   1 H        0.925     0.035     2.513     2.479
   117   1 H        0.925     0.033     2.544     2.494
   118   1 H        0.925     0.036     2.508     2.477
   119   1 H        0.925     0.035     2.511     2.478
   120   1 H        0.926     0.029     2.602     2.523
   121   1 H        0.926     0.024     2.667     2.554
   122   1 H        0.926     0.047     2.358     2.401
   123   1 H        0.926     0.042     2.420     2.433
   124   1 H        0.926     0.027     2.623     2.532
   125   1 H        0.926     0.029     2.604     2.524
   126   1 H        0.926     0.028     2.615     2.529
   127   1 H        0.926     0.029     2.605     2.524
   128   1 H        0.926     0.024     2.668     2.554
   129   1 H        0.926     0.028     2.608     2.526
   130   1 H        0.926     0.029     2.596     2.520
   131   1 H        0.926     0.031     2.576     2.510
   132   1 H        0.926     0.032     2.563     2.504
   133   1 H        0.926     0.027     2.634     2.538
   134   1 H        0.926     0.025     2.663     2.552
   135   1 H        0.926     0.029     2.600     2.521
   136   1 H        0.926     0.030     2.592     2.518
   137   1 H        0.926     0.031     2.574     2.509
   138   1 H        0.926     0.030     2.582     2.513
   139   1 H        0.926     0.030     2.589     2.516
   140   1 H        0.926     0.030     2.581     2.512
   141   1 H        0.926     0.027     2.636     2.539
   142   1 H        0.926     0.043     2.404     2.425
   143   1 H        0.926     0.062     2.175     2.306
   144   1 H        0.926     0.058     2.225     2.333
   145   1 H        0.926     0.037     2.489     2.467
   146   1 H        0.926     0.037     2.495     2.470
   147   1 H        0.926     0.037     2.494     2.469
   148   1 H        0.926     0.054     2.267     2.355
   149   1 H        0.923     0.049     2.338     2.391
   150   1 H        0.924     0.036     2.505     2.475
   151   1 H        0.924     0.046     2.371     2.408
   152   1 H        0.924     0.028     2.615     2.529
   153   1 H        0.924     0.027     2.635     2.539
   154   1 H        0.924     0.027     2.636     2.539
   155   1 H        0.924     0.032     2.563     2.504
   156   1 H        0.924     0.039     2.458     2.452
   157   1 H        0.924     0.028     2.616     2.529
   158   1 H        0.924     0.044     2.399     2.422
   159   1 H        0.924     0.033     2.538     2.491
   160   1 H        0.926     0.060     2.198     2.319
   161   1 H        0.926     0.047     2.359     2.402
   162   1 H        0.926     0.030     2.580     2.512
   163   1 H        0.926     0.030     2.590     2.517
   164   1 H        0.926     0.029     2.601     2.522
   165   1 H        0.926     0.030     2.589     2.516
   166   1 H        0.926     0.029     2.599     2.521
   167   1 H        0.926     0.029     2.606     2.525
   168   1 H        0.926     0.029     2.598     2.521
   169   1 H        0.926     0.025     2.665     2.553
   170   1 H        0.926     0.045     2.380     2.412
   171   1 H        0.926     0.046     2.366     2.405

molecular dipole:
                 x           y           z       tot (Debye)
 q only:       -0.238      -0.689      -0.059
   full:       -0.151      -0.646      -0.098       1.704

 projected vibrational frequencies (cm⁻¹)
eigval :       -0.00    -0.00     0.00     0.00     0.00     0.00
eigval :        2.62     3.84     4.05     7.07     9.00     9.91
eigval :       11.72    14.65    20.17    20.58    26.62    27.09
eigval :       30.95    33.56    35.65    39.00    40.95    45.49
eigval :       47.14    54.10    55.66    55.92    61.06    63.31
eigval :       66.99    69.58    72.21    74.62    80.31    88.66
eigval :       91.43    92.00    97.40   102.85   105.71   117.15
eigval :      119.49   120.88   126.65   141.13   150.86   155.25
eigval :      159.08   160.68   167.90   171.36   172.41   173.08
eigval :      178.78   189.98   196.30   199.43   202.98   218.05
eigval :      219.40   221.32   223.24   228.11   230.97   237.17
eigval :      241.51   246.96   255.66   259.09   262.03   266.88
eigval :      268.04   277.62   279.58   289.78   293.03   303.22
eigval :      315.51   317.75   322.07   323.40   325.26   336.85
eigval :      342.49   349.71   353.01   359.95   360.23   365.10
eigval :      369.50   369.71   373.28   375.29   381.08   388.51
eigval :      393.18   394.10   395.86   401.24   406.46   410.65
eigval :      411.67   411.82   413.22   414.66   422.78   423.76
eigval :      428.67   431.93   441.94   442.37   443.58   453.83
eigval :      458.00   460.40   466.00   467.65   468.36   470.76
eigval :      474.96   478.61   483.93   491.89   498.70   502.82
eigval :      509.75   510.65   515.93   516.95   517.39   524.73
eigval :      529.28   545.22   559.56   571.37   579.95   580.20
eigval :      584.03   586.65   589.20   591.67   595.55   597.69
eigval :      600.24   604.82   608.32   611.52   612.17   617.01
eigval :      624.20   631.99   632.78   634.02   640.14   646.01
eigval :      658.07   662.62   667.66   670.47   674.63   680.21
eigval :      687.85   689.24   690.96   691.62   699.15   704.26
eigval :      706.85   710.64   720.36   721.80   726.10   729.56
eigval :      731.82   734.21   748.00   765.51   772.39   773.31
eigval :      773.58   774.29   778.01   778.65   793.09   816.09
eigval :      817.53   821.77   823.00   827.09   828.96   831.81
eigval :      844.51   849.40   853.85   864.88   865.06   866.76
eigval :      868.84   870.05   873.69   874.52   874.55   874.86
eigval :      875.48   877.23   879.17   880.22   880.58   881.62
eigval :      896.88   898.30   901.01   903.05   905.70   906.60
eigval :      907.15   907.52   909.59   910.86   911.76   911.77
eigval :      914.12   914.25   917.63   919.49   920.28   920.89
eigval :      921.64   924.91   924.99   925.94   926.08   926.19
eigval :      927.82   930.80   931.00   934.21   936.68   938.63
eigval :      938.67   945.43   945.74   956.50   957.51   958.90
eigval :      960.31   960.41   962.95   962.99   963.03   963.47
eigval :      990.81  1004.38  1006.33  1006.51  1017.67  1021.63
eigval :     1031.27  1035.82  1035.89  1035.95  1041.77  1054.09
eigval :     1076.05  1076.28  1079.51  1082.58  1084.78  1094.99
eigval :     1101.04  1104.68  1105.90  1106.70  1107.70  1108.86
eigval :     1109.71  1110.36  1116.40  1121.34  1123.91  1123.99
eigval :     1125.15  1128.55  1132.22  1135.52  1138.31  1142.16
eigval :     1144.08  1162.73  1165.16  1173.25  1174.85  1177.34
eigval :     1177.61  1180.72  1180.76  1180.92  1181.88  1183.29
eigval :     1183.61  1185.56  1186.27  1186.76  1196.49  1199.59
eigval :     1203.95  1206.31  1208.15  1211.99  1216.06  1221.81
eigval :     1228.25  1228.28  1228.41  1229.56  1231.73  1232.52
eigval :     1238.03  1239.54  1240.75  1242.77  1246.21  1246.96
eigval :     1251.00  1252.45  1253.99  1260.04  1260.84  1261.22
eigval :     1265.86  1266.60  1268.11  1270.20  1271.05  1279.80
eigval :     1285.44  1288.34  1302.38  1307.29  1311.10  1313.16
eigval :     1315.48  1319.63  1321.92  1326.70  1327.35  1327.82
eigval :     1328.94  1331.04  1333.21  1335.25  1335.69  1337.42
eigval :     1344.86  1347.80  1348.11  1353.28  1357.44  1359.11
eigval :     1359.45  1361.15  1374.41  1377.62  1382.17  1387.07
eigval :     1401.72  1404.90  1406.19  1406.26  1408.03  1408.30
eigval :     1416.62  1422.16  1427.54  1429.60  1429.72  1434.40
eigval :     1438.73  1439.69  1439.87  1440.98  1444.08  1445.11
eigval :     1457.17  1468.88  1470.93  1471.54  1473.80  1476.67
eigval :     1477.59  1481.38  1483.37  1485.64  1487.91  1489.64
eigval :     1490.06  1491.28  1492.56  1492.59  1493.59  1494.20
eigval :     1495.27  1495.34  1501.80  1502.14  1503.99  1505.91
eigval :     1506.00  1515.03  1515.23  1519.26  1520.44  1521.29
eigval :     1524.74  1557.50  1565.34  1571.65  1573.07  1573.98
eigval :     1574.27  1582.88  1584.73  1585.85  1586.38  1588.74
eigval :     1589.51  1590.23  1592.85  1594.46  1595.48  1596.04
eigval :     1598.74  1602.15  1602.87  1604.20  1605.40  1605.96
eigval :     1618.02  2892.18  2957.75  2963.11  2965.81  2971.68
eigval :     2974.08  2981.02  2983.09  2995.19  2999.64  3001.60
eigval :     3020.95  3021.10  3022.35  3022.38  3026.81  3026.84
eigval :     3029.47  3029.91  3030.92  3031.02  3035.60  3035.85
eigval :     3038.16  3038.48  3047.09  3047.17  3050.59  3050.83
eigval :     3072.05  3072.46  3074.55  3077.97  3078.22  3078.32
eigval :     3078.50  3078.70  3078.95  3079.66  3080.04  3080.94
eigval :     3081.98  3082.93  3083.68  3084.01  3084.66  3085.11
eigval :     3085.34  3085.65  3085.84  3086.47  3086.87  3089.41
eigval :     3090.12  3091.71  3092.11  3092.34  3092.64  3092.90
eigval :     3093.30  3096.42  3097.99  3098.99  3099.52  3100.19
eigval :     3100.36  3101.80  3105.22  3106.64  3107.51  3109.91
eigval :     3110.84  3115.68  3119.26

   temp. (K)  partition function   enthalpy   heat capacity  entropy
                                   cal/mol     cal/K/mol   cal/K/mol   J/K/mol
 298.15  VIB  0.265E+43            49415.668    304.101    315.061
         ROT  0.105E+10              888.752      2.981     44.257
         INT  0.277E+52            50304.421    307.082    359.318
         TR   0.428E+29             1481.254      4.968     47.229
         TOT                       51785.6746   312.0503   406.5468  1700.9917

       T/K    H(0)-H(T)+PV         H(T)/Eh          T*S/Eh         G(T)/Eh
   ------------------------------------------------------------------------
    298.15    0.825257E-01    0.145338E+01    0.193163E+00    0.126022E+01
   ------------------------------------------------------------------------

         :::::::::::::::::::::::::::::::::::::::::::::::::::::
         ::                  THERMODYNAMIC                  ::
         :::::::::::::::::::::::::::::::::::::::::::::::::::::
         :: total free energy        -249.110722110111 Eh   ::
         ::.................................................::
         :: total energy             -250.370942312581 Eh   ::
         :: zero point energy           1.370857970826 Eh   ::
         :: G(RRHO) w/o ZPVE           -0.110637768356 Eh   ::
         :: G(RRHO) contrib.            1.260220202470 Eh   ::
         :::::::::::::::::::::::::::::::::::::::::::::::::::::

           -------------------------------------------------
          | TOTAL ENERGY             -250.370942312581 Eh   |
          | TOTAL ENTHALPY           -248.917558616219 Eh   |
          | TOTAL FREE ENERGY        -249.110722110111 Eh   |
          | GRADIENT NORM               0.000065940963 Eh/α |
          | HOMO-LUMO GAP               1.597177058534 eV   |
           -------------------------------------------------

 * finished run on 2025/09/09 at 00:14:05.426
