   * xtb version 6.7.1 (edcfbbe) compiled by 'albert@albert-system' on 2024-07-22

   ID    Z sym.   atoms
    1    6 C      1-20, 22-25, 27-58, 60-64, 66-72, 74-80, 82-97
    2    7 N      21, 26, 59, 65, 73, 81
    3    1 H      98-171

          program call               : xtb data2507/gas/c-D2T/c-D2T_gas_T1_crest.xyz --gfn 2 --spinpol --tblite --uhf 2 --ohess vtight --parallel 40 --molden --ceasefiles --namespace data2507/gas/c-D2T/c-D2T_gas_T1_finalOpt
 * total energy  :  -250.3234280 Eh     change       -0.7083429E-08 Eh
 * total energy  :  -250.3234706 Eh     change       -0.4260762E-04 Eh
 * total energy  :  -250.3234890 Eh     change       -0.1839743E-04 Eh
 * total energy  :  -250.3234911 Eh     change       -0.2145602E-05 Eh
 * total energy  :  -250.3234937 Eh     change       -0.2574061E-05 Eh
 * total energy  :  -250.3234952 Eh     change       -0.1529817E-05 Eh
 * total energy  :  -250.3234974 Eh     change       -0.2203035E-05 Eh
 * total energy  :  -250.3235005 Eh     change       -0.3048094E-05 Eh
 * total energy  :  -250.3235030 Eh     change       -0.2526907E-05 Eh
 * total energy  :  -250.3235048 Eh     change       -0.1786700E-05 Eh
 * total energy  :  -250.3235383 Eh     change       -0.2413003E-08 Eh
 * total energy  :  -250.3235384 Eh     change       -0.1843278E-06 Eh
 * total energy  :  -250.3235386 Eh     change       -0.1315268E-06 Eh
 * total energy  :  -250.3235387 Eh     change       -0.8541966E-07 Eh
 * total energy  :  -250.3235389 Eh     change       -0.2425715E-06 Eh
 * total energy  :  -250.3235390 Eh     change       -0.1310595E-06 Eh
 * total energy  :  -250.3235390 Eh     change        0.5282817E-07 Eh
 * total energy  :  -250.3235391 Eh     change       -0.1450348E-06 Eh
 * total energy  :  -250.3235392 Eh     change       -0.9230538E-07 Eh
   *** GEOMETRY OPTIMIZATION CONVERGED AFTER 59 ITERATIONS ***

 final structure:
================
171
 xtb: 6.7.1 (edcfbbe)
C            9.70431124985766       -4.36309434522264        0.36922504109451
C            8.39943333400418       -5.05211275036980        0.77756893266898
C            8.42980472888562       -5.25955401519344        2.29808873895783
C            8.33777086665439       -6.41419601849748        0.07093010939465
C            7.16819764423587       -4.24377289731170        0.39479390504802
C            5.90066127782377       -4.74872309640312        0.70993966458032
C            4.72922209628009       -4.09957291593836        0.37577076704654
C            4.82050203403460       -2.89934236687773       -0.31172321832498
C            6.08544007205304       -2.35005964922133       -0.60230608330603
C            7.24746755256965       -3.02313498663947       -0.25672084710970
C            5.84461885103502       -1.08390030012798       -1.23780615630717
C            6.68556977376144       -0.10760685215557       -1.74233853230793
C            6.15297039189224        1.03030029945326       -2.33435211133653
C            7.09871865509966        2.10257599757868       -2.85341314718690
C            6.36605399069296        3.25511115499522       -3.54539358743501
C            7.88230696198653        2.66155633528934       -1.65673727498910
C            8.06832751666303        1.48906351205317       -3.87392231347684
C            4.76392784246048        1.14951513125010       -2.41605897688341
C            3.90157910940037        0.18999147809113       -1.91783057316670
C            4.44457024704927       -0.92531259768547       -1.30279602857022
N            3.83145742394027       -2.03560131340780       -0.74644567022525
C            2.45738846397953       -2.23786564469061       -0.64118081392590
C            1.89844689097730       -3.47911286222586       -0.94840812697442
C            0.53647407372724       -3.68013294373591       -0.83557401125892
C           -0.28902217421520       -2.63474087105000       -0.43960948138958
N           -1.69379176816194       -2.81732046524907       -0.31126315789423
C           -2.48309198568705       -2.84817748485247       -1.44871259903649
C           -1.89706199567113       -2.78158687581267       -2.71695141596479
C           -2.67183917418975       -2.82478872175176       -3.85674804114400
C           -4.04955735880486       -2.92891471743716       -3.76097170276143
C           -4.63813328915205       -2.97242488076458       -2.51126780995808
C           -3.87600442851262       -2.93067196909188       -1.35341696807700
C           -4.58287798866542       -2.92903025361754       -0.01794064676167
C           -5.58920851510951       -4.05983783326901        0.05452914705587
C           -5.34797584426226       -5.41542454615856        0.05481017678693
C           -6.43203607216762       -6.28111154626820        0.11553007897277
C           -7.72819547833849       -5.79200727732383        0.17102786986516
C           -7.97514906229851       -4.42838813889255        0.16935693024123
C           -6.89791929088564       -3.55989658678913        0.11161257766958
C           -6.84102978010239       -2.10552880181165        0.10258658138557
C           -7.85726241559699       -1.16254172587037        0.10822370040211
C           -7.48587382766769        0.17298342532147        0.08130896459448
C           -6.13362191540996        0.54748016507989        0.08204315778760
C           -5.11910153626625       -0.38852797508579        0.06458531214563
C           -5.49262940804091       -1.71727828677243        0.06154662873812
C           -5.99546702050203        2.06242609434221        0.04359263919331
C           -7.44244679714966        2.49138997622413       -0.03607124503367
C           -7.94862343470219        3.76969226019958       -0.12351500720269
C           -9.32672484460747        3.93546064101048       -0.16522272515700
C          -10.17491846276251        2.83967153194008       -0.11447508663414
C           -9.66994330527402        1.55214289007048       -0.02496331965908
C           -8.29618668642354        1.37976405524028        0.01344561771395
C           -5.18749211873279        2.41834573661402       -1.17780719181814
C           -5.78017290666710        2.36420518714819       -2.42884602355196
C           -5.03166596132982        2.51516305130109       -3.58196237140691
C           -3.65969358167121        2.67935905453957       -3.48188801800364
C           -3.05279026355556        2.74486175451459       -2.24552233608722
C           -3.80848531260442        2.65291128289621       -1.07137595050521
N           -3.21389284852713        2.78087449125682        0.17245200541117
C           -1.80028523439326        2.83344456416751        0.29621097353781
C           -1.05748343620864        3.90343103048398       -0.21103780553524
C            0.31121872554743        3.90245184215518       -0.11597329694954
C            0.99241703255592        2.83098687763531        0.49982858481296
C            2.41086135450745        2.80415798468314        0.54771607152516
N            3.06284113644266        1.72971788558337        1.00566088469412
C            4.37358787816591        1.74409280013619        1.04665874477679
C            5.08514534049526        0.59645146279884        1.56462087848876
C            6.48311791263706        0.56881814132248        1.55814788089829
C            7.15938212891056       -0.51499403424931        2.07628533078483
C            6.46099830102155       -1.58678167421384        2.61113744357130
C            5.07412221744868       -1.56986249508898        2.61841451223150
C            4.38890212123363       -0.49149326302874        2.10243467100598
N            5.10092118818202        2.83277548003172        0.64737002288605
C            4.41499167317991        3.89138331889982        0.23671276093217
C            5.20638028784800        5.12184673560514       -0.12228068759568
C            4.31800727435817        6.30900594110392       -0.49474546765898
C            3.55932283690477        6.85133165538412        0.71333151687372
C            4.52246640661903        7.21824389675367        1.83704820541721
C            5.35715944708821        6.00408904028437        2.23175813784153
C            6.14576467052751        5.48813726148347        1.03292160561005
N            3.11684828108311        3.91235329792947        0.13777041774102
C            0.22411579343874        1.79818740920150        1.07653799246174
C           -1.14276860114963        1.79789222019847        0.96851272078580
C           -3.97803934319838        2.87236805761939        1.32338461954303
C           -3.39761583258389        3.31787119375138        2.51643211277269
C           -4.14508313569184        3.41062371015925        3.67054987374168
C           -5.48796738834867        3.06789120863421        3.66191795322217
C           -6.07494966633588        2.64700234032335        2.48247549331924
C           -5.34111003640033        2.55373537570242        1.31041997750546
C           -3.62539533024672       -2.95997335118518        1.14445892463159
C           -4.14182547896445       -3.04032703427567        2.42906918016011
C           -3.31346507087631       -3.06313539301128        3.53526234749854
C           -1.94105321553323       -3.01286975438950        3.35381384130343
C           -1.40915905018153       -2.93301578091060        2.08387713413253
C           -2.24077737854669       -2.89329735914189        0.95968711129138
C            0.26239972275588       -1.39156900634705       -0.15532349245383
C            1.62466104978141       -1.19357420027645       -0.24027865912697
H            9.80590336597986       -3.39787842876570        0.85979856216615
H            9.75204613609698       -4.22299652342159       -0.70817246712155
H           10.54945189567589       -4.98145167125204        0.66565766970061
H            7.53817171111621       -5.77113382483396        2.64945878370716
H            9.29641976251290       -5.85561884834472        2.57721162017987
H            8.49638132946918       -4.30005949626528        2.80640990069935
H            9.22441184751971       -6.99983982325283        0.30528797217712
H            7.46413344587359       -6.98148967904381        0.37967843228463
H            8.29040722522817       -6.27556355791912       -1.00726508537602
H            5.82100543630025       -5.68577405206743        1.24019229647464
H            3.77552614024278       -4.51670265529948        0.66232571442940
H            8.19474203876076       -2.57237912531413       -0.49988067153222
H            7.75230725593697       -0.24795250339944       -1.66510632780750
H            7.08925007252322        3.99400240501309       -3.88622322855033
H            5.67473403006343        3.74852889654560       -2.86698282001649
H            5.81445913449986        2.89913386928289       -4.41299447653246
H            8.54350488104695        1.90666335287381       -1.23910002599180
H            8.48654639744369        3.51452072595114       -1.96015887935160
H            7.19188228393332        2.97606433483395       -0.87690065891229
H            8.67093077872101        0.70176202229477       -3.43045684657029
H            8.74002521634141        2.25467333440336       -4.25714490153201
H            7.51560728569730        1.06473022152378       -4.70973868982426
H            4.32259068613136        2.01541359133190       -2.88158320667121
H            2.83508158646779        0.31992245359591       -2.02159724703459
H            2.53471221904673       -4.28033538218433       -1.29140936635218
H            0.10579342786908       -4.64356049930972       -1.06578285298037
H           -0.82568320746561       -2.68891437100905       -2.80438229215271
H           -2.19539755783259       -2.77408505792476       -4.82433311392760
H           -4.65998831070353       -2.96549118645645       -4.64977574963996
H           -5.71304628047797       -3.03605014402119       -2.42528383239818
H           -4.33790164066260       -5.79628150833447        0.01100977155221
H           -6.26376095077194       -7.34791422137510        0.11925983219253
H           -8.55637558384724       -6.48414462628055        0.21674499534686
H           -8.98671741608648       -4.05281077702759        0.21351456529189
H           -8.89591338950502       -1.45628672888109        0.11825905568101
H           -4.07871605160966       -0.09845438412563        0.03681124381248
H           -7.28731663504945        4.62311862724394       -0.16002872362555
H           -9.74266747893427        4.92952367906117       -0.23680422704782
H          -11.24385184411322        2.99260800750534       -0.14599563586083
H          -10.33513661317155        0.70235761021534        0.01372030206876
H           -6.84341980413947        2.18534018088810       -2.49508093007066
H           -5.51025840596299        2.47628040312157       -4.54814612627275
H           -3.05538273196821        2.75651449867638       -4.37326137990864
H           -1.98254517464073        2.85950821906657       -2.18418778295179
H           -1.57480300731435        4.73242780217274       -0.67312386306956
H            0.89323957041746        4.72052178599612       -0.51130267763244
H            7.01520905722298        1.40978781900218        1.14257541776871
H            8.24008531927856       -0.52732485979961        2.06933483406377
H            6.99067711731809       -2.43337233782255        3.02054927319853
H            4.52958576807484       -2.40552911455219        3.03443445728689
H            3.31015854708095       -0.46573518146200        2.11829918602402
H            5.82348786478368        4.85337652707873       -0.98776330763788
H            4.95289174965808        7.09775269155177       -0.90686970194428
H            3.60948182010442        6.00332988196204       -1.26661001850349
H            2.97907257683002        7.72805088958293        0.41610803821440
H            2.86233333970327        6.08964023250531        1.06601848677490
H            3.96351608020714        7.58396510568311        2.70116707160920
H            5.18637162594094        8.02042272239325        1.50365120840828
H            4.69807546727972        5.21344619266600        2.59805056439992
H            6.04503237271031        6.26704749908845        3.03867905146465
H            6.72426385821204        4.60711526109173        1.31612729837974
H            6.83893313692040        6.26149321189447        0.69302042639347
H            0.73638108099849        1.01569204254828        1.61373517464093
H           -1.73285540306945        1.00558182641425        1.41163733507976
H           -2.35571059239955        3.59784533781126        2.52570630010845
H           -3.67757284383655        3.75548721581895        4.58049588174701
H           -6.07490422959440        3.13217096467910        4.56502945918047
H           -7.12208929440968        2.38304876313431        2.46797745792389
H           -5.21396050779448       -3.08491335278346        2.55520256184877
H           -3.73349103770495       -3.12352627671769        4.52719060482471
H           -1.27829274962262       -3.03876145104127        4.20576704721104
H           -0.33820164796842       -2.90450848979593        1.95540316720805
H           -0.38475541432637       -0.58181953784635        0.14190402999917
H            2.05040741171061       -0.23692016369795        0.02091579209523

 projected vibrational frequencies (cm⁻¹)
eigval :       -0.00    -0.00     0.00     0.00     0.00     0.00
eigval :        5.89    10.15    11.45    15.19    16.05    16.47
eigval :       21.12    24.17    30.67    31.53    37.00    39.22
eigval :       42.24    45.20    51.04    51.98    56.56    57.43
eigval :       59.05    62.65    64.65    66.05    67.67    70.21
eigval :       71.57    78.85    84.60    92.65    97.45    99.81
eigval :      101.32   103.33   105.74   111.75   113.11   115.50
eigval :      119.88   127.35   133.18   141.83   146.83   157.96
eigval :      164.47   172.64   173.57   175.88   179.55   181.32
eigval :      185.68   193.73   194.60   197.95   202.20   213.03
eigval :      220.03   222.45   232.48   237.59   238.08   241.40
eigval :      243.79   249.35   253.45   255.28   262.22   267.37
eigval :      271.87   274.27   279.03   290.37   295.99   298.46
eigval :      309.07   319.49   323.13   327.45   328.71   330.57
eigval :      340.67   351.20   356.18   358.57   359.61   359.84
eigval :      366.29   372.45   373.27   383.11   388.90   390.62
eigval :      393.19   393.88   397.87   398.97   399.29   402.41
eigval :      405.85   411.74   413.29   414.90   420.47   425.95
eigval :      430.43   432.08   432.77   443.09   443.79   445.20
eigval :      451.01   452.52   456.73   463.72   465.26   466.33
eigval :      470.87   475.55   476.70   486.06   488.00   500.08
eigval :      503.95   507.33   513.49   514.70   516.96   518.43
eigval :      524.99   530.89   556.71   562.48   564.59   570.95
eigval :      577.71   581.62   583.87   587.56   589.39   591.50
eigval :      595.17   598.66   599.29   604.20   608.85   609.69
eigval :      610.45   617.70   631.90   633.62   640.38   643.23
eigval :      646.47   651.32   658.87   665.16   670.82   674.34
eigval :      675.73   680.20   681.45   688.14   694.14   694.92
eigval :      699.43   704.21   706.42   713.14   722.35   724.78
eigval :      725.34   731.04   731.70   747.86   753.98   770.26
eigval :      771.96   775.41   776.20   776.91   778.39   802.20
eigval :      807.91   815.92   816.86   819.28   820.71   828.84
eigval :      830.80   832.72   847.04   856.16   864.68   866.31
eigval :      866.73   868.29   869.65   870.30   872.03   872.78
eigval :      873.37   875.63   876.85   877.92   878.83   882.84
eigval :      888.67   895.72   898.21   899.17   900.03   907.34
eigval :      907.66   909.53   909.62   910.14   910.20   911.43
eigval :      912.04   913.08   914.90   918.21   920.30   920.86
eigval :      921.21   921.53   922.07   922.18   923.75   925.35
eigval :      927.06   927.12   927.69   927.73   933.46   936.32
eigval :      941.27   944.04   948.06   954.43   956.31   957.24
eigval :      959.03   959.73   961.70   962.82   963.43   965.89
eigval :      971.63   984.58   996.76   999.27  1004.21  1006.55
eigval :     1022.20  1031.87  1034.85  1035.30  1036.51  1039.78
eigval :     1048.35  1074.78  1076.26  1076.94  1080.77  1082.41
eigval :     1087.58  1094.99  1101.13  1103.70  1105.10  1105.73
eigval :     1107.90  1108.20  1111.37  1116.61  1116.63  1123.92
eigval :     1125.70  1125.96  1128.54  1129.42  1132.01  1135.19
eigval :     1140.35  1142.53  1144.48  1147.70  1173.63  1175.33
eigval :     1177.11  1178.49  1178.83  1179.46  1179.94  1181.66
eigval :     1181.96  1183.41  1183.89  1184.25  1185.23  1193.12
eigval :     1197.37  1198.08  1207.92  1211.99  1215.90  1220.64
eigval :     1227.00  1227.03  1227.17  1228.68  1229.39  1232.68
eigval :     1233.46  1235.30  1236.83  1246.04  1248.86  1250.30
eigval :     1250.91  1252.15  1254.77  1258.53  1260.47  1261.51
eigval :     1263.31  1264.60  1265.04  1271.66  1272.77  1274.22
eigval :     1282.36  1286.46  1290.43  1300.34  1302.08  1304.35
eigval :     1308.29  1310.36  1314.24  1314.43  1325.98  1327.72
eigval :     1328.11  1330.71  1332.09  1333.51  1335.03  1335.16
eigval :     1336.33  1341.18  1346.32  1349.04  1349.76  1353.62
eigval :     1357.71  1357.87  1359.97  1361.81  1382.40  1383.37
eigval :     1399.88  1402.84  1404.14  1404.27  1406.10  1407.07
eigval :     1417.08  1419.12  1420.31  1424.70  1426.84  1427.59
eigval :     1429.58  1434.93  1435.16  1435.86  1437.80  1441.88
eigval :     1445.43  1446.26  1456.11  1457.85  1467.78  1469.89
eigval :     1471.70  1473.29  1474.45  1477.66  1479.55  1482.17
eigval :     1484.17  1485.60  1486.55  1487.73  1489.59  1490.02
eigval :     1490.70  1491.81  1493.99  1494.51  1496.88  1500.51
eigval :     1502.57  1503.83  1505.44  1505.97  1513.38  1514.48
eigval :     1519.94  1523.09  1556.90  1560.69  1564.17  1567.34
eigval :     1568.08  1572.30  1572.49  1574.74  1579.72  1580.45
eigval :     1583.60  1585.51  1589.68  1591.15  1591.68  1592.92
eigval :     1594.30  1597.02  1598.37  1600.11  1604.01  1604.77
eigval :     1614.10  2917.48  2955.18  2957.69  2961.14  2967.01
eigval :     2969.53  2978.93  2981.75  2985.98  2989.46  2997.24
eigval :     3016.17  3019.46  3020.10  3021.14  3025.54  3026.03
eigval :     3026.99  3028.22  3030.99  3032.21  3034.15  3035.56
eigval :     3037.55  3040.56  3041.84  3046.21  3049.34  3050.01
eigval :     3050.41  3068.33  3070.37  3072.37  3073.40  3074.34
eigval :     3076.76  3077.42  3077.51  3078.24  3080.52  3081.70
eigval :     3081.97  3083.21  3083.84  3084.01  3084.55  3084.94
eigval :     3085.17  3085.59  3085.94  3087.16  3088.25  3090.07
eigval :     3091.68  3092.48  3093.09  3093.35  3096.63  3097.45
eigval :     3097.60  3097.94  3098.26  3098.48  3099.17  3101.07
eigval :     3101.88  3103.04  3103.45  3104.51  3107.22  3111.02
eigval :     3116.32  3116.77  3119.71

   temp. (K)  partition function   enthalpy   heat capacity  entropy
                                   cal/mol     cal/K/mol   cal/K/mol   J/K/mol
 298.15  VIB  0.619E+38            49102.856    309.169    306.128
         ROT  0.467E+09              888.752      2.981     42.650
         INT  0.289E+47            49991.609    312.150    348.778
         TR   0.428E+29             1481.254      4.968     47.229
         TOT                       51472.8627   317.1181   396.0071  1656.8936

       T/K    H(0)-H(T)+PV         H(T)/Eh          T*S/Eh         G(T)/Eh
   ------------------------------------------------------------------------
    298.15    0.820272E-01    0.144976E+01    0.188156E+00    0.126161E+01
   ------------------------------------------------------------------------

         :::::::::::::::::::::::::::::::::::::::::::::::::::::
         ::                  THERMODYNAMIC                  ::
         :::::::::::::::::::::::::::::::::::::::::::::::::::::
         :: total free energy        -249.061932249032 Eh   ::
         ::.................................................::
         :: total energy             -250.323539166603 Eh   ::
         :: zero point energy           1.367735427757 Eh   ::
         :: G(RRHO) w/o ZPVE           -0.106128510186 Eh   ::
         :: G(RRHO) contrib.            1.261606917571 Eh   ::
         :::::::::::::::::::::::::::::::::::::::::::::::::::::

           -------------------------------------------------
          | TOTAL ENERGY             -250.323539166603 Eh   |
          | TOTAL ENTHALPY           -248.873776510855 Eh   |
          | TOTAL FREE ENERGY        -249.061932249032 Eh   |
          | GRADIENT NORM               0.000143853501 Eh/α |
           -------------------------------------------------

 * finished run on 2025/09/09 at 02:02:07.782
