   * xtb version 6.7.1 (edcfbbe) compiled by 'albert@albert-system' on 2024-07-22

   ID    Z sym.   atoms
    1    6 C      1-20, 22-25, 27-58, 60-64, 66-72, 74-80, 82-97
    2    7 N      21, 26, 59, 65, 73, 81
    3    1 H      98-171

          program call               : xtb data2507/gas/c-D2T/c-D2T_gas_S0_finalOpt.xtbopt.xyz --gfn 2 --spinpol --tblite --uhf 2 --ohess vtight --parallel 40 --molden --ceasefiles --namespace data2507/gas/c-D2T/c-D2T_gas_T1_preOpt
 * total energy  :  -250.3159927 Eh     change        0.3167503E-07 Eh
 * total energy  :  -250.3203274 Eh     change       -0.4334763E-02 Eh
 * total energy  :  -250.3217469 Eh     change       -0.1419437E-02 Eh
 * total energy  :  -250.3218464 Eh     change       -0.9957779E-04 Eh
 * total energy  :  -250.3219449 Eh     change       -0.9841134E-04 Eh
 * total energy  :  -250.3219737 Eh     change       -0.2889004E-04 Eh
 * total energy  :  -250.3219973 Eh     change       -0.2353908E-04 Eh
 * total energy  :  -250.3220123 Eh     change       -0.1496873E-04 Eh
 * total energy  :  -250.3220246 Eh     change       -0.1234968E-04 Eh
 * total energy  :  -250.3220388 Eh     change       -0.1422474E-04 Eh
 * total energy  :  -250.3220977 Eh     change       -0.1155181E-05 Eh
 * total energy  :  -250.3220985 Eh     change       -0.7803186E-06 Eh
 * total energy  :  -250.3220994 Eh     change       -0.9216309E-06 Eh
 * total energy  :  -250.3221004 Eh     change       -0.9677084E-06 Eh
 * total energy  :  -250.3221011 Eh     change       -0.7286498E-06 Eh
 * total energy  :  -250.3221016 Eh     change       -0.4751648E-06 Eh
 * total energy  :  -250.3221024 Eh     change       -0.7936351E-06 Eh
 * total energy  :  -250.3221027 Eh     change       -0.3464681E-06 Eh
 * total energy  :  -250.3221027 Eh     change       -0.4093832E-07 Eh
   *** GEOMETRY OPTIMIZATION CONVERGED AFTER 35 ITERATIONS ***

 final structure:
================
171
 xtb: 6.7.1 (edcfbbe)
C            9.56235061627614       -4.69086705487143        0.87227038699799
C            8.19801729044980       -5.28495545333949        1.23288420525319
C            8.10977256918304       -5.37727986107410        2.76285612899740
C            8.11372206416114       -6.69131010518692        0.62269007720152
C            7.04036240519704       -4.44680045473823        0.71065284693467
C            5.72950808006227       -4.86159830140448        0.97733687301094
C            4.61892414886611       -4.16883108868736        0.53921563417981
C            4.81914533485585       -3.01622580882834       -0.20468353265069
C            6.12852327654174       -2.55976926036241       -0.45519558040951
C            7.22822246431299       -3.27715608869952       -0.00775639548562
C            5.99861628295463       -1.31238308655365       -1.15476707283046
C            6.93119531017500       -0.41345976024268       -1.64918465735770
C            6.50360290160416        0.73456245483149       -2.29536198630690
C            7.47588269158458        1.75726828830460       -2.86299197972858
C            7.04721583434887        3.16753579024363       -2.43538507032168
C            8.90928171215174        1.52980926430129       -2.37411948925619
C            7.45809991907949        1.65215198498376       -4.39477646973799
C            5.12721270795984        0.93438103587707       -2.45759150901612
C            4.17842815210362        0.05584383094021       -1.97463115263586
C            4.61764094477563       -1.06839794268077       -1.29307324738898
N            3.90865537207754       -2.11409250488664       -0.72637358598791
C            2.52250424288008       -2.24655615718640       -0.68540990580139
C            1.93128706808863       -3.47896654382310       -0.96886091924009
C            0.56173702102110       -3.63355204771260       -0.88834595464876
C           -0.23885007761908       -2.54918730336629       -0.55151643450240
N           -1.64905324765821       -2.70050459265605       -0.42748041366979
C           -2.43672292150649       -2.69641481683988       -1.56474436783145
C           -1.84844527382957       -2.56398851461553       -2.82664554990544
C           -2.62095197479305       -2.56500634207127       -3.96877246679862
C           -3.99729363314620       -2.69331983792528       -3.88034126024059
C           -4.58732676599950       -2.80963544264355       -2.63574390411109
C           -3.82764340801922       -2.81205398097094       -1.47573253240256
C           -4.53293272023886       -2.90350845942162       -0.14288131249181
C           -5.50056080980592       -4.06989165781239       -0.12766990036270
C           -5.21475534092681       -5.41444044213976       -0.20679015053601
C           -6.26880706841577       -6.31824381894909       -0.18593485470812
C           -7.57973582616064       -5.87705090553449       -0.09065515722144
C           -7.87167327623420       -4.52461289654853       -0.01229695139549
C           -6.82459549877925       -3.61836047138931       -0.03049501221928
C           -6.81652592439475       -2.16457358155114        0.04146868434860
C           -7.86230650837467       -1.25725787726197        0.11557113133482
C           -7.53420027001526        0.08925274724207        0.15967379727686
C           -6.19478535292185        0.50676588321182        0.15880150886861
C           -5.15113168244128       -0.39245441767988        0.07549246706508
C           -5.48233873739149       -1.73010075423809        0.00521613534445
C           -6.10408895911901        2.02505589848161        0.19844792689167
C           -7.56455139316072        2.41124209750288        0.17852639263427
C           -8.11197261403169        3.67557376148730        0.17783468699208
C           -9.49510195823679        3.79921922367990        0.17404295452913
C          -10.30769356628641        2.67562487175107        0.17551093324321
C           -9.76131048279524        1.40195779170934        0.17748622721143
C           -8.38238324273895        1.27165332140833        0.17833933317414
C           -5.34119035471850        2.46132681357561       -1.02612459832843
C           -5.97267357634108        2.47801995551347       -2.25888559453342
C           -5.26037222398681        2.69769044456199       -3.42397552797682
C           -3.88592233931107        2.85756558315775       -3.35732118244806
C           -3.24080789205692        2.85364424076292       -2.13864324425367
C           -3.95984000922261        2.69460480760884       -0.94877941040073
N           -3.32823520721864        2.75478456889347        0.28211773194106
C           -1.91328133392412        2.84210631524306        0.36184349706460
C           -1.22562815048846        3.96144449494228       -0.11648682778370
C            0.14420096215744        4.00257106045007       -0.07154101145016
C            0.88313020458464        2.92726456882002        0.46658815138962
C            2.30223769933223        2.95859997046966        0.45779171675858
N            3.02483311991510        1.91361660070227        0.87597189533368
C            4.33424206432573        1.99587982532862        0.86017028513057
C            5.13247782928575        0.89772169301435        1.35744570388752
C            6.52801229413613        0.95709933583019        1.29583882515231
C            7.29195602534489       -0.07221726960899        1.80340271013384
C            6.68407863478091       -1.17489357316676        2.38325972405946
C            5.29968219893707       -1.24498963770761        2.44596348257152
C            4.52796178737672       -0.22289411634134        1.93827737911574
N            4.98672653716823        3.11718860367883        0.42174157120716
C            4.23527581188253        4.14113869275207        0.04287502107291
C            4.93844126805997        5.40018211509938       -0.39205974307034
C            3.97882279116225        6.58326110119249       -0.52739502473556
C            3.44723936915458        7.03158688759064        0.83083468968346
C            4.59696450086704        7.36985906501849        1.77388438074785
C            5.52085040985829        6.16652260201233        1.93234266143522
C            6.07521522677732        5.73601218628831        0.57824428314337
N            2.93367777195741        4.10214623013796        0.02303092113420
C            0.17225837837141        1.84092462162050        1.01692549276145
C           -1.19770118141010        1.79719761696585        0.95552319285779
C           -4.05870658150670        2.78927495590709        1.45796061360265
C           -3.44636589230952        3.18030346990026        2.65394724203247
C           -4.16250958777696        3.21794506183809        3.83096981875195
C           -5.50493109551026        2.87382953953519        3.84294631701832
C           -6.12335212096179        2.50522613552914        2.66192761044829
C           -5.42123012405779        2.46698834673714        1.46780708549909
C           -3.57424516306554       -2.95846464233756        1.01843466989862
C           -4.08793261837313       -3.10593686642154        2.29807803648577
C           -3.25943349812499       -3.14528088354248        3.40381071552166
C           -1.88967430318714       -3.03835516316656        3.22718465772762
C           -1.36011585045687       -2.89190630404945        1.96217894957483
C           -2.19205784866896       -2.84265550035220        0.83863919942684
C            0.34183448163923       -1.31024691464882       -0.31287596215299
C            1.71287892943921       -1.15787332862637       -0.36348652676147
H            9.68369607160160       -3.70003529982610        1.30385038193524
H            9.68881717413672       -4.62823783059667       -0.20605194238626
H           10.35149759635406       -5.32816323815363        1.26673325254999
H            7.18532185664465       -5.85085259930506        3.08102329388632
H            8.94193087617861       -5.96052216783049        3.15198691870002
H            8.15136231811679       -4.38319015330413        3.20311456156148
H            8.94492963100183       -7.30197751400220        0.96939143884891
H            7.18803383062350       -7.18846988425265        0.89901217828833
H            8.15766608329973       -6.63220338732854       -0.46292274185782
H            5.56529653625666       -5.75830340588731        1.55563796337235
H            3.62798577321309       -4.51346895871107        0.79447765934817
H            8.21235440968954       -2.89505360966339       -0.22022236151990
H            7.97721418022056       -0.63195442106855       -1.51604694081046
H            7.82895464833112        3.88774308910976       -2.66919989189472
H            6.85462777264643        3.19138365755678       -1.36525876783282
H            6.14299466272272        3.47729699679131       -2.95277231411486
H            9.30573174272020        0.58446429349028       -2.73662494229192
H            9.55285391342777        2.32343503322138       -2.74906780368824
H            8.95114517661205        1.54094561512509       -1.28748064826897
H            7.78148788287481        0.66183352085640       -4.70913177240654
H            8.12764954996224        2.39055975979851       -4.83145040183741
H            6.45692954396456        1.82110289732086       -4.78371145636047
H            4.77697020188995        1.80918462139417       -2.98342485381440
H            3.12889551380367        0.24768583003701       -2.13833300158351
H            2.55184113575482       -4.31168949455838       -1.26196955805481
H            0.10605640713370       -4.59115731327425       -1.09306703850268
H           -0.77757083618673       -2.45552239500404       -2.90458831271452
H           -2.14440898811622       -2.46303179738596       -4.93224985474579
H           -4.60582239353740       -2.69574677667682       -4.77121546842442
H           -5.66094011431221       -2.89853305348816       -2.55555084357470
H           -4.19321867200946       -5.75810050249907       -0.28156645341203
H           -6.06527369766131       -7.37725470157649       -0.24494139882182
H           -8.38399732662502       -6.59816177931697       -0.07702141763121
H           -8.89457396286458       -4.18639726571297        0.06233432615425
H           -8.89072769195330       -1.58506503215623        0.12504420866180
H           -4.12094472918146       -0.06838721710825        0.04982665411607
H           -7.47826179747401        4.55045482921869        0.17919520654584
H           -9.94298266538374        4.78191299785891        0.17078564078744
H          -11.38126967267366        2.79573459562372        0.17430772269834
H          -10.39898346483293        0.53048477924526        0.17808196700880
H           -7.03715694979850        2.29994601780061       -2.30280948486250
H           -5.76880698832507        2.71389946651287       -4.37545345731549
H           -3.30945158053114        2.98581267408855       -4.26113977948972
H           -2.16910561049666        2.96604808802527       -2.10464660287126
H           -1.78748727383072        4.79351529369627       -0.51689890276257
H            0.68482182416711        4.85851079197917       -0.44465782686943
H            6.98985459441082        1.82348181308264        0.84870769483563
H            8.37020586757499       -0.01691906742392        1.75300124491157
H            7.28284374368682       -1.97834253820090        2.78500346960097
H            4.82703969375481       -2.10628377819887        2.89608950131647
H            3.45098144880274       -0.26426088908393        1.99553624040622
H            5.37438976511586        5.18284637861224       -1.37452251007232
H            4.51482576251142        7.41141570091128       -0.99796540201113
H            3.14681966833190        6.30203181584739       -1.17471848592371
H            2.80061860728541        7.90262044897134        0.70146523260971
H            2.84625109191356        6.22878887438197        1.26111177044871
H            4.20373188166176        7.66909921280415        2.74793577493729
H            5.16552841940578        8.21158606704269        1.36945462400770
H            4.96459317549009        5.33615811331212        2.37343824554914
H            6.34479939276428        6.41230552718450        2.60619106331325
H            6.71403251602551        4.86016430638036        0.69980491581445
H            6.67498119997881        6.54524686350993        0.15493531980531
H            0.73101186360186        1.05035188569733        1.49253777375239
H           -1.74307707401239        0.96069327084515        1.37387609941629
H           -2.40501467744484        3.46230168656220        2.64830223367077
H           -3.67064304197421        3.52124653237770        4.74287818717074
H           -6.06722101644952        2.89592556846261        4.76359605035236
H           -7.17013492214663        2.23947084455110        2.66364190929688
H           -5.15803869965213       -3.19018825185248        2.42111167067613
H           -3.67752281891514       -3.25935499900617        4.39182731968284
H           -1.22707394193743       -3.07091139471645        4.07903922178483
H           -0.29107827048383       -2.81616152043258        1.83711413991673
H           -0.28792235234004       -0.46855588904934       -0.07182873167624
H            2.15910932810006       -0.20322979731202       -0.12975252538485

 projected vibrational frequencies (cm⁻¹)
eigval :       -0.00    -0.00    -0.00     0.00     0.00     0.00
eigval :        5.21    10.15    12.80    14.21    15.37    17.06
eigval :       18.97    23.47    29.75    31.33    36.55    39.33
eigval :       41.08    42.04    47.57    48.58    53.55    55.99
eigval :       56.73    59.00    63.76    64.17    65.85    68.20
eigval :       70.69    72.83    83.28    90.88    95.65    98.31
eigval :      103.44   103.71   106.84   111.62   113.13   114.87
eigval :      119.34   127.01   129.35   142.17   147.74   156.76
eigval :      161.20   167.70   173.76   174.69   177.46   181.30
eigval :      185.45   193.17   194.11   201.72   204.51   214.50
eigval :      218.80   221.40   223.07   230.72   235.39   239.68
eigval :      242.17   245.32   253.23   255.71   259.49   265.84
eigval :      268.46   273.83   279.38   286.29   291.52   297.63
eigval :      304.28   318.22   320.18   322.87   328.95   338.92
eigval :      341.23   345.77   353.02   358.89   361.11   361.78
eigval :      367.62   373.56   376.05   383.46   389.02   389.30
eigval :      392.67   393.35   398.08   399.14   399.93   401.68
eigval :      405.84   411.89   413.01   414.61   421.19   425.32
eigval :      431.05   433.55   434.83   442.62   444.31   444.96
eigval :      450.01   451.38   456.21   463.68   465.05   467.93
eigval :      471.02   474.96   476.09   485.25   487.87   500.30
eigval :      503.99   507.16   513.58   515.05   517.32   518.78
eigval :      525.86   533.53   556.11   560.83   562.32   571.41
eigval :      572.23   581.15   585.00   587.48   589.41   591.39
eigval :      595.19   598.62   599.37   604.29   608.92   609.82
eigval :      610.65   617.78   632.96   633.78   641.12   643.25
eigval :      646.22   651.08   659.24   665.34   671.27   674.23
eigval :      675.39   680.52   681.43   687.94   694.32   695.01
eigval :      699.90   704.32   706.38   713.10   722.88   724.30
eigval :      725.36   731.03   731.67   748.31   754.74   770.38
eigval :      772.13   775.56   776.42   777.02   778.60   801.69
eigval :      807.55   816.65   817.03   819.14   821.08   828.06
eigval :      830.70   833.15   847.17   855.35   864.55   865.50
eigval :      866.07   867.76   868.33   870.38   870.86   872.40
eigval :      872.84   874.59   875.67   878.13   879.23   883.68
eigval :      889.29   895.58   898.33   899.56   900.46   907.44
eigval :      909.42   909.77   910.23   910.40   910.53   911.56
eigval :      912.29   912.64   914.85   918.15   920.47   920.82
eigval :      921.30   921.50   921.84   922.36   924.98   925.59
eigval :      927.03   927.33   928.01   929.02   934.18   936.94
eigval :      941.96   943.81   948.32   953.24   955.58   958.44
eigval :      959.98   960.40   961.82   963.00   965.18   971.26
eigval :      971.51   981.90   996.29   999.67  1004.07  1006.74
eigval :     1021.42  1031.45  1034.99  1035.31  1039.72  1043.42
eigval :     1050.19  1074.82  1075.88  1076.94  1080.59  1082.60
eigval :     1087.43  1095.15  1101.17  1103.70  1105.17  1105.41
eigval :     1106.83  1107.15  1110.06  1116.40  1117.11  1123.84
eigval :     1125.32  1126.10  1129.08  1129.50  1130.97  1135.37
eigval :     1140.90  1142.56  1144.59  1147.66  1173.53  1175.68
eigval :     1177.41  1178.07  1178.99  1179.17  1180.33  1182.12
eigval :     1182.46  1183.57  1183.85  1184.04  1185.14  1193.69
eigval :     1197.56  1198.12  1208.24  1212.49  1215.42  1219.75
eigval :     1227.49  1227.77  1228.55  1228.89  1231.97  1233.69
eigval :     1233.83  1236.57  1237.03  1246.09  1246.60  1249.78
eigval :     1250.68  1252.07  1255.34  1258.74  1260.46  1262.07
eigval :     1264.05  1265.26  1266.62  1271.49  1272.37  1273.97
eigval :     1284.17  1286.06  1290.34  1302.22  1303.26  1305.82
eigval :     1308.36  1309.82  1313.71  1315.65  1326.35  1327.28
eigval :     1328.29  1330.39  1331.89  1333.34  1335.00  1335.32
eigval :     1337.96  1341.49  1345.47  1348.27  1349.18  1353.89
eigval :     1356.79  1357.80  1360.58  1361.21  1380.06  1383.33
eigval :     1400.66  1403.33  1405.18  1405.76  1406.64  1407.98
eigval :     1416.91  1419.36  1420.50  1425.13  1428.65  1429.36
eigval :     1429.75  1435.21  1435.49  1436.31  1437.80  1443.18
eigval :     1445.45  1445.63  1456.29  1457.43  1467.99  1468.14
eigval :     1471.73  1472.12  1477.21  1477.67  1480.56  1484.75
eigval :     1486.00  1486.24  1487.91  1488.56  1490.05  1490.64
eigval :     1491.10  1492.01  1494.17  1494.25  1494.81  1500.65
eigval :     1501.16  1503.33  1505.51  1508.91  1512.91  1514.10
eigval :     1520.17  1524.60  1557.04  1560.68  1563.95  1567.05
eigval :     1567.90  1571.94  1572.29  1575.36  1579.66  1580.32
eigval :     1582.23  1585.44  1589.83  1591.18  1591.94  1593.02
eigval :     1594.35  1597.13  1598.48  1601.35  1604.17  1604.99
eigval :     1613.56  2915.75  2955.93  2959.71  2962.84  2968.20
eigval :     2970.71  2979.99  2982.88  2990.10  2993.91  2996.50
eigval :     3017.33  3020.28  3020.55  3021.60  3025.81  3026.68
eigval :     3026.86  3028.63  3030.70  3034.28  3035.40  3036.65
eigval :     3037.91  3038.34  3041.11  3041.48  3046.70  3049.98
eigval :     3051.80  3067.92  3071.59  3072.83  3073.74  3074.80
eigval :     3077.07  3077.35  3078.65  3079.94  3080.93  3081.79
eigval :     3082.64  3083.46  3083.56  3084.30  3084.43  3084.56
eigval :     3085.54  3085.71  3086.38  3087.64  3088.73  3088.96
eigval :     3090.65  3092.77  3093.72  3095.35  3096.60  3097.19
eigval :     3097.88  3098.14  3098.36  3098.97  3099.58  3100.41
eigval :     3101.53  3102.22  3102.45  3103.65  3105.00  3111.11
eigval :     3114.38  3118.36  3121.72

   temp. (K)  partition function   enthalpy   heat capacity  entropy
                                   cal/mol     cal/K/mol   cal/K/mol   J/K/mol
 298.15  VIB  0.163E+39            49212.429    308.683    307.238
         ROT  0.478E+09              888.752      2.981     42.697
         INT  0.782E+47            50101.181    311.664    349.935
         TR   0.428E+29             1481.254      4.968     47.229
         TOT                       51582.4352   316.6318   397.1640  1661.7342

       T/K    H(0)-H(T)+PV         H(T)/Eh          T*S/Eh         G(T)/Eh
   ------------------------------------------------------------------------
    298.15    0.822018E-01    0.144986E+01    0.188705E+00    0.126115E+01
   ------------------------------------------------------------------------

         :::::::::::::::::::::::::::::::::::::::::::::::::::::
         ::                  THERMODYNAMIC                  ::
         :::::::::::::::::::::::::::::::::::::::::::::::::::::
         :: total free energy        -249.060953295946 Eh   ::
         ::.................................................::
         :: total energy             -250.322102911819 Eh   ::
         :: zero point energy           1.367653213073 Eh   ::
         :: G(RRHO) w/o ZPVE           -0.106503597201 Eh   ::
         :: G(RRHO) contrib.            1.261149615872 Eh   ::
         :::::::::::::::::::::::::::::::::::::::::::::::::::::

           -------------------------------------------------
          | TOTAL ENERGY             -250.322102911819 Eh   |
          | TOTAL ENTHALPY           -248.872247855822 Eh   |
          | TOTAL FREE ENERGY        -249.060953295946 Eh   |
          | GRADIENT NORM               0.000157422730 Eh/α |
           -------------------------------------------------

 * finished run on 2025/09/09 at 00:48:04.882
