   * xtb version 6.7.1 (edcfbbe) compiled by 'albert@albert-system' on 2024-07-22

   ID    Z sym.   atoms
    1    6 C      1-20, 22-25, 27-58, 60-64, 66-72, 74-80, 82-97
    2    7 N      21, 26, 59, 65, 73, 81
    3    1 H      98-171

          program call               : xtb data2507/gas/c-D2T/c-D2T_gas_S0_crest.xyz --gfn 2 --ohess vtight --parallel 40 --molden --ceasefiles --namespace data2507/gas/c-D2T/c-D2T_gas_S0_finalOpt
          :  Hamiltonian                  GFN2-xTB          :
 * total energy  :  -250.3939315 Eh     change       -0.3349072E-08 Eh
 * total energy  :  -250.3939333 Eh     change       -0.1776947E-05 Eh
 * total energy  :  -250.3939365 Eh     change       -0.3202272E-05 Eh
 * total energy  :  -250.3939418 Eh     change       -0.5359856E-05 Eh
 * total energy  :  -250.3939434 Eh     change       -0.1557621E-05 Eh
 * total energy  :  -250.3939447 Eh     change       -0.1271058E-05 Eh
 * total energy  :  -250.3939462 Eh     change       -0.1511655E-05 Eh
 * total energy  :  -250.3939480 Eh     change       -0.1804047E-05 Eh
 * total energy  :  -250.3939502 Eh     change       -0.2175524E-05 Eh
 * total energy  :  -250.3939526 Eh     change       -0.2424575E-05 Eh
 * total energy  :  -250.3939845 Eh     change       -0.2394729E-06 Eh
 * total energy  :  -250.3939847 Eh     change       -0.2124324E-06 Eh
 * total energy  :  -250.3939849 Eh     change       -0.1893242E-06 Eh
 * total energy  :  -250.3939850 Eh     change       -0.1743244E-06 Eh
 * total energy  :  -250.3939852 Eh     change       -0.1702305E-06 Eh
 * total energy  :  -250.3939854 Eh     change       -0.1873812E-06 Eh
 * total energy  :  -250.3939856 Eh     change       -0.2291240E-06 Eh
 * total energy  :  -250.3939859 Eh     change       -0.2864768E-06 Eh
 * total energy  :  -250.3939859 Eh     change       -0.8165955E-08 Eh
   *** GEOMETRY OPTIMIZATION CONVERGED AFTER 44 ITERATIONS ***

 final structure:
================
171
 xtb: 6.7.1 (edcfbbe)
C            9.55921274183974       -4.66409876891872        0.89952764421053
C            8.19571745613488       -5.25347707970078        1.27099923273203
C            8.11426313092096       -5.33387041571770        2.80206951584444
C            8.10783609532875       -6.66471862223702        0.67296016554184
C            7.03648599881999       -4.41855388339145        0.74642406578291
C            5.72620938065405       -4.83381198643038        1.01744207282825
C            4.61407132748191       -4.14585408368105        0.57670292808810
C            4.81140879514346       -2.99669936304687       -0.17342215157837
C            6.11967269558497       -2.53939848553500       -0.42871266855513
C            7.22161429528673       -3.25352903620111        0.02128679517731
C            5.98600777584587       -1.29697562425724       -1.13477718607092
C            6.91549808549198       -0.39720882938753       -1.63567254527627
C            6.48448952291530        0.74598721518744       -2.28659005604760
C            7.45282020638756        1.76612556120282       -2.86623071561339
C            7.03707970027618        3.17790289722957       -2.43065572526406
C            8.89258575911006        1.53261598993211       -2.39952295022251
C            7.41313860714965        1.66370641608040       -4.39766230756927
C            5.10686630382835        0.94277551116626       -2.44490336638326
C            4.16111665679053        0.06406552344725       -1.95637571520782
C            4.60382793482495       -1.05753100098286       -1.27259916595403
N            3.89842654000311       -2.09970536822968       -0.69774765948122
C            2.51068865536628       -2.24067200690618       -0.66242954781615
C            1.92814174115985       -3.47437727335508       -0.95378571382212
C            0.55904913938351       -3.63600409989382       -0.87856895037665
C           -0.24984638667025       -2.55758121420358       -0.54204419983561
N           -1.65856926430108       -2.71498440520297       -0.42817777510335
C           -2.44106240633371       -2.70088271867301       -1.57142691878552
C           -1.84786134106626       -2.55138319943288       -2.82769968046272
C           -2.61484057941341       -2.54227789451151       -3.97454516240025
C           -3.98989823226003       -2.67878680248093       -3.89518815962693
C           -4.58462758891144       -2.81288002820432       -2.65446809393400
C           -3.83046975320959       -2.82445530117900       -1.49112975650641
C           -4.54370533439746       -2.92843532782170       -0.16227746392018
C           -5.52093706544429       -4.08551412760178       -0.16188432405388
C           -5.24815322461336       -5.43159659519020       -0.25996601149894
C           -6.31000063795815       -6.32622549485158       -0.24608866072376
C           -7.61640864886379       -5.87463198653578       -0.13806167586430
C           -7.89560254456070       -4.52076704223995       -0.04017224060320
C           -6.84052471236314       -3.62374882273820       -0.05179407252400
C           -6.81904444540272       -2.17103563056531        0.03657903582055
C           -7.85651270270943       -1.25557864459541        0.12482696373168
C           -7.51654908991107        0.08763663418045        0.17506705728281
C           -6.17400339596644        0.49558806427019        0.16244910389542
C           -5.13925086070016       -0.41304608416699        0.06930012591273
C           -5.48120604604378       -1.74798025707919       -0.00315239273466
C           -6.07167539036791        2.01126794593616        0.20106336983982
C           -7.52882359563359        2.40947629573796        0.20589820594644
C           -8.06719180565019        3.67764704162812        0.22007692324520
C           -9.44916838373664        3.81193327911016        0.23697662923001
C          -10.27013145013928        2.69447388709177        0.24323164728356
C           -9.73321439419707        1.41685840139127        0.22967357156667
C           -8.35546363860349        1.27622941351279        0.21036491886499
C           -5.33116671042155        2.44810858014532       -1.03975691141995
C           -5.99408120195502        2.45980648760934       -2.25671866162084
C           -5.31391329302087        2.67032446620927       -3.44178231185443
C           -3.93949716940099        2.82130882931461       -3.40962911241176
C           -3.26490293507278        2.82521116660414       -2.20490979873623
C           -3.95178187922202        2.68333497076433       -0.99761542562782
N           -3.28995392248738        2.73721893373832        0.22784890029351
C           -1.88279952151522        2.82613550034111        0.28817604037911
C           -1.19838808744347        3.90009681885811       -0.27913562847787
C            0.17897986025148        3.94348783546998       -0.23778562596094
C            0.89867811729578        2.92312161029234        0.38284351909467
C            2.35929109160116        2.97304374659771        0.40122124897022
N            3.03002493862104        1.90963941264055        0.83197364167691
C            4.35681845516140        2.02739283825083        0.84079788772775
C            5.14682864212930        0.90827552317152        1.34934470321510
C            6.53737509324646        0.94878974333585        1.28027636164580
C            7.28649453192629       -0.08764640300942        1.80084037254901
C            6.65801393230315       -1.16925361821148        2.39602479000656
C            5.27483883411047       -1.21713290042945        2.46485469298498
C            4.51988440682248       -0.18593630143734        1.94305892685728
N            5.00636484194258        3.12448103820807        0.45897383519557
C            4.25516059781278        4.14274102060203        0.05992259415788
C            4.95526754170261        5.40682940682054       -0.34866955450784
C            3.99386048360539        6.58694344748200       -0.49741932938771
C            3.43797492942453        7.02703661206780        0.85370441854749
C            4.57034339302144        7.36672985118018        1.81721366095374
C            5.49842311519798        6.16819106770888        1.98695752645068
C            6.07637449638003        5.74320943422481        0.64087605658217
N            2.93378993366312        4.10359794859384       -0.00248677094528
C            0.21123939897952        1.87985472858533        1.00064165123156
C           -1.16614754611857        1.82880352181287        0.94917551927936
C           -4.00553401343120        2.78109394883079        1.42231037731112
C           -3.38326391095126        3.20254513686459        2.59963654236010
C           -4.08151684892219        3.25195003373321        3.78891352294941
C           -5.41862307924188        2.89714582302000        3.82724585435200
C           -6.05005312442870        2.51112718540394        2.65943045030846
C           -5.36368755887165        2.45736714766422        1.45605047015377
C           -3.58960600201398       -3.00833794770453        1.00332917010286
C           -4.10941150442925       -3.18401360844496        2.27664855894047
C           -3.28703752074939       -3.24762928809248        3.38612779482444
C           -1.91764144918542       -3.13592751225911        3.21825992632685
C           -1.38232488197805       -2.96065550301101        1.95844475085506
C           -2.20781618987843       -2.88798381145319        0.83273356593561
C            0.32455535297890       -1.31744576738150       -0.29452846860186
C            1.69542659051336       -1.15815733509288       -0.33707979747598
H            9.68510129506375       -3.67031611492679        1.32326339062353
H            9.68010626095634       -4.60941861146222       -0.17981815750088
H           10.34919454555051       -5.30001102524453        1.29441113876482
H            7.18581180286603       -5.79405713696210        3.12810109907503
H            8.94125927381502       -5.92448405180913        3.19094051989874
H            8.17074305533006       -4.33755388375355        3.23602418131555
H            8.94158473297806       -7.27236329820642        1.01880359218425
H            7.18436370850581       -7.16001332600916        0.95962845384484
H            8.14422754060882       -6.61435296442847       -0.41332778868905
H            5.56440018003777       -5.72818069527957        1.59997782237604
H            3.62355392664228       -4.49181303077506        0.83164737054877
H            8.20503842175921       -2.87270333420112       -0.19736268748025
H            7.96236440111506       -0.61387009753014       -1.50564455133095
H            7.81098242178856        3.89685056333936       -2.69255405314604
H            6.87886214385661        3.20717893944840       -1.35493278607309
H            6.11696916399124        3.48518698458543       -2.92095565455664
H            9.27729471184732        0.58361293681153       -2.76488565717602
H            9.53404888235155        2.32108905562252       -2.78851910994314
H            8.95361853366161        1.54806547994486       -1.31374147359445
H            7.72554105711510        0.67167755703809       -4.71743393331526
H            8.08151088778547        2.39812039645213       -4.84271140330084
H            6.40808656576864        1.83964141855152       -4.77305749024219
H            4.75371147713227        1.81387703965572       -2.97574644778637
H            3.11036059373646        0.25061387543589       -2.12012248874841
H            2.55501468210604       -4.30225747881592       -1.24759473513542
H            0.10866863348140       -4.59463131401869       -1.08948995755746
H           -0.77673832649821       -2.43792752884602       -2.90002467093641
H           -2.13304330900407       -2.42639927924131       -4.93413001860818
H           -4.59435226572132       -2.67355530682369       -4.78894670097411
H           -5.65825236095808       -2.90784591839171       -2.58007035874831
H           -4.22994396798375       -5.78294889710578       -0.34452362030475
H           -6.11652773139912       -7.38630008916392       -0.32054961232335
H           -8.42719172484183       -6.58869440949558       -0.12988454007052
H           -8.91519094988468       -4.17459009245303        0.04425363033916
H           -8.88768944904371       -1.57482108819432        0.13922671009775
H           -4.10664533636313       -0.09713201623911        0.03611189819413
H           -7.42673131458110        4.54772804275321        0.21756688374424
H           -9.88983455239570        4.79799946023948        0.24618697484482
H          -11.34280737067593        2.82255858024866        0.25825285480610
H          -10.37749399755755        0.55015616724403        0.23418704412248
H           -7.05934515297150        2.28188546974182       -2.27143042777872
H           -5.84679775932497        2.68171701972204       -4.37984137183893
H           -3.38186140338333        2.93554709450373       -4.32725243594935
H           -2.19076498870847        2.92114063802906       -2.20869163755097
H           -1.75617275126756        4.70209587577998       -0.73963216440491
H            0.71989787105285        4.76719009118077       -0.67622929731628
H            7.00909177216012        1.80186487903669        0.81943491998479
H            8.36476637590798       -0.05330935372749        1.74680242054575
H            7.24357052833979       -1.97793859106870        2.80654487537840
H            4.78865215944116       -2.06377132336056        2.92650572181077
H            3.44286417152852       -0.20592013494450        2.00037206134940
H            5.41135018844118        5.19750373944588       -1.32400885270474
H            4.53523648902077        7.41869090143989       -0.95442844909778
H            3.17426714233288        6.30593563017611       -1.15939032838994
H            2.79041220682895        7.89598526321093        0.71734009925164
H            2.83242937591376        6.22031733564355        1.27012652143174
H            4.15971431702948        7.66055566425601        2.78565671404617
H            5.14116368632494        8.21249139480975        1.42521327566535
H            4.94070375070568        5.33391096650186        2.41955573912295
H            6.31068069196229        6.41740030020133        2.67340732368713
H            6.71667864010699        4.87006962272523        0.76965087695925
H            6.67802134634920        6.55669871598414        0.22962598237882
H            0.77250418490439        1.11819482581699        1.51845058758851
H           -1.70486097239218        1.02195749649486        1.42725601929630
H           -2.34590681147815        3.50043210175701        2.58001802016188
H           -3.57698711215528        3.57554842895251        4.68709674738710
H           -5.96755117033254        2.92715329952501        4.75571890649352
H           -7.09576937164213        2.24198045148169        2.67779371158891
H           -5.18012098514609       -3.27129861878461        2.39264941829421
H           -3.71031092030792       -3.38394694312445        4.36923672673883
H           -1.25825156544182       -3.18728197963568        4.07213853808498
H           -0.31225157008051       -2.88179522502714        1.84056195068891
H           -0.31292055857674       -0.48156208539675       -0.05271168243377
H            2.13841228336292       -0.20288247809887       -0.09956363437912

          :  Hamiltonian                  GFN2-xTB          :
         :: gradient norm              0.000050431394 Eh/a0 ::
         :: HOMO-LUMO gap              1.558074029194 eV    ::
         :: SCC energy              -254.906598837857 Eh    ::
         :: -> dispersion             -0.280713961412 Eh    ::
         :: repulsion energy           4.512612908866 Eh    ::

    * Orbital Energies and Occupations

         #    Occupation            Energy/Eh            Energy/eV
      -------------------------------------------------------------
         1        2.0000           -0.6835615             -18.6007
       ...           ...                  ...                  ...
       222        2.0000           -0.3943107             -10.7297
       223        2.0000           -0.3935766             -10.7098
       224        2.0000           -0.3920483             -10.6682
       225        2.0000           -0.3912616             -10.6468
       226        2.0000           -0.3878313             -10.5534
       227        2.0000           -0.3814341             -10.3793
       228        2.0000           -0.3709721             -10.0947
       229        2.0000           -0.3705052             -10.0820
       230        2.0000           -0.3695585             -10.0562
       231        2.0000           -0.3680674             -10.0156
       232        2.0000           -0.3558054              -9.6820
       233        2.0000           -0.3488685              -9.4932
       234        2.0000           -0.3439309              -9.3588 (HOMO)
       235                         -0.2866728              -7.8008 (LUMO)
       236                         -0.2742782              -7.4635
       237                         -0.2518354              -6.8528
       238                         -0.2445131              -6.6535
       239                         -0.2436478              -6.6300
       240                         -0.2371726              -6.4538
       241                         -0.2361651              -6.4264
       242                         -0.2343298              -6.3764
       243                         -0.2274287              -6.1886
       244                         -0.2260499              -6.1511
       245                         -0.2252948              -6.1306
       ...                                ...                  ...
       462                          0.7473303              20.3359
      -------------------------------------------------------------
                  HL-Gap            0.0572581 Eh            1.5581 eV

     #   Z          covCN         q      C6AA      α(0)
     1   6 C        3.761    -0.106    22.575     6.773
     2   6 C        3.903     0.026    20.084     6.370
     3   6 C        3.761    -0.103    22.512     6.764
     4   6 C        3.762    -0.105    22.557     6.770
     5   6 C        2.973    -0.002    28.076     8.691
     6   6 C        2.931    -0.040    29.000     8.832
     7   6 C        2.909    -0.053    29.328     8.880
     8   6 C        3.080     0.042    26.967     8.514
     9   6 C        3.068    -0.020    28.429     8.743
    10   6 C        2.918    -0.043    29.073     8.842
    11   6 C        3.071    -0.020    28.440     8.744
    12   6 C        2.919    -0.043    29.069     8.841
    13   6 C        2.974    -0.001    28.041     8.686
    14   6 C        3.903     0.026    20.074     6.369
    15   6 C        3.761    -0.104    22.535     6.767
    16   6 C        3.761    -0.106    22.574     6.773
    17   6 C        3.762    -0.104    22.532     6.767
    18   6 C        2.931    -0.038    28.943     8.823
    19   6 C        2.909    -0.052    29.290     8.874
    20   6 C        3.077     0.043    26.950     8.511
    21   7 N        2.803    -0.043    22.063     6.976
    22   6 C        2.912     0.065    26.539     8.447
    23   6 C        2.923    -0.045    29.121     8.850
    24   6 C        2.920    -0.038    28.956     8.824
    25   6 C        2.927     0.063    26.599     8.458
    26   7 N        2.753    -0.071    22.612     7.063
    27   6 C        2.925     0.059    26.674     8.470
    28   6 C        2.924    -0.058    29.448     8.899
    29   6 C        2.920    -0.032    28.805     8.801
    30   6 C        2.918    -0.043    29.067     8.841
    31   6 C        2.926    -0.035    28.868     8.811
    32   6 C        2.984    -0.009    28.228     8.715
    33   6 C        3.950     0.013    20.290     6.401
    34   6 C        3.057     0.003    27.908     8.663
    35   6 C        2.914    -0.032    28.792     8.799
    36   6 C        2.923    -0.032    28.798     8.800
    37   6 C        2.921    -0.033    28.817     8.803
    38   6 C        2.915    -0.035    28.861     8.809
    39   6 C        3.036     0.002    27.951     8.672
    40   6 C        3.035    -0.002    28.042     8.686
    41   6 C        2.911    -0.039    28.967     8.825
    42   6 C        3.034    -0.002    28.049     8.687
    43   6 C        3.069     0.001    27.938     8.667
    44   6 C        2.909    -0.036    28.903     8.816
    45   6 C        3.068     0.001    27.931     8.666
    46   6 C        3.951     0.013    20.284     6.400
    47   6 C        3.054     0.002    27.923     8.666
    48   6 C        2.914    -0.032    28.789     8.798
    49   6 C        2.922    -0.032    28.808     8.802
    50   6 C        2.921    -0.033    28.817     8.803
    51   6 C        2.915    -0.035    28.862     8.810
    52   6 C        3.036     0.002    27.948     8.671
    53   6 C        2.988    -0.007    28.178     8.708
    54   6 C        2.925    -0.035    28.881     8.813
    55   6 C        2.917    -0.041    29.024     8.835
    56   6 C        2.920    -0.032    28.806     8.801
    57   6 C        2.923    -0.058    29.450     8.899
    58   6 C        2.922     0.059    26.684     8.471
    59   7 N        2.752    -0.067    22.535     7.051
    60   6 C        2.925     0.072    26.386     8.424
    61   6 C        2.919    -0.040    28.999     8.831
    62   6 C        2.924    -0.025    28.634     8.775
    63   6 C        2.984    -0.004    28.125     8.699
    64   6 C        2.986     0.202    23.722     7.989
    65   7 N        1.843    -0.302    28.686     7.938
    66   6 C        2.983     0.204    23.668     7.980
    67   6 C        2.984    -0.001    28.043     8.687
    68   6 C        2.925    -0.021    28.521     8.758
    69   6 C        2.919    -0.025    28.625     8.774
    70   6 C        2.921    -0.019    28.495     8.754
    71   6 C        2.919    -0.026    28.648     8.777
    72   6 C        2.924    -0.023    28.573     8.766
    73   7 N        1.843    -0.298    28.572     7.922
    74   6 C        2.977     0.212    23.516     7.954
    75   6 C        3.864    -0.026    20.995     6.516
    76   6 C        3.808    -0.058    21.602     6.616
    77   6 C        3.805    -0.055    21.552     6.609
    78   6 C        3.805    -0.055    21.565     6.611
    79   6 C        3.805    -0.051    21.477     6.597
    80   6 C        3.809    -0.056    21.581     6.613
    81   7 N        1.844    -0.295    28.494     7.911
    82   6 C        2.922    -0.025    28.629     8.774
    83   6 C        2.921    -0.039    28.971     8.827
    84   6 C        2.929     0.059    26.688     8.472
    85   6 C        2.924    -0.055    29.376     8.888
    86   6 C        2.920    -0.032    28.799     8.800
    87   6 C        2.918    -0.041    29.013     8.833
    88   6 C        2.925    -0.035    28.874     8.812
    89   6 C        2.984    -0.006    28.153     8.704
    90   6 C        2.983    -0.009    28.233     8.716
    91   6 C        2.926    -0.035    28.864     8.811
    92   6 C        2.917    -0.043    29.074     8.842
    93   6 C        2.920    -0.033    28.816     8.803
    94   6 C        2.924    -0.059    29.461     8.901
    95   6 C        2.927     0.059    26.680     8.471
    96   6 C        2.923    -0.040    28.999     8.831
    97   6 C        2.921    -0.048    29.181     8.858
    98   1 H        0.925     0.034     2.528     2.486
    99   1 H        0.925     0.036     2.509     2.477
   100   1 H        0.925     0.035     2.516     2.481
   101   1 H        0.925     0.035     2.512     2.479
   102   1 H        0.925     0.036     2.506     2.475
   103   1 H        0.925     0.030     2.589     2.516
   104   1 H        0.925     0.036     2.505     2.475
   105   1 H        0.925     0.036     2.506     2.475
   106   1 H        0.925     0.033     2.539     2.492
   107   1 H        0.926     0.029     2.601     2.522
   108   1 H        0.926     0.025     2.652     2.547
   109   1 H        0.926     0.036     2.497     2.471
   110   1 H        0.926     0.037     2.491     2.468
   111   1 H        0.925     0.033     2.537     2.491
   112   1 H        0.925     0.043     2.405     2.425
   113   1 H        0.925     0.029     2.607     2.525
   114   1 H        0.925     0.035     2.520     2.482
   115   1 H        0.925     0.035     2.518     2.481
   116   1 H        0.925     0.036     2.504     2.474
   117   1 H        0.925     0.033     2.546     2.495
   118   1 H        0.925     0.037     2.492     2.469
   119   1 H        0.925     0.034     2.531     2.488
   120   1 H        0.926     0.026     2.644     2.543
   121   1 H        0.926     0.023     2.684     2.562
   122   1 H        0.926     0.046     2.372     2.408
   123   1 H        0.926     0.043     2.409     2.427
   124   1 H        0.926     0.025     2.657     2.549
   125   1 H        0.926     0.029     2.607     2.525
   126   1 H        0.926     0.028     2.618     2.530
   127   1 H        0.926     0.028     2.611     2.527
   128   1 H        0.926     0.025     2.652     2.547
   129   1 H        0.926     0.029     2.598     2.521
   130   1 H        0.926     0.029     2.600     2.522
   131   1 H        0.926     0.030     2.591     2.517
   132   1 H        0.926     0.033     2.546     2.495
   133   1 H        0.926     0.021     2.717     2.578
   134   1 H        0.926     0.027     2.631     2.537
   135   1 H        0.926     0.029     2.594     2.519
   136   1 H        0.926     0.029     2.598     2.521
   137   1 H        0.926     0.030     2.586     2.515
   138   1 H        0.926     0.031     2.572     2.508
   139   1 H        0.926     0.030     2.593     2.518
   140   1 H        0.926     0.030     2.584     2.514
   141   1 H        0.926     0.031     2.575     2.509
   142   1 H        0.926     0.047     2.358     2.401
   143   1 H        0.926     0.062     2.174     2.306
   144   1 H        0.926     0.053     2.278     2.360
   145   1 H        0.926     0.036     2.506     2.475
   146   1 H        0.926     0.036     2.502     2.474
   147   1 H        0.926     0.035     2.522     2.483
   148   1 H        0.926     0.050     2.320     2.382
   149   1 H        0.924     0.053     2.280     2.361
   150   1 H        0.924     0.033     2.539     2.492
   151   1 H        0.924     0.043     2.411     2.428
   152   1 H        0.924     0.028     2.617     2.530
   153   1 H        0.924     0.038     2.472     2.459
   154   1 H        0.924     0.026     2.641     2.541
   155   1 H        0.924     0.032     2.563     2.504
   156   1 H        0.924     0.026     2.644     2.543
   157   1 H        0.924     0.028     2.619     2.531
   158   1 H        0.924     0.046     2.377     2.411
   159   1 H        0.924     0.036     2.507     2.476
   160   1 H        0.926     0.059     2.206     2.323
   161   1 H        0.925     0.042     2.429     2.437
   162   1 H        0.926     0.027     2.623     2.533
   163   1 H        0.926     0.031     2.573     2.508
   164   1 H        0.926     0.030     2.582     2.513
   165   1 H        0.926     0.032     2.556     2.500
   166   1 H        0.926     0.028     2.613     2.528
   167   1 H        0.926     0.028     2.622     2.532
   168   1 H        0.926     0.028     2.612     2.527
   169   1 H        0.926     0.024     2.666     2.553
   170   1 H        0.926     0.045     2.379     2.412
   171   1 H        0.926     0.062     2.181     2.309

molecular dipole:
                 x           y           z       tot (Debye)
 q only:        1.083       0.110       0.084
   full:        0.991       0.069       0.018       2.526

 projected vibrational frequencies (cm⁻¹)
eigval :       -0.00    -0.00    -0.00    -0.00     0.00     0.00
eigval :        4.49    10.48    12.61    13.95    14.82    16.84
eigval :       19.99    24.26    29.88    31.35    36.50    39.89
eigval :       41.99    42.44    48.12    48.69    53.41    55.85
eigval :       56.76    59.05    64.16    65.01    66.06    68.56
eigval :       70.71    74.09    82.34    90.68    92.08    97.92
eigval :      103.08   103.93   106.97   111.52   113.73   115.23
eigval :      120.85   128.18   131.01   144.18   149.29   156.62
eigval :      161.80   162.56   168.32   174.82   181.36   181.91
eigval :      185.41   193.64   194.17   202.64   204.10   208.50
eigval :      217.42   219.56   223.46   231.19   236.04   241.49
eigval :      244.50   246.85   254.38   256.97   260.75   266.34
eigval :      270.14   277.28   284.73   286.06   292.52   303.28
eigval :      308.94   318.16   319.46   322.58   326.20   339.03
eigval :      342.75   345.97   352.82   359.30   361.50   369.93
eigval :      370.55   372.59   375.48   382.74   384.41   391.95
eigval :      394.02   394.63   399.61   400.00   402.34   404.96
eigval :      406.96   413.19   413.36   420.15   425.40   429.25
eigval :      432.44   432.82   443.13   444.91   449.03   450.73
eigval :      457.36   462.46   465.75   467.57   468.13   471.40
eigval :      475.94   480.48   484.63   492.45   499.20   506.63
eigval :      511.23   511.70   515.22   515.80   520.30   526.12
eigval :      529.63   547.75   560.27   571.46   578.79   580.76
eigval :      585.01   587.75   589.30   591.70   595.55   599.09
eigval :      600.06   602.96   607.99   611.06   612.01   616.19
eigval :      626.42   633.17   634.10   640.51   640.85   646.94
eigval :      650.62   660.69   667.63   672.94   677.35   679.67
eigval :      681.09   687.43   690.28   693.47   699.17   703.45
eigval :      706.34   713.16   719.67   722.87   725.61   729.75
eigval :      732.03   734.69   749.08   763.00   771.10   773.76
eigval :      775.97   777.12   778.34   778.87   791.67   816.97
eigval :      817.01   819.60   821.65   829.18   833.07   836.37
eigval :      844.13   847.30   854.13   864.11   864.77   867.25
eigval :      868.80   870.51   872.95   873.35   874.00   874.96
eigval :      875.63   875.92   878.14   879.16   882.42   889.76
eigval :      898.10   899.94   901.11   906.34   907.82   908.35
eigval :      909.33   909.43   909.75   910.42   911.27   912.02
eigval :      913.28   918.79   919.50   920.04   920.35   922.05
eigval :      922.47   925.70   926.47   927.14   927.79   928.35
eigval :      929.52   930.91   934.72   937.58   938.58   944.05
eigval :      946.18   949.10   953.33   956.12   958.50   959.19
eigval :      960.00   960.48   961.74   963.17   965.02   971.42
eigval :      990.05  1002.22  1005.20  1007.35  1017.61  1023.39
eigval :     1031.52  1035.20  1035.64  1039.76  1043.39  1054.04
eigval :     1075.11  1077.25  1078.26  1083.15  1085.78  1095.36
eigval :     1101.12  1104.68  1107.37  1108.32  1108.77  1109.05
eigval :     1111.39  1112.46  1117.36  1124.31  1125.16  1126.26
eigval :     1129.43  1130.77  1134.82  1136.10  1138.17  1144.22
eigval :     1145.61  1148.45  1165.22  1174.79  1176.78  1178.07
eigval :     1179.52  1179.75  1180.13  1182.08  1183.18  1184.58
eigval :     1185.16  1185.79  1185.84  1187.68  1196.29  1199.03
eigval :     1204.68  1205.18  1209.90  1215.81  1217.23  1221.09
eigval :     1227.68  1229.04  1232.05  1232.18  1232.57  1234.18
eigval :     1235.32  1238.22  1238.84  1246.31  1247.39  1251.08
eigval :     1252.45  1255.51  1257.93  1259.38  1261.87  1263.43
eigval :     1268.43  1268.68  1270.61  1272.54  1274.03  1279.37
eigval :     1286.53  1288.32  1303.87  1304.16  1308.53  1310.66
eigval :     1314.36  1319.04  1320.25  1327.24  1327.96  1328.88
eigval :     1331.34  1331.53  1332.51  1334.75  1336.26  1343.80
eigval :     1344.98  1348.34  1350.08  1353.35  1357.49  1358.35
eigval :     1361.01  1361.18  1373.36  1376.92  1381.98  1386.74
eigval :     1401.65  1404.32  1406.01  1407.18  1407.36  1409.10
eigval :     1417.61  1420.37  1425.88  1429.60  1430.56  1435.02
eigval :     1437.93  1438.11  1438.57  1440.03  1445.27  1446.67
eigval :     1457.43  1468.55  1469.26  1472.80  1474.50  1477.12
eigval :     1481.70  1483.91  1484.81  1487.27  1487.64  1488.78
eigval :     1490.54  1491.02  1491.54  1492.61  1493.88  1494.69
eigval :     1495.25  1496.50  1501.30  1501.79  1504.27  1506.25
eigval :     1509.48  1513.50  1514.61  1519.89  1520.66  1521.44
eigval :     1524.98  1558.88  1563.21  1573.04  1574.07  1574.28
eigval :     1575.55  1583.80  1585.53  1586.55  1587.88  1588.81
eigval :     1589.57  1590.75  1591.06  1593.33  1595.41  1597.23
eigval :     1598.66  1601.87  1603.13  1605.09  1605.93  1606.70
eigval :     1620.35  2912.58  2957.69  2963.12  2965.82  2971.67
eigval :     2974.33  2981.13  2983.28  2995.08  2999.82  3001.02
eigval :     3018.19  3020.73  3021.10  3021.74  3025.65  3026.66
eigval :     3028.09  3029.20  3030.75  3033.88  3034.98  3036.63
eigval :     3038.63  3039.24  3041.26  3042.38  3047.25  3050.89
eigval :     3071.45  3071.65  3072.65  3075.56  3076.91  3077.01
eigval :     3077.55  3078.11  3078.24  3078.28  3079.75  3080.40
eigval :     3080.58  3080.79  3081.70  3082.12  3082.43  3083.80
eigval :     3084.92  3085.88  3086.91  3087.13  3088.41  3090.99
eigval :     3091.29  3092.10  3093.04  3093.42  3093.66  3094.58
eigval :     3094.84  3096.40  3098.38  3099.32  3099.93  3100.76
eigval :     3100.88  3105.93  3106.02  3109.11  3110.06  3110.38
eigval :     3112.69  3116.75  3120.40

   temp. (K)  partition function   enthalpy   heat capacity  entropy
                                   cal/mol     cal/K/mol   cal/K/mol   J/K/mol
 298.15  VIB  0.133E+39            48915.406    306.627    305.867
         ROT  0.477E+09              888.752      2.981     42.693
         INT  0.633E+47            49804.158    309.607    348.560
         TR   0.428E+29             1481.254      4.968     47.229
         TOT                       51285.4121   314.5756   395.7893  1655.9824

       T/K    H(0)-H(T)+PV         H(T)/Eh          T*S/Eh         G(T)/Eh
   ------------------------------------------------------------------------
    298.15    0.817285E-01    0.145395E+01    0.188052E+00    0.126590E+01
   ------------------------------------------------------------------------

         :::::::::::::::::::::::::::::::::::::::::::::::::::::
         ::                  THERMODYNAMIC                  ::
         :::::::::::::::::::::::::::::::::::::::::::::::::::::
         :: total free energy        -249.128085665876 Eh   ::
         ::.................................................::
         :: total energy             -250.393985928990 Eh   ::
         :: zero point energy           1.372224022065 Eh   ::
         :: G(RRHO) w/o ZPVE           -0.106323758950 Eh   ::
         :: G(RRHO) contrib.            1.265900263115 Eh   ::
         :::::::::::::::::::::::::::::::::::::::::::::::::::::

           -------------------------------------------------
          | TOTAL ENERGY             -250.393985928990 Eh   |
          | TOTAL ENTHALPY           -248.940033400443 Eh   |
          | TOTAL FREE ENERGY        -249.128085665876 Eh   |
          | GRADIENT NORM               0.000050434277 Eh/α |
          | HOMO-LUMO GAP               1.558072995712 eV   |
           -------------------------------------------------

 * finished run on 2025/09/09 at 00:46:29.192
