   * xtb version 6.7.1 (edcfbbe) compiled by 'albert@albert-system' on 2024-07-22

   ID    Z sym.   atoms
    1    6 C      1-4, 6-21, 23-36, 38-48
    2    7 N      5, 22, 37
    3    1 H      49-79

          program call               : xtb data2507/gas/mTPA–PPI/mTPA–PPI_gas_S0_finalOpt.xtbopt.xyz --gfn 2 --spinpol --tblite --uhf 2 --ohess vtight --parallel 40 --molden --ceasefiles --namespace data2507/gas/mTPA–PPI/mTPA–PPI_gas_T1_preOpt
 * total energy  :  -120.8881711 Eh     change        0.5305560E-07 Eh
 * total energy  :  -120.8932058 Eh     change       -0.5034760E-02 Eh
 * total energy  :  -120.8957516 Eh     change       -0.2545732E-02 Eh
 * total energy  :  -120.8961766 Eh     change       -0.4250473E-03 Eh
 * total energy  :  -120.8968424 Eh     change       -0.6657736E-03 Eh
 * total energy  :  -120.8970825 Eh     change       -0.2400790E-03 Eh
 * total energy  :  -120.8973025 Eh     change       -0.2200370E-03 Eh
 * total energy  :  -120.8974445 Eh     change       -0.1420339E-03 Eh
 * total energy  :  -120.8975473 Eh     change       -0.1027924E-03 Eh
 * total energy  :  -120.8976295 Eh     change       -0.8215916E-04 Eh
 * total energy  :  -120.8982084 Eh     change       -0.1219799E-05 Eh
 * total energy  :  -120.8982097 Eh     change       -0.1328694E-05 Eh
 * total energy  :  -120.8982112 Eh     change       -0.1497271E-05 Eh
 * total energy  :  -120.8982128 Eh     change       -0.1539291E-05 Eh
 * total energy  :  -120.8982142 Eh     change       -0.1464458E-05 Eh
 * total energy  :  -120.8982153 Eh     change       -0.1084855E-05 Eh
 * total energy  :  -120.8982160 Eh     change       -0.6867406E-06 Eh
 * total energy  :  -120.8982160 Eh     change        0.1253224E-07 Eh
 * total energy  :  -120.8982160 Eh     change       -0.1760505E-07 Eh
   *** GEOMETRY OPTIMIZATION CONVERGED AFTER 69 ITERATIONS ***

 final structure:
================
79
 xtb: 6.7.1 (edcfbbe)
C            7.32970579514117        3.49024507307511        1.44676655806712
C            6.58124133260523        2.61210971189915        2.21389309290039
C            6.07464143113042        1.45363315514125        1.65851059192981
C            6.30650196026305        1.15951769336418        0.31436455762534
N            5.79508462500120       -0.01107448775807       -0.25429498610273
C            6.54050812750873       -0.70449458044123       -1.21416402120738
C            5.90621038310698       -1.30924087106559       -2.29979633725244
C            6.64582498031568       -1.99616650508164       -3.24225350783405
C            8.02339452889490       -2.08637478216219       -3.12439563228939
C            8.65842584607849       -1.48453188416201       -2.05005851120540
C            7.92740959639735       -0.80109318418232       -1.09825307154791
C            4.53930326139818       -0.48902662999261        0.13059808364599
C            4.30114527646694       -1.86126851015059        0.22693411749709
C            3.06016047047487       -2.33042228635625        0.59864726005984
C            2.01272824613443       -1.45426875282180        0.88745599849481
C            0.68759238312928       -1.95601871470308        1.26409744332344
C            0.55729373848075       -3.12200405927182        2.04314255620379
C           -0.70930427043383       -3.62528555939947        2.33351807580729
C           -1.83785698368183       -2.98085380217570        1.90368805183554
C           -1.74060402640084       -1.75960999811581        1.16961269518339
C           -2.93468906221867       -1.13249570434246        0.78450108285487
N           -4.11659722279944       -1.78494804998326        0.75650760058233
C           -4.99558790666451       -0.96732148941047        0.21539133307812
C           -6.36106400482725       -1.24080562001563       -0.09355165826276
C           -6.89598710180211       -2.51138150390696        0.12081536596178
C           -8.20521954391648       -2.78522943582643       -0.22174942525282
C           -8.97720291477834       -1.78369945003420       -0.79035242746086
C           -8.45665707258941       -0.51858014488233       -0.99978391559254
C           -7.14003127205596       -0.19980893344827       -0.65023208331462
C           -6.57503237752936        1.13095751545749       -0.81753004818711
C           -7.35102846243349        2.20082142060663       -1.25276902520997
C           -6.84574321230903        3.48194825436040       -1.37993739366299
C           -5.51518196991952        3.74151253293295       -1.04261883137398
C           -4.70863483877704        2.72406319680824       -0.61644348899393
C           -5.19000739167244        1.39209035754938       -0.50735177526523
C           -4.41030248308333        0.31879873902160       -0.07465404280402
N           -3.08834707701669        0.19306850399516        0.29270976916368
C           -2.08902157090154        1.16957575047208        0.32479271761263
C           -1.46088039290756        1.47675048990389        1.53385572537340
C           -0.44756895168516        2.41418343715234        1.56453048354575
C           -0.04613101771663        3.05209276180068        0.39973697145510
C           -0.66757177947721        2.74702131513582       -0.80261924892563
C           -1.68300104350056        1.81243304132410       -0.84697607345101
C           -0.44510096430510       -1.29349724569073        0.84082980703298
C            2.26112769560775       -0.08321714512526        0.79582386074167
C            3.49872959881287        0.39416614604695        0.42389457421550
C            7.05714408964736        2.04943644945338       -0.45484035943697
C            7.56526647657254        3.20154188456846        0.11227202235031
H            7.72666734512899        4.39285893364894        1.88561620195384
H            6.39765313535588        2.82626929872716        3.25641851275454
H            5.50180433954777        0.76447617803096        2.26143520448912
H            4.83357037224632       -1.23030612848705       -2.39905876610087
H            6.14320787066540       -2.45731549365150       -4.07953639117864
H            8.59800849398529       -2.62204994617932       -3.86446459534811
H            9.73117687559993       -1.55507082414106       -1.94714044444666
H            8.42305150141090       -0.34256967998227       -0.25509508359530
H            5.10018884548066       -2.55511412939656        0.00952698622014
H            2.89333440021154       -3.39602702637889        0.64942094764882
H            1.43728410548600       -3.61980688520058        2.41942873591307
H           -0.79635228752650       -4.53546661120955        2.90962917795956
H           -2.82375255174705       -3.35706810708958        2.12159021900221
H           -6.25397869564779       -3.26393174748759        0.55117379502884
H           -8.62099957378083       -3.76769809118857       -0.05636840429267
H           -9.99955488095202       -1.98780408418365       -1.07475619535413
H           -9.09798946152265        0.22284905249480       -1.44893135880464
H           -8.39109423478833        2.04654766103425       -1.49263520756922
H           -7.48409199999085        4.28203818363239       -1.72260835467002
H           -5.12730693902984        4.74721201330021       -1.11221819315472
H           -3.69153114852041        2.93702052470482       -0.33224663574007
H           -1.77526411890638        0.97269174442687        2.43556778220326
H            0.03107541259918        2.65195112256479        2.50335799296694
H            0.75010076150747        3.78039811025739        0.42776328182554
H           -0.35202984434991        3.23535683357201       -1.71273487148526
H           -2.16308577418664        1.56189424163042       -1.78187264081476
H           -0.33633605590066       -0.44915591652128        0.18028486378890
H            1.47421229090662        0.61886312578296        1.02764312597216
H            3.66780582389895        1.45861538916836        0.35042812405979
H            7.23215192003983        1.83244430792803       -1.49843451148655
H            8.14252763160809        3.88312523381129       -0.49489863497172

 projected vibrational frequencies (cm⁻¹)
eigval :       -0.00    -0.00    -0.00     0.00     0.00     0.00
eigval :        9.37    10.15    16.79    22.16    30.36    41.39
eigval :       41.67    51.23    58.28    59.21    64.65    70.89
eigval :       75.86    84.08    93.26   105.11   109.84   131.89
eigval :      144.12   160.35   190.04   192.83   207.09   215.69
eigval :      225.68   235.25   237.79   256.87   260.03   277.74
eigval :      293.58   309.99   312.87   342.51   362.36   374.27
eigval :      376.64   378.11   381.47   385.56   388.16   389.77
eigval :      396.03   402.19   411.10   430.25   435.73   457.15
eigval :      474.16   479.42   482.78   495.63   506.97   516.61
eigval :      520.08   537.46   580.13   580.19   581.94   587.31
eigval :      591.94   594.09   601.05   613.04   621.19   629.16
eigval :      636.53   643.36   654.68   659.58   659.93   661.95
eigval :      666.44   685.34   687.88   693.43   718.23   722.06
eigval :      744.77   751.22   755.54   757.12   759.06   767.83
eigval :      768.52   815.77   823.32   840.33   841.47   851.65
eigval :      858.07   869.37   872.77   873.74   875.60   886.68
eigval :      890.63   893.22   894.36   907.15   908.73   909.62
eigval :      910.62   912.85   914.51   918.21   918.75   925.53
eigval :      927.54   928.04   928.39   929.21   929.54   930.81
eigval :      935.84   951.11   979.09   983.07   991.66  1004.38
eigval :     1016.62  1041.22  1073.94  1075.35  1080.12  1082.66
eigval :     1083.53  1086.39  1099.18  1116.48  1120.80  1121.87
eigval :     1124.12  1130.61  1145.80  1149.54  1169.94  1174.62
eigval :     1178.44  1178.99  1180.12  1180.24  1183.47  1183.79
eigval :     1187.41  1194.45  1196.29  1202.59  1217.00  1232.06
eigval :     1244.44  1256.62  1262.24  1272.28  1272.80  1274.98
eigval :     1277.68  1278.64  1283.84  1312.31  1317.81  1318.00
eigval :     1319.45  1323.77  1327.17  1327.51  1331.37  1344.39
eigval :     1348.07  1354.08  1376.04  1390.53  1397.03  1408.68
eigval :     1414.03  1429.27  1433.24  1435.19  1440.38  1442.19
eigval :     1468.24  1469.39  1471.05  1473.52  1479.77  1494.61
eigval :     1504.58  1534.05  1543.55  1548.18  1550.76  1552.44
eigval :     1556.74  1566.69  1574.23  1578.11  1582.69  1590.10
eigval :     1590.22  1597.59  3071.95  3073.25  3076.52  3076.92
eigval :     3077.74  3078.34  3078.37  3078.57  3079.14  3079.71
eigval :     3081.05  3086.70  3087.51  3087.57  3088.44  3088.50
eigval :     3090.32  3091.14  3091.62  3092.13  3094.60  3095.47
eigval :     3097.22  3097.99  3098.99  3099.34  3106.75  3108.02
eigval :     3116.76  3117.53  3125.02

   temp. (K)  partition function   enthalpy   heat capacity  entropy
                                   cal/mol     cal/K/mol   cal/K/mol   J/K/mol
 298.15  VIB  0.343E+18            22313.030    142.243    139.300
         ROT  0.912E+08              888.752      2.981     39.404
         INT  0.313E+26            23201.783    145.224    178.704
         TR   0.147E+29             1481.254      4.968     45.106
         TOT                       24683.0368   150.1919   223.8095   936.4190

       T/K    H(0)-H(T)+PV         H(T)/Eh          T*S/Eh         G(T)/Eh
   ------------------------------------------------------------------------
    298.15    0.393349E-01    0.646665E+00    0.106339E+00    0.540326E+00
   ------------------------------------------------------------------------

         :::::::::::::::::::::::::::::::::::::::::::::::::::::
         ::                  THERMODYNAMIC                  ::
         :::::::::::::::::::::::::::::::::::::::::::::::::::::
         :: total free energy        -120.357890182529 Eh   ::
         ::.................................................::
         :: total energy             -120.898215966708 Eh   ::
         :: zero point energy           0.607329979986 Eh   ::
         :: G(RRHO) w/o ZPVE           -0.067004195808 Eh   ::
         :: G(RRHO) contrib.            0.540325784178 Eh   ::
         :::::::::::::::::::::::::::::::::::::::::::::::::::::

           -------------------------------------------------
          | TOTAL ENERGY             -120.898215966708 Eh   |
          | TOTAL ENTHALPY           -120.251551063863 Eh   |
          | TOTAL FREE ENERGY        -120.357890182529 Eh   |
          | GRADIENT NORM               0.000080402908 Eh/α |
           -------------------------------------------------

 * finished run on 2025/09/07 at 05:07:05.993
