   * xtb version 6.7.1 (edcfbbe) compiled by 'albert@albert-system' on 2024-07-22

   ID    Z sym.   atoms
    1    6 C      1-4, 6-21, 23-36, 38-48
    2    7 N      5, 22, 37
    3    1 H      49-79

          program call               : xtb data2507/gas/mTPA–PPI/mTPA–PPI_gas_S0_crest.xyz --gfn 2 --ohess vtight --parallel 40 --molden --ceasefiles --namespace data2507/gas/mTPA–PPI/mTPA–PPI_gas_S0_finalOpt
          :  Hamiltonian                  GFN2-xTB          :
 * total energy  :  -120.9886355 Eh     change       -0.1182485E-08 Eh
 * total energy  :  -120.9886367 Eh     change       -0.1246818E-05 Eh
 * total energy  :  -120.9886394 Eh     change       -0.2697623E-05 Eh
 * total energy  :  -120.9886456 Eh     change       -0.6207392E-05 Eh
 * total energy  :  -120.9886539 Eh     change       -0.8300859E-05 Eh
 * total energy  :  -120.9886591 Eh     change       -0.5159842E-05 Eh
 * total energy  :  -120.9886615 Eh     change       -0.2467654E-05 Eh
 * total energy  :  -120.9886634 Eh     change       -0.1901639E-05 Eh
 * total energy  :  -120.9886657 Eh     change       -0.2234629E-05 Eh
 * total energy  :  -120.9886679 Eh     change       -0.2231385E-05 Eh
 * total energy  :  -120.9886928 Eh     change       -0.8150606E-06 Eh
 * total energy  :  -120.9886937 Eh     change       -0.9122111E-06 Eh
 * total energy  :  -120.9886947 Eh     change       -0.1032464E-05 Eh
 * total energy  :  -120.9886959 Eh     change       -0.1218263E-05 Eh
 * total energy  :  -120.9886973 Eh     change       -0.1389451E-05 Eh
 * total energy  :  -120.9886986 Eh     change       -0.1280416E-05 Eh
 * total energy  :  -120.9886996 Eh     change       -0.9410943E-06 Eh
 * total energy  :  -120.9887002 Eh     change       -0.6399658E-06 Eh
 * total energy  :  -120.9887002 Eh     change       -0.3460926E-08 Eh
   *** GEOMETRY OPTIMIZATION CONVERGED AFTER 44 ITERATIONS ***

 final structure:
================
79
 xtb: 6.7.1 (edcfbbe)
C            7.16270063279436        3.66881091822866        1.02944255434415
C            6.43118591914742        2.85387871899598        1.87790554653545
C            5.96819179760332        1.62706294297692        1.44407347033644
C            6.22534784007179        1.19921373557721        0.14156452699367
N            5.75596365310426       -0.04160752049443       -0.30435919780235
C            6.54090604630761       -0.81433806276434       -1.16896087854841
C            5.94858518817167       -1.55015896338041       -2.19502723329811
C            6.72738364654838       -2.31302449266333       -3.04310974376854
C            8.10374640852477       -2.34899565850594       -2.89054263966145
C            8.69741094339351       -1.61623468359292       -1.87585233984615
C            7.92648397090918       -0.85730772345087       -1.01703102712228
C            4.50538700044192       -0.50725664613737        0.10934716301172
C            4.29446429140975       -1.86580508745287        0.34864771236813
C            3.05801947015807       -2.32132587804596        0.75457265073039
C            1.99201880705160       -1.44238144337283        0.93781417934526
C            0.67305637358804       -1.92272797850905        1.36929119236547
C            0.54836338856342       -2.93366209745296        2.32020100303851
C           -0.70260610636305       -3.37825904193274        2.70990328608342
C           -1.84435142978488       -2.80844185663643        2.18080354310256
C           -1.73980425782807       -1.77836340483232        1.24615518734933
C           -2.96386122892683       -1.19335571615414        0.72116403844225
N           -4.05406741116664       -1.88075505389841        0.49499406373941
C           -4.96209708249650       -0.99539472511766        0.00751925722787
C           -6.29016417883747       -1.25904142553030       -0.42873920299132
C           -6.81735834162465       -2.55440367846190       -0.40224314751973
C           -8.08936693501741       -2.79415268341840       -0.85794124082764
C           -8.85014720340288       -1.73589091149373       -1.35119590688675
C           -8.34367127591579       -0.45756826608399       -1.37652135588683
C           -7.05118050549162       -0.16999464105437       -0.91138029051297
C           -6.49945002284042        1.17378142806237       -0.89366285999038
C           -7.25691098289501        2.28416445634694       -1.29267398018076
C           -6.75975987345229        3.56465590310118       -1.23913946080074
C           -5.47342746379707        3.79441796140472       -0.76192421367740
C           -4.69527053995408        2.73401560261921       -0.36831207859171
C           -5.17282181131323        1.41757607737883       -0.44214541558589
C           -4.40881656107154        0.28272556890870       -0.04933654089015
N           -3.11630216043810        0.14011295911266        0.40356963716498
C           -2.11321419040133        1.12013271563579        0.53489641574786
C           -1.60242809359340        1.41768753274545        1.79292057178892
C           -0.58561833066544        2.34749447215984        1.91692267671965
C           -0.07756483184812        2.97994411280610        0.79390055593467
C           -0.58847799800031        2.68289182276604       -0.45984676722613
C           -1.60266184734384        1.75314278188270       -0.59508496332850
C           -0.48016992170317       -1.36087626126377        0.83111382980122
C            2.20920169588649       -0.08566740613212        0.70033902732378
C            3.44153027555799        0.37711927130799        0.29167254626807
C            6.95887368665991        2.02539789103442       -0.70977417507058
C            7.42505775976878        3.24663978128078       -0.26360380859590
H            7.52612925545155        4.62521454179404        1.37347386312021
H            6.22698614300416        3.17160473658677        2.88996405793284
H            5.40735580634166        0.98893930345791        2.11133844002610
H            4.87642900098734       -1.51578105714356       -2.32248292929143
H            6.25598393963783       -2.87673913730651       -3.83476653907629
H            8.70924094751524       -2.94360462239269       -3.55752934782124
H            9.76937699145655       -1.64217273629042       -1.74591544917697
H            8.39094865734631       -0.29440578532435       -0.22054812819939
H            5.11012956649607       -2.56117924833342        0.21442817911524
H            2.91210118081768       -3.37871087232972        0.91910768700430
H            1.43515641506008       -3.36309550075867        2.76252836411479
H           -0.78677593499552       -4.17016390337157        3.43979415439784
H           -2.82578606717046       -3.14248454859419        2.47789792905558
H           -6.19048887916379       -3.34575293621095       -0.02161413581078
H           -8.50023344514937       -3.79286943176987       -0.84135122265078
H           -9.84953567538238       -1.92078683294218       -1.71825397178497
H           -8.96862756532747        0.32830943481480       -1.77026756490404
H           -8.26591389910890        2.14557405900409       -1.64595342245798
H           -7.37397112311130        4.39493202097146       -1.55543872275227
H           -5.08921700155332        4.80171122929443       -0.69638993858760
H           -3.70602307638130        2.91949940330507        0.01918123864380
H           -2.00142412055781        0.91513935233145        2.66135465750646
H           -0.18738494882308        2.57626084290895        2.89395925531184
H            0.71924987134745        3.70138678490463        0.89441397345052
H           -0.19122572856492        3.17163057656174       -1.33670325233593
H           -2.00589288599771        1.51074102484477       -1.56761963105882
H           -0.38387181723173       -0.61869711806786        0.05353259516827
H            1.40412920197999        0.61872755094232        0.84995326952585
H            3.58878022310340        1.43140093109409        0.10781888703259
H            7.15698864245343        1.70301798954233       -1.72157365270006
H            7.99058600222828        3.87705971358160       -0.93403492948667

          :  Hamiltonian                  GFN2-xTB          :
         :: gradient norm              0.000044169342 Eh/a0 ::
         :: HOMO-LUMO gap              2.504908229105 eV    ::
         :: SCC energy              -123.280393687304 Eh    ::
         :: -> dispersion             -0.113453006606 Eh    ::
         :: repulsion energy           2.291693493172 Eh    ::

    * Orbital Energies and Occupations

         #    Occupation            Energy/Eh            Energy/eV
      -------------------------------------------------------------
         1        2.0000           -0.6839383             -18.6109
       ...           ...                  ...                  ...
       101        2.0000           -0.4119032             -11.2085
       102        2.0000           -0.4097558             -11.1500
       103        2.0000           -0.4088951             -11.1266
       104        2.0000           -0.4059246             -11.0458
       105        2.0000           -0.4054791             -11.0336
       106        2.0000           -0.4046705             -11.0116
       107        2.0000           -0.4020489             -10.9403
       108        2.0000           -0.3948438             -10.7442
       109        2.0000           -0.3910410             -10.6408
       110        2.0000           -0.3776550             -10.2765
       111        2.0000           -0.3730452             -10.1511
       112        2.0000           -0.3602827              -9.8038
       113        2.0000           -0.3498865              -9.5209 (HOMO)
       114                         -0.2578328              -7.0160 (LUMO)
       115                         -0.2480130              -6.7488
       116                         -0.2466839              -6.7126
       117                         -0.2417046              -6.5771
       118                         -0.2391806              -6.5084
       119                         -0.2355986              -6.4110
       120                         -0.2317537              -6.3063
       121                         -0.2286636              -6.2223
       122                         -0.2231365              -6.0719
       123                         -0.2227584              -6.0616
       124                         -0.2143513              -5.8328
       ...                                ...                  ...
       223                          0.7317325              19.9115
      -------------------------------------------------------------
                  HL-Gap            0.0920537 Eh            2.5049 eV

     #   Z          covCN         q      C6AA      α(0)
     1   6 C        2.919    -0.039    28.961     8.825
     2   6 C        2.920    -0.030    28.738     8.791
     3   6 C        2.922    -0.048    29.186     8.859
     4   6 C        2.924     0.065    26.541     8.449
     5   7 N        2.752    -0.075    22.697     7.076
     6   6 C        2.924     0.065    26.545     8.449
     7   6 C        2.922    -0.047    29.177     8.858
     8   6 C        2.920    -0.029    28.728     8.789
     9   6 C        2.919    -0.038    28.948     8.823
    10   6 C        2.920    -0.029    28.729     8.790
    11   6 C        2.922    -0.047    29.177     8.858
    12   6 C        2.924     0.064    26.568     8.453
    13   6 C        2.921    -0.049    29.213     8.863
    14   6 C        2.924    -0.034    28.841     8.807
    15   6 C        2.976     0.001    28.011     8.681
    16   6 C        2.975     0.010    27.779     8.645
    17   6 C        2.924    -0.035    28.871     8.812
    18   6 C        2.917    -0.029    28.717     8.788
    19   6 C        2.927    -0.030    28.759     8.795
    20   6 C        2.973     0.002    27.980     8.677
    21   6 C        3.193     0.128    24.742     8.111
    22   7 N        1.895    -0.290    28.376     7.897
    23   6 C        3.209     0.057    26.130     8.323
    24   6 C        2.986     0.003    27.954     8.673
    25   6 C        2.922    -0.031    28.778     8.797
    26   6 C        2.917    -0.030    28.757     8.794
    27   6 C        2.917    -0.033    28.824     8.804
    28   6 C        2.922    -0.035    28.869     8.811
    29   6 C        2.979    -0.002    28.062     8.689
    30   6 C        2.980     0.002    27.980     8.677
    31   6 C        2.922    -0.034    28.842     8.807
    32   6 C        2.916    -0.034    28.836     8.806
    33   6 C        2.917    -0.032    28.798     8.800
    34   6 C        2.919    -0.040    29.002     8.831
    35   6 C        2.978    -0.002    28.068     8.690
    36   6 C        3.073     0.020    27.496     8.598
    37   7 N        2.841    -0.047    22.137     6.988
    38   6 C        2.913     0.070    26.431     8.430
    39   6 C        2.922    -0.037    28.928     8.820
    40   6 C        2.920    -0.025    28.635     8.775
    41   6 C        2.919    -0.029    28.734     8.790
    42   6 C        2.920    -0.027    28.666     8.780
    43   6 C        2.921    -0.036    28.900     8.816
    44   6 C        2.929    -0.040    29.005     8.832
    45   6 C        2.924    -0.035    28.875     8.812
    46   6 C        2.921    -0.049    29.217     8.864
    47   6 C        2.922    -0.048    29.183     8.859
    48   6 C        2.920    -0.029    28.732     8.790
    49   1 H        0.926     0.030     2.585     2.514
    50   1 H        0.926     0.031     2.572     2.508
    51   1 H        0.926     0.031     2.567     2.506
    52   1 H        0.926     0.032     2.564     2.504
    53   1 H        0.926     0.032     2.558     2.501
    54   1 H        0.926     0.031     2.577     2.510
    55   1 H        0.926     0.032     2.561     2.503
    56   1 H        0.926     0.032     2.563     2.503
    57   1 H        0.926     0.033     2.543     2.494
    58   1 H        0.926     0.035     2.514     2.480
    59   1 H        0.926     0.034     2.528     2.487
    60   1 H        0.926     0.035     2.512     2.479
    61   1 H        0.926     0.050     2.316     2.380
    62   1 H        0.926     0.050     2.315     2.379
    63   1 H        0.926     0.030     2.593     2.518
    64   1 H        0.926     0.027     2.625     2.534
    65   1 H        0.926     0.030     2.587     2.515
    66   1 H        0.926     0.034     2.532     2.488
    67   1 H        0.926     0.028     2.616     2.529
    68   1 H        0.926     0.026     2.642     2.542
    69   1 H        0.926     0.025     2.662     2.552
    70   1 H        0.926     0.040     2.452     2.449
    71   1 H        0.926     0.040     2.453     2.449
    72   1 H        0.926     0.039     2.468     2.457
    73   1 H        0.926     0.040     2.451     2.448
    74   1 H        0.926     0.043     2.415     2.430
    75   1 H        0.926     0.028     2.613     2.528
    76   1 H        0.926     0.029     2.597     2.520
    77   1 H        0.926     0.031     2.578     2.511
    78   1 H        0.926     0.032     2.563     2.504
    79   1 H        0.926     0.032     2.565     2.504

molecular dipole:
                 x           y           z       tot (Debye)
 q only:        1.008       0.549       0.166
   full:        1.103       0.996       0.107       3.788

 projected vibrational frequencies (cm⁻¹)
eigval :       -0.00     0.00     0.00     0.00     0.00     0.00
eigval :        8.46    10.32    17.08    25.32    29.84    39.97
eigval :       41.60    52.41    56.67    57.98    66.09    70.06
eigval :       81.16    81.83    91.99   103.41   106.53   131.25
eigval :      145.52   165.84   191.31   196.39   213.10   218.22
eigval :      233.71   237.08   240.98   261.15   267.66   277.87
eigval :      295.16   311.99   337.86   344.31   365.26   374.43
eigval :      376.65   378.21   378.76   387.63   392.78   398.20
eigval :      404.01   428.27   435.85   441.90   442.66   475.54
eigval :      479.66   485.11   492.57   512.30   517.63   521.73
eigval :      535.25   567.90   582.27   584.75   586.30   590.82
eigval :      595.94   596.63   613.64   635.12   638.89   647.62
eigval :      655.27   659.91   664.36   665.74   671.92   680.20
eigval :      686.57   689.80   693.89   703.35   726.52   735.40
eigval :      757.18   758.60   762.10   766.48   774.42   782.58
eigval :      793.44   820.74   828.25   862.59   871.49   874.79
eigval :      874.84   875.81   876.75   891.13   892.42   893.55
eigval :      898.89   902.03   907.54   909.98   914.23   917.87
eigval :      919.03   923.86   927.25   927.32   927.72   928.84
eigval :      929.13   929.29   929.74   931.76   932.78   939.29
eigval :      955.11   976.54   987.02  1005.04  1011.36  1018.55
eigval :     1030.00  1068.98  1078.91  1083.29  1084.27  1085.85
eigval :     1093.63  1108.39  1114.94  1121.94  1124.19  1125.37
eigval :     1134.86  1145.60  1152.88  1172.98  1180.32  1180.71
eigval :     1180.79  1182.95  1185.35  1186.32  1187.69  1189.21
eigval :     1195.78  1199.26  1210.31  1218.20  1253.07  1257.80
eigval :     1261.50  1273.04  1275.67  1278.56  1279.25  1283.80
eigval :     1284.93  1308.75  1312.59  1314.53  1319.84  1323.27
eigval :     1326.89  1327.01  1328.98  1338.02  1339.57  1349.24
eigval :     1374.73  1400.19  1408.82  1419.18  1421.07  1431.13
eigval :     1434.06  1436.65  1438.52  1443.27  1458.68  1472.35
eigval :     1476.73  1479.62  1498.49  1514.20  1514.84  1546.26
eigval :     1557.05  1562.48  1568.17  1573.21  1577.38  1581.22
eigval :     1581.43  1588.96  1593.40  1595.12  1595.25  1598.08
eigval :     1603.39  1605.18  3071.60  3074.92  3075.36  3075.87
eigval :     3076.14  3076.68  3077.26  3078.99  3080.41  3082.54
eigval :     3083.17  3084.70  3085.49  3085.91  3086.68  3087.85
eigval :     3088.82  3089.69  3090.70  3091.32  3092.38  3096.20
eigval :     3096.46  3097.22  3097.87  3098.19  3102.00  3104.95
eigval :     3108.93  3110.41  3112.73

   temp. (K)  partition function   enthalpy   heat capacity  entropy
                                   cal/mol     cal/K/mol   cal/K/mol   J/K/mol
 298.15  VIB  0.240E+18            21977.742    139.962    137.471
         ROT  0.910E+08              888.752      2.981     39.401
         INT  0.218E+26            22866.495    142.943    176.872
         TR   0.147E+29             1481.254      4.968     45.106
         TOT                       24347.7485   147.9111   221.9781   928.7564

       T/K    H(0)-H(T)+PV         H(T)/Eh          T*S/Eh         G(T)/Eh
   ------------------------------------------------------------------------
    298.15    0.388006E-01    0.651137E+00    0.105469E+00    0.545668E+00
   ------------------------------------------------------------------------

         :::::::::::::::::::::::::::::::::::::::::::::::::::::
         ::                  THERMODYNAMIC                  ::
         :::::::::::::::::::::::::::::::::::::::::::::::::::::
         :: total free energy        -120.443032496365 Eh   ::
         ::.................................................::
         :: total energy             -120.988700194133 Eh   ::
         :: zero point energy           0.612336047816 Eh   ::
         :: G(RRHO) w/o ZPVE           -0.066668350048 Eh   ::
         :: G(RRHO) contrib.            0.545667697768 Eh   ::
         :::::::::::::::::::::::::::::::::::::::::::::::::::::

           -------------------------------------------------
          | TOTAL ENERGY             -120.988700194133 Eh   |
          | TOTAL ENTHALPY           -120.337563539322 Eh   |
          | TOTAL FREE ENERGY        -120.443032496365 Eh   |
          | GRADIENT NORM               0.000044168648 Eh/α |
          | HOMO-LUMO GAP               2.504908186669 eV   |
           -------------------------------------------------

 * finished run on 2025/09/07 at 05:06:53.574
