   * xtb version 6.7.1 (edcfbbe) compiled by 'albert@albert-system' on 2024-07-22

   ID    Z sym.   atoms
    1    6 C      1-4, 6-21, 23-36, 38-48
    2    7 N      5, 22, 37
    3    1 H      49-79

          program call               : xtb data2507/gas/mTPA–PPI/mTPA–PPI.xyz --gfn 2 --ohess vtight --parallel 40 --molden --ceasefiles --namespace data2507/gas/mTPA–PPI/mTPA–PPI_gas_S0_preOpt
          :  Hamiltonian                  GFN2-xTB          :
 * total energy  :  -120.9620898 Eh     change       -0.1653461E-08 Eh
 * total energy  :  -120.9755732 Eh     change       -0.1348347E-01 Eh
 * total energy  :  -120.9803670 Eh     change       -0.4793761E-02 Eh
 * total energy  :  -120.9818975 Eh     change       -0.1530483E-02 Eh
 * total energy  :  -120.9826454 Eh     change       -0.7478875E-03 Eh
 * total energy  :  -120.9829403 Eh     change       -0.2948870E-03 Eh
 * total energy  :  -120.9831605 Eh     change       -0.2202476E-03 Eh
 * total energy  :  -120.9833940 Eh     change       -0.2334564E-03 Eh
 * total energy  :  -120.9836341 Eh     change       -0.2401022E-03 Eh
 * total energy  :  -120.9838381 Eh     change       -0.2040650E-03 Eh
 * total energy  :  -120.9864088 Eh     change       -0.8467737E-06 Eh
 * total energy  :  -120.9864097 Eh     change       -0.8902252E-06 Eh
 * total energy  :  -120.9864107 Eh     change       -0.9238354E-06 Eh
 * total energy  :  -120.9864116 Eh     change       -0.9915677E-06 Eh
 * total energy  :  -120.9864127 Eh     change       -0.1102594E-05 Eh
 * total energy  :  -120.9864140 Eh     change       -0.1228842E-05 Eh
 * total energy  :  -120.9864153 Eh     change       -0.1314982E-05 Eh
 * total energy  :  -120.9864166 Eh     change       -0.1305077E-05 Eh
 * total energy  :  -120.9864166 Eh     change       -0.4995186E-08 Eh
   *** GEOMETRY OPTIMIZATION CONVERGED AFTER 122 ITERATIONS ***

 final structure:
================
79
 xtb: 6.7.1 (edcfbbe)
C            7.52534072943039       -1.45526230240877       -3.68155860071431
C            6.70360861234265       -2.19579390435010       -2.84773749887702
C            6.18811633655021       -1.63597820344140       -1.69520558055575
C            6.48368088296680       -0.31392609252117       -1.36241164092208
N            5.96329936965058        0.25555555580221       -0.19539891169781
C            6.73216668542538        1.15357596015863        0.55331253045402
C            8.10856773925418        0.97089434918971        0.68495188774274
C            8.86189374479909        1.86486008152767        1.42058052435674
C            8.25939766427989        2.94599090550598        2.04278022697741
C            6.89172243715485        3.12870477781135        1.91998635442029
C            6.13089594465567        2.24544156243962        1.17939367746219
C            4.67242519907842       -0.07709408667716        0.22731122621122
C            3.64463163273140       -0.25293692469855       -0.69952596792397
C            2.37300385276816       -0.57962943699157       -0.27867261446210
C            2.08551533924069       -0.74878686310162        1.07443099827631
C            0.73131148594401       -1.10620340695131        1.51804250760179
C            0.53854013574442       -2.05259270487250        2.52369720965987
C           -0.73771870416790       -2.37684370633412        2.94395560736000
C           -1.84317581684996       -1.77733215131848        2.36865643460576
C           -1.67056215705773       -0.84372691046406        1.34864360520947
C           -2.78364260432884       -0.15563007853283        0.71221499271379
N           -2.73137829392436        1.10080668793900        0.34863264004631
C           -3.94950503432782        1.39024929189940       -0.17850171048190
C           -4.41033734246327        2.64203291431832       -0.67295087225011
C           -3.58994806538864        3.77481414724757       -0.65346086658771
C           -4.06571077835903        4.98231267193540       -1.09937645105449
C           -5.37516749441076        5.07099633123273       -1.56775719506378
C           -6.18797239067613        3.96204012355434       -1.59763658655744
C           -5.73552876412181        2.70764360051360       -1.16018810261186
C           -6.55640464790446        1.51016626797833       -1.21174982500134
C           -7.84343278245588        1.52585321863223       -1.76774537084159
C           -8.61146161766043        0.38980025785589       -1.86349354801558
C           -8.11171674427556       -0.82969058819021       -1.41821642019407
C           -6.85887842831398       -0.88755098872636       -0.85960455112684
C           -6.07125747933055        0.26481087308642       -0.72467137217992
C           -4.76813249927786        0.26241063986344       -0.15181391878659
N           -4.00784343843676       -0.72485631476470        0.43504232916892
C           -4.35897279226513       -2.05861992319413        0.71914608923254
C           -3.65738909578848       -3.09705091172937        0.11839426949627
C           -3.97706782422041       -4.40713206213813        0.42588111226791
C           -4.99137824114884       -4.68437221260083        1.32696573487232
C           -5.68947677091125       -3.64791492819627        1.92605012906940
C           -5.37531499915113       -2.33480632710272        1.62920998430106
C           -0.38210768832402       -0.50918439373575        0.94028531260188
C            3.11604177402441       -0.57272802229415        1.99576799553011
C            4.38882740506798       -0.23910343353826        1.58361509260009
C            7.30627655035252        0.42921219726190       -2.20890745826267
C            7.82367160203845       -0.14250411217157       -3.35480616310896
H            7.93004242702607       -1.89772520944794       -4.57911605097699
H            6.46906117705545       -3.22171481736872       -3.09144840384598
H            5.55609757971383       -2.21923858422244       -1.04145536404671
H            8.57982691909296        0.12309425446214        0.20942173284311
H            9.92682069868106        1.71073928718274        1.51549082932524
H            8.85131449806679        3.64083095116286        2.61897093354642
H            6.41353020798977        3.97148560737774        2.39724476642734
H            5.06622342399957        2.39623513616630        1.07677925967598
H            3.85266275313954       -0.12704872683744       -1.75208848779881
H            1.59085512438856       -0.71816299628961       -1.01038078910962
H            1.39301431775195       -2.54154316174805        2.96802399897459
H           -0.87607842610267       -3.10304168748380        3.73184044899927
H           -2.83037260218427       -2.01993985906527        2.73085060473835
H           -2.58670117149162        3.66398712930197       -0.27228965395891
H           -3.43695524344964        5.86037630414483       -1.08427636883542
H           -5.75729871928838        6.02151843405953       -1.91154753656603
H           -7.19494321279109        4.08042850485935       -1.96532200380442
H           -8.25266860392068        2.44887066070407       -2.14550710340789
H           -9.59883086329906        0.44174091121310       -2.29830819768778
H           -8.70315438514028       -1.72817755594606       -1.51539276845177
H           -6.46842437306111       -1.83905420706448       -0.53502434692276
H           -2.86650592713531       -2.86966015398993       -0.58075637970650
H           -3.43229432916166       -5.21329724076389       -0.04173887551387
H           -5.23827429249531       -5.70809194404017        1.56411776035754
H           -6.47878503693758       -3.86185674133766        2.63099461468196
H           -5.91052835852358       -1.51841460106086        2.09218657169031
H           -0.26541668472408        0.24405223659477        0.17656553790341
H            2.91241402184387       -0.68438256472086        3.05065065723343
H            5.17679906292951       -0.10396322926874        2.31016131157806
H            7.53274083853876        1.45618297036054       -1.96213123305249
H            8.45837455159211        0.44484946832521       -4.00206870918739

          :  Hamiltonian                  GFN2-xTB          :
         :: gradient norm              0.000055933846 Eh/a0 ::
         :: HOMO-LUMO gap              2.423840866900 eV    ::
         :: SCC energy              -123.278520464989 Eh    ::
         :: -> dispersion             -0.110852130352 Eh    ::
         :: repulsion energy           2.292103861708 Eh    ::

    * Orbital Energies and Occupations

         #    Occupation            Energy/Eh            Energy/eV
      -------------------------------------------------------------
         1        2.0000           -0.6839415             -18.6110
       ...           ...                  ...                  ...
       101        2.0000           -0.4111999             -11.1893
       102        2.0000           -0.4067594             -11.0685
       103        2.0000           -0.4056137             -11.0373
       104        2.0000           -0.4042404             -10.9999
       105        2.0000           -0.4033536             -10.9758
       106        2.0000           -0.4026639             -10.9570
       107        2.0000           -0.4023357             -10.9481
       108        2.0000           -0.3935856             -10.7100
       109        2.0000           -0.3904795             -10.6255
       110        2.0000           -0.3775763             -10.2744
       111        2.0000           -0.3729068             -10.1473
       112        2.0000           -0.3602287              -9.8023
       113        2.0000           -0.3469624              -9.4413 (HOMO)
       114                         -0.2578879              -7.0175 (LUMO)
       115                         -0.2475640              -6.7366
       116                         -0.2444466              -6.6517
       117                         -0.2410725              -6.5599
       118                         -0.2380194              -6.4768
       119                         -0.2343674              -6.3775
       120                         -0.2284443              -6.2163
       121                         -0.2255128              -6.1365
       122                         -0.2200417              -5.9876
       123                         -0.2196538              -5.9771
       124                         -0.2131031              -5.7988
       ...                                ...                  ...
       223                          0.7317481              19.9119
      -------------------------------------------------------------
                  HL-Gap            0.0890745 Eh            2.4238 eV

     #   Z          covCN         q      C6AA      α(0)
     1   6 C        2.919    -0.039    28.963     8.825
     2   6 C        2.919    -0.029    28.734     8.790
     3   6 C        2.922    -0.048    29.192     8.860
     4   6 C        2.924     0.065    26.539     8.448
     5   7 N        2.752    -0.075    22.703     7.077
     6   6 C        2.924     0.065    26.543     8.449
     7   6 C        2.922    -0.048    29.190     8.860
     8   6 C        2.920    -0.029    28.736     8.791
     9   6 C        2.919    -0.039    28.960     8.825
    10   6 C        2.920    -0.029    28.729     8.790
    11   6 C        2.922    -0.048    29.184     8.859
    12   6 C        2.925     0.064    26.565     8.452
    13   6 C        2.921    -0.048    29.183     8.859
    14   6 C        2.924    -0.033    28.832     8.806
    15   6 C        2.977     0.002    27.973     8.676
    16   6 C        2.975     0.013    27.711     8.635
    17   6 C        2.925    -0.035    28.874     8.812
    18   6 C        2.917    -0.030    28.756     8.794
    19   6 C        2.922    -0.037    28.927     8.820
    20   6 C        2.973     0.002    27.978     8.676
    21   6 C        3.194     0.127    24.742     8.111
    22   7 N        1.895    -0.291    28.397     7.900
    23   6 C        3.208     0.057    26.131     8.323
    24   6 C        2.986     0.003    27.955     8.673
    25   6 C        2.922    -0.031    28.778     8.797
    26   6 C        2.917    -0.030    28.758     8.794
    27   6 C        2.917    -0.033    28.824     8.804
    28   6 C        2.922    -0.035    28.870     8.811
    29   6 C        2.979    -0.002    28.062     8.689
    30   6 C        2.980     0.002    27.982     8.677
    31   6 C        2.922    -0.034    28.843     8.807
    32   6 C        2.916    -0.034    28.837     8.806
    33   6 C        2.917    -0.032    28.798     8.800
    34   6 C        2.919    -0.040    29.003     8.831
    35   6 C        2.978    -0.002    28.067     8.690
    36   6 C        3.073     0.019    27.503     8.599
    37   7 N        2.841    -0.046    22.121     6.985
    38   6 C        2.913     0.069    26.446     8.433
    39   6 C        2.922    -0.037    28.932     8.821
    40   6 C        2.920    -0.026    28.644     8.777
    41   6 C        2.920    -0.030    28.750     8.793
    42   6 C        2.920    -0.027    28.679     8.782
    43   6 C        2.921    -0.037    28.909     8.817
    44   6 C        2.935    -0.034    28.842     8.808
    45   6 C        2.924    -0.034    28.836     8.806
    46   6 C        2.920    -0.048    29.196     8.861
    47   6 C        2.922    -0.048    29.184     8.859
    48   6 C        2.920    -0.029    28.732     8.790
    49   1 H        0.926     0.030     2.592     2.518
    50   1 H        0.926     0.031     2.578     2.511
    51   1 H        0.926     0.031     2.578     2.511
    52   1 H        0.926     0.031     2.570     2.507
    53   1 H        0.926     0.031     2.574     2.509
    54   1 H        0.926     0.030     2.590     2.517
    55   1 H        0.926     0.032     2.562     2.503
    56   1 H        0.926     0.032     2.553     2.499
    57   1 H        0.926     0.033     2.540     2.492
    58   1 H        0.926     0.035     2.517     2.481
    59   1 H        0.926     0.034     2.531     2.488
    60   1 H        0.926     0.031     2.577     2.510
    61   1 H        0.926     0.025     2.651     2.546
    62   1 H        0.926     0.050     2.317     2.380
    63   1 H        0.926     0.029     2.594     2.519
    64   1 H        0.926     0.027     2.626     2.534
    65   1 H        0.926     0.030     2.587     2.515
    66   1 H        0.926     0.034     2.533     2.489
    67   1 H        0.926     0.028     2.616     2.529
    68   1 H        0.926     0.026     2.642     2.542
    69   1 H        0.926     0.025     2.657     2.549
    70   1 H        0.926     0.040     2.454     2.450
    71   1 H        0.926     0.040     2.450     2.447
    72   1 H        0.926     0.039     2.463     2.454
    73   1 H        0.926     0.040     2.450     2.448
    74   1 H        0.926     0.043     2.413     2.429
    75   1 H        0.926     0.052     2.291     2.367
    76   1 H        0.926     0.034     2.528     2.486
    77   1 H        0.926     0.033     2.549     2.497
    78   1 H        0.926     0.032     2.560     2.502
    79   1 H        0.926     0.031     2.570     2.507

molecular dipole:
                 x           y           z       tot (Debye)
 q only:        0.128      -0.944       0.205
   full:       -0.217      -1.262       0.200       3.294

 projected vibrational frequencies (cm⁻¹)
eigval :       -0.00    -0.00     0.00     0.00     0.00     0.00
eigval :        7.68     9.63    15.95    24.24    27.35    37.19
eigval :       44.17    48.96    52.72    58.62    63.34    73.40
eigval :       78.83    82.87    92.01    97.60   106.64   128.46
eigval :      153.66   165.31   187.64   194.19   213.63   217.06
eigval :      233.79   238.30   241.11   258.32   268.52   285.52
eigval :      287.88   311.96   336.07   346.06   357.72   373.77
eigval :      376.83   378.26   378.65   386.09   392.09   398.04
eigval :      403.54   427.18   434.99   441.12   447.35   476.62
eigval :      482.66   487.83   492.24   506.89   516.46   523.81
eigval :      535.32   568.42   582.31   584.54   586.64   590.91
eigval :      595.30   597.40   613.37   634.05   640.47   645.93
eigval :      655.10   659.48   664.44   665.84   676.87   679.55
eigval :      682.99   687.41   693.81   705.94   727.69   735.51
eigval :      756.79   758.86   762.67   766.88   769.97   782.66
eigval :      792.65   820.08   827.16   862.81   870.94   874.24
eigval :      874.88   876.01   876.44   890.18   891.42   892.75
eigval :      897.54   901.69   907.66   910.13   914.33   917.01
eigval :      918.04   923.90   926.13   927.31   927.39   928.52
eigval :      928.65   928.88   929.91   930.62   932.59   939.32
eigval :      954.37   976.28   986.89  1004.99  1011.36  1018.17
eigval :     1030.07  1069.22  1079.34  1083.40  1084.35  1085.85
eigval :     1088.74  1108.41  1115.61  1122.10  1124.50  1133.90
eigval :     1136.78  1143.11  1152.45  1172.20  1180.47  1180.77
eigval :     1180.85  1182.97  1186.17  1187.01  1189.29  1192.93
eigval :     1195.96  1198.09  1210.15  1216.28  1251.49  1254.73
eigval :     1258.54  1270.63  1274.53  1278.89  1279.00  1284.14
eigval :     1285.79  1308.27  1313.98  1314.62  1321.24  1323.85
eigval :     1326.39  1327.35  1329.94  1335.60  1339.00  1347.60
eigval :     1375.26  1403.75  1408.33  1418.19  1427.03  1432.38
eigval :     1434.08  1437.02  1437.71  1443.44  1453.86  1472.57
eigval :     1477.17  1480.27  1497.47  1513.76  1514.83  1543.48
eigval :     1557.84  1561.79  1567.10  1577.18  1580.38  1581.20
eigval :     1583.09  1586.98  1594.51  1595.22  1595.32  1597.58
eigval :     1602.95  1604.99  3071.48  3073.91  3074.98  3075.04
eigval :     3075.51  3076.49  3076.99  3077.77  3079.53  3081.85
eigval :     3083.00  3084.37  3085.53  3085.69  3086.39  3086.54
eigval :     3088.61  3089.56  3090.12  3090.26  3091.27  3095.36
eigval :     3096.48  3096.90  3097.42  3099.07  3101.91  3103.19
eigval :     3104.98  3110.30  3112.73

   temp. (K)  partition function   enthalpy   heat capacity  entropy
                                   cal/mol     cal/K/mol   cal/K/mol   J/K/mol
 298.15  VIB  0.411E+18            22011.746    139.814    137.959
         ROT  0.109E+09              888.752      2.981     39.755
         INT  0.447E+26            22900.499    142.794    177.714
         TR   0.147E+29             1481.254      4.968     45.106
         TOT                       24381.7525   147.7626   222.8195   932.2769

       T/K    H(0)-H(T)+PV         H(T)/Eh          T*S/Eh         G(T)/Eh
   ------------------------------------------------------------------------
    298.15    0.388548E-01    0.651057E+00    0.105869E+00    0.545188E+00
   ------------------------------------------------------------------------

         :::::::::::::::::::::::::::::::::::::::::::::::::::::
         ::                  THERMODYNAMIC                  ::
         :::::::::::::::::::::::::::::::::::::::::::::::::::::
         :: total free energy        -120.441228385832 Eh   ::
         ::.................................................::
         :: total energy             -120.986416603281 Eh   ::
         :: zero point energy           0.612202163803 Eh   ::
         :: G(RRHO) w/o ZPVE           -0.067013946354 Eh   ::
         :: G(RRHO) contrib.            0.545188217449 Eh   ::
         :::::::::::::::::::::::::::::::::::::::::::::::::::::

           -------------------------------------------------
          | TOTAL ENERGY             -120.986416603281 Eh   |
          | TOTAL ENTHALPY           -120.335359643583 Eh   |
          | TOTAL FREE ENERGY        -120.441228385832 Eh   |
          | GRADIENT NORM               0.000055934401 Eh/α |
          | HOMO-LUMO GAP               2.423840633444 eV   |
           -------------------------------------------------

 * finished run on 2025/09/07 at 05:00:45.679
