   * xtb version 6.7.1 (edcfbbe) compiled by 'albert@albert-system' on 2024-07-22

   ID    Z sym.   atoms
    1    6 C      1-4, 6-21, 23-36, 38-48
    2    7 N      5, 22, 37
    3    1 H      49-79

          program call               : xtb data2507/gas/mTPA–PPI/mTPA–PPI_gas_T1_crest.xyz --gfn 2 --spinpol --tblite --uhf 2 --ohess vtight --parallel 40 --molden --ceasefiles --namespace data2507/gas/mTPA–PPI/mTPA–PPI_gas_T1_finalOpt
 * total energy  :  -120.8986070 Eh     change       -0.3116708E-07 Eh
 * total energy  :  -120.8986204 Eh     change       -0.1334114E-04 Eh
 * total energy  :  -120.8986262 Eh     change       -0.5859866E-05 Eh
 * total energy  :  -120.8986273 Eh     change       -0.1094129E-05 Eh
 * total energy  :  -120.8986284 Eh     change       -0.1112118E-05 Eh
 * total energy  :  -120.8986296 Eh     change       -0.1173840E-05 Eh
 * total energy  :  -120.8986308 Eh     change       -0.1197181E-05 Eh
 * total energy  :  -120.8986329 Eh     change       -0.2063546E-05 Eh
 * total energy  :  -120.8986352 Eh     change       -0.2364082E-05 Eh
 * total energy  :  -120.8986374 Eh     change       -0.2200255E-05 Eh
 * total energy  :  -120.8986582 Eh     change       -0.4596536E-06 Eh
 * total energy  :  -120.8986586 Eh     change       -0.4226710E-06 Eh
 * total energy  :  -120.8986590 Eh     change       -0.4335843E-06 Eh
 * total energy  :  -120.8986595 Eh     change       -0.4427215E-06 Eh
 * total energy  :  -120.8986598 Eh     change       -0.3452051E-06 Eh
 * total energy  :  -120.8986600 Eh     change       -0.2056216E-06 Eh
 * total energy  :  -120.8986602 Eh     change       -0.1485332E-06 Eh
 * total energy  :  -120.8986603 Eh     change       -0.1297864E-06 Eh
 * total energy  :  -120.8986604 Eh     change       -0.9049296E-07 Eh
   *** GEOMETRY OPTIMIZATION CONVERGED AFTER 38 ITERATIONS ***

 final structure:
================
79
 xtb: 6.7.1 (edcfbbe)
C            9.28678925167085        2.14040062678678       -0.15794286662550
C            8.22237862056330        2.46172924620618        0.66877875360237
C            7.06664542415574        1.70605780773363        0.64746284883000
C            6.95788284735024        0.61384094676297       -0.21370540834238
N            5.78771914908949       -0.15260758496248       -0.24182579862276
C            5.86462058900818       -1.53892925763018       -0.40977172106904
C            4.90027917062128       -2.21645297246566       -1.15698889250656
C            4.97865203293973       -3.58618199383627       -1.31431062270759
C            6.01747539132037       -4.30121678851279       -0.74044459414683
C            6.97999933704229       -3.63285762433961       -0.00122203863474
C            6.90663284623744       -2.26429464272953        0.16903151369363
C            4.54293907471833        0.46656186335923       -0.10310730792974
C            3.50607656475434       -0.16866959977940        0.58329790943196
C            2.27517077705986        0.43638282267117        0.70376750190695
C            2.03371948401178        1.69897245185821        0.15826679883221
C            0.71448290766459        2.32423198360637        0.28650790326468
C            0.59299853864526        3.71175405799336        0.49310101323923
C           -0.67203883568898        4.29150308147815        0.57336869302928
C           -1.80350352482400        3.52685232979161        0.48407370809107
C           -1.71405697825001        2.10906773298530        0.32235053663046
C           -2.91279826231444        1.38643214561505        0.25152843135830
N           -4.10218147736159        1.98747885964859        0.02699129718241
C           -4.99510149964912        1.03281158980925       -0.12787926961619
C           -6.37741210442828        1.17991535001862       -0.44901194301175
C           -6.91907566332031        2.44318613749605       -0.68737311485566
C           -8.24824185527647        2.57946665594462       -1.03515234477188
C           -9.03426140184345        1.44324025987855       -1.15292947140176
C           -8.50661811401725        0.18694616255661       -0.91231732956221
C           -7.16821066176498        0.01108032975504       -0.54363872549527
C           -6.59245836287561       -1.29151896799989       -0.24541934666422
C           -7.36981525302793       -2.44596180744595       -0.23600187775092
C           -6.85218360961297       -3.68765269005762        0.08349814451856
C           -5.50569696599878       -3.81068644690319        0.43570619287297
C           -4.69730642496311       -2.70909396146239        0.43434236027908
C           -5.19258584365999       -1.42626282781454        0.07873907810402
C           -4.40960089988628       -0.27136341998242        0.05869113842019
N           -3.07605739885159       -0.02606391033438        0.30115880409040
C           -2.07010440901272       -0.93528305893838        0.64428332957554
C           -1.68536622253722       -1.93881515899673       -0.24747824498834
C           -0.66231427834794       -2.80301207787862        0.08922851748110
C           -0.01511416542065       -2.68251667039917        1.31031073612715
C           -0.39943926357069       -1.68940919875557        2.19939002579143
C           -1.41887645287894       -0.81646483245952        1.87357441334298
C           -0.42050345199082        1.54676270506655        0.19913201728451
C            3.07951519223639        2.33503864734640       -0.51175548881469
C            4.31027705960026        1.73039485938820       -0.64882113450617
C            8.03110834754272        0.29661770457600       -1.04669775337805
C            9.18497818286834        1.05471407923645       -1.01270024420175
H           10.18928361261653        2.73190242321433       -0.13636626894473
H            8.29552090680927        3.30279139769087        1.34229438165765
H            6.24200228013551        1.95059478651819        1.30076960839142
H            4.09608327218735       -1.66010766344013       -1.61559683925594
H            4.22721459937627       -4.09784408585802       -1.89740022757599
H            6.07678390833749       -5.37126160556746       -0.86850298086553
H            7.79033439823283       -4.18258487929275        0.45437099818310
H            7.65145975809615       -1.74747543226928        0.75631288671841
H            3.67875542361153       -1.13761720957536        1.02857586942449
H            1.49173470825804       -0.06470854011884        1.25245025773764
H            1.47791487684973        4.31991550949674        0.59799786797533
H           -0.75520459121105        5.35996782831308        0.71265426359480
H           -2.78739455311909        3.96121105231205        0.54835161751218
H           -6.26691975699192        3.29775592673522       -0.59729774634161
H           -8.66941150714872        3.55631000198303       -1.21911900888774
H          -10.07347682085253        1.53441508682776       -1.43486485419461
H           -9.16034799976523       -0.66371838916356       -1.02057935863553
H           -8.42007685342823       -2.38745573008889       -0.47384173184603
H           -7.49201251925296       -4.55693487395993        0.07630827360613
H           -5.10690666197709       -4.77509205409231        0.71424847596204
H           -3.66612109199088       -2.80733753931781        0.73049829642216
H           -2.18812261034665       -2.02107584288555       -1.20021421228892
H           -0.36180447217275       -3.57132972297756       -0.60768563470140
H            0.78740260296375       -3.35766338031956        1.56587784864474
H            0.09708907680459       -1.59756732096128        3.15451249892964
H           -1.71811074032755       -0.03510833793847        2.55630276153947
H           -0.31310062342829        0.50217745705887       -0.04080157676998
H            2.91307934159041        3.30179332198055       -0.96310748772810
H            5.10058475106819        2.22690245780002       -1.19291443646143
H            7.94907856087214       -0.54238102231237       -1.72210503537785
H           10.00749270156916        0.80084662783107       -1.66492475988178

 projected vibrational frequencies (cm⁻¹)
eigval :       -0.00    -0.00     0.00     0.00     0.00     0.00
eigval :        9.15    10.32    14.87    20.42    34.32    38.06
eigval :       41.15    50.18    56.93    59.24    64.51    72.12
eigval :       75.74    83.62    90.62   102.44   108.11   129.83
eigval :      148.64   158.59   191.11   196.18   206.20   215.50
eigval :      223.19   232.33   237.56   254.34   257.11   279.59
eigval :      302.19   310.68   313.65   329.47   363.37   377.42
eigval :      378.91   379.80   382.25   387.45   389.35   396.20
eigval :      397.38   403.72   411.81   418.82   434.92   456.14
eigval :      474.56   479.51   483.02   494.45   507.99   516.88
eigval :      519.87   537.87   580.03   581.02   582.33   586.92
eigval :      593.12   593.50   597.69   613.91   621.33   629.65
eigval :      634.87   643.37   654.68   659.62   659.90   661.94
eigval :      666.40   685.09   688.31   693.22   717.63   722.13
eigval :      744.95   750.31   755.54   757.10   759.21   768.04
eigval :      768.44   814.94   823.11   839.96   840.83   848.17
eigval :      858.00   868.72   872.40   873.75   875.54   886.94
eigval :      890.48   893.26   894.24   907.30   908.79   910.03
eigval :      910.32   912.89   914.40   918.17   918.53   926.45
eigval :      927.50   927.57   927.94   929.12   929.58   930.28
eigval :      936.05   950.10   979.13   982.97   991.46  1004.41
eigval :     1016.14  1040.88  1073.85  1075.26  1080.48  1082.65
eigval :     1083.56  1086.07  1098.97  1115.95  1120.23  1121.82
eigval :     1124.20  1130.93  1144.86  1149.87  1170.38  1174.17
eigval :     1178.56  1179.06  1180.08  1180.19  1183.35  1184.17
eigval :     1186.95  1194.50  1195.96  1202.30  1216.35  1232.44
eigval :     1244.84  1256.61  1263.07  1272.34  1272.59  1274.48
eigval :     1277.36  1278.49  1284.06  1312.52  1316.85  1317.83
eigval :     1319.67  1323.96  1327.14  1328.05  1332.37  1345.18
eigval :     1347.98  1354.30  1377.11  1390.72  1396.57  1408.93
eigval :     1414.82  1429.90  1433.34  1435.71  1440.72  1442.69
eigval :     1468.45  1469.97  1471.58  1473.66  1480.05  1494.84
eigval :     1504.97  1533.89  1543.74  1549.19  1551.34  1552.73
eigval :     1557.03  1567.79  1574.43  1578.35  1583.08  1589.81
eigval :     1590.55  1597.75  3072.01  3073.30  3076.26  3076.62
eigval :     3077.85  3078.32  3078.43  3078.50  3079.15  3079.57
eigval :     3080.99  3086.83  3087.57  3087.85  3088.51  3088.54
eigval :     3090.38  3091.17  3091.67  3091.70  3094.16  3094.76
eigval :     3097.69  3098.03  3099.02  3099.31  3106.99  3108.30
eigval :     3118.59  3123.09  3125.16

   temp. (K)  partition function   enthalpy   heat capacity  entropy
                                   cal/mol     cal/K/mol   cal/K/mol   J/K/mol
 298.15  VIB  0.445E+18            22329.926    142.180    139.584
         ROT  0.885E+08              888.752      2.981     39.344
         INT  0.394E+26            23218.678    145.161    178.929
         TR   0.147E+29             1481.254      4.968     45.106
         TOT                       24699.9320   150.1293   224.0345   937.3602

       T/K    H(0)-H(T)+PV         H(T)/Eh          T*S/Eh         G(T)/Eh
   ------------------------------------------------------------------------
    298.15    0.393618E-01    0.646678E+00    0.106446E+00    0.540232E+00
   ------------------------------------------------------------------------

         :::::::::::::::::::::::::::::::::::::::::::::::::::::
         ::                  THERMODYNAMIC                  ::
         :::::::::::::::::::::::::::::::::::::::::::::::::::::
         :: total free energy        -120.358428050344 Eh   ::
         ::.................................................::
         :: total energy             -120.898660430833 Eh   ::
         :: zero point energy           0.607316536786 Eh   ::
         :: G(RRHO) w/o ZPVE           -0.067084156296 Eh   ::
         :: G(RRHO) contrib.            0.540232380489 Eh   ::
         :::::::::::::::::::::::::::::::::::::::::::::::::::::

           -------------------------------------------------
          | TOTAL ENERGY             -120.898660430833 Eh   |
          | TOTAL ENTHALPY           -120.251982046916 Eh   |
          | TOTAL FREE ENERGY        -120.358428050344 Eh   |
          | GRADIENT NORM               0.000118289630 Eh/α |
           -------------------------------------------------

 * finished run on 2025/09/07 at 05:13:53.209
