   * xtb version 6.7.1 (edcfbbe) compiled by 'albert@albert-system' on 2024-07-22

   ID    Z sym.   atoms
    1    6 C      1-9, 11-20, 22-34, 36-45, 47-50
    2    7 N      10, 21, 35, 46
    3    1 H      51-80

          program call               : xtb data2507/gas/m-CzCNDMT/m-CzCNDMT_gas_T1_crest.xyz --gfn 2 --spinpol --tblite --uhf 2 --ohess vtight --parallel 40 --molden --ceasefiles --namespace data2507/gas/m-CzCNDMT/m-CzCNDMT_gas_T1_finalOpt
 * total energy  :  -125.4053777 Eh     change        0.1449735E-08 Eh
 * total energy  :  -125.4054092 Eh     change       -0.3142087E-04 Eh
 * total energy  :  -125.4054196 Eh     change       -0.1047026E-04 Eh
 * total energy  :  -125.4054194 Eh     change        0.2611301E-06 Eh
 * total energy  :  -125.4054221 Eh     change       -0.2692509E-05 Eh
 * total energy  :  -125.4054229 Eh     change       -0.8432056E-06 Eh
 * total energy  :  -125.4054235 Eh     change       -0.6331987E-06 Eh
 * total energy  :  -125.4054245 Eh     change       -0.9684067E-06 Eh
 * total energy  :  -125.4054249 Eh     change       -0.4411498E-06 Eh
 * total energy  :  -125.4054256 Eh     change       -0.6715496E-06 Eh
 * total energy  :  -125.4054288 Eh     change       -0.8402949E-06 Eh
 * total energy  :  -125.4054296 Eh     change       -0.7811792E-06 Eh
 * total energy  :  -125.4054302 Eh     change       -0.5795846E-06 Eh
 * total energy  :  -125.4054310 Eh     change       -0.8082115E-06 Eh
 * total energy  :  -125.4054313 Eh     change       -0.2545754E-06 Eh
 * total energy  :  -125.4054315 Eh     change       -0.2710403E-06 Eh
 * total energy  :  -125.4054317 Eh     change       -0.2204523E-06 Eh
 * total energy  :  -125.4054320 Eh     change       -0.2213086E-06 Eh
 * total energy  :  -125.4054320 Eh     change       -0.4050337E-07 Eh
   *** GEOMETRY OPTIMIZATION CONVERGED AFTER 22 ITERATIONS ***

 final structure:
================
80
 xtb: 6.7.1 (edcfbbe)
C            1.24182616331396        4.72906409375149       -0.20441001926632
C            0.57930296420699        3.50806964835559        0.35965838959687
C           -0.77737159646092        3.46819052231594        0.42406904699664
C           -1.53310984169915        2.30256350371549        0.75470596868545
C           -2.95455899294800        2.36011896469687        0.68469587109313
C           -3.64023214719456        3.56418805197716        1.00866023719888
C           -5.00773484325270        3.65168344303595        0.93717920014735
C           -5.77190896335151        2.56908778008973        0.51471809182276
C           -5.11735740070927        1.38186514506869        0.15594320599364
N           -5.87766670612920        0.29654476361744       -0.31706635748673
C           -6.80332566926440        0.35616077581163       -1.34056800659637
C           -7.16410124252857        1.43036003470649       -2.14167341434415
C           -8.11621042231166        1.21209540083129       -3.11891974048680
C           -8.69179230609027       -0.04267585483672       -3.30779375383899
C           -8.31922469053000       -1.12115850575862       -2.52949622125769
C           -7.36541022908905       -0.92539579221112       -1.54025608914832
C           -6.74069426162940       -1.79475925650596       -0.58179084145044
C           -6.88187309026988       -3.13823695621345       -0.28465039021716
C           -6.11323852472874       -3.67014214623864        0.74845029584182
C           -6.22885217603261       -5.03888999291994        1.07259373225313
N           -6.32095853052452       -6.15180184613197        1.33583206035815
C           -5.22945154639749       -2.86371632454763        1.48482471308864
C           -5.08211403338314       -1.52527293428624        1.19662028823109
C           -5.82661055441370       -0.99292377236187        0.14959094863641
C           -3.74772262446773        1.27349257088819        0.24853113411539
C           -0.76965579357693        1.11782742917457        1.09310179645935
C           -1.43238030811810       -0.10921481643456        1.64266551062452
C            0.58712587561728        1.15844350238485        1.03231524579474
C            1.34293914912264        2.33062705945407        0.72325994661483
C            2.75937257759989        2.29744987324168        0.84788886331186
C            3.52476415418662        3.41382588003074        1.28367529206087
C            4.89046168811706        3.34246916922634        1.39908969792769
C            5.57656222699133        2.17125103030384        1.09353568805878
C            4.84348886616303        1.05184799723383        0.67013288751198
N            5.52073631324712       -0.14121846878582        0.36510377072077
C            5.21229133051603       -1.39238838937045        0.86335251277336
C            4.23560262356526       -1.76289516020385        1.77670869609230
C            4.15659312978515       -3.09663282240453        2.12920298323651
C            5.02853349423534       -4.04337968679257        1.59586504334402
C            6.01809859720459       -3.67705792539277        0.70456073208082
C            6.11645942964050       -2.34244374033369        0.33618393119387
C            7.00875619897959       -1.61725212414652       -0.52623678107181
C            8.07869555343043       -1.99292079655026       -1.31789659689776
C            8.72777882249481       -1.00818658464996       -2.05987522935474
C            9.82688669205311       -1.35763432027809       -2.87355663611028
N           10.72159471162159       -1.64098699946032       -3.53350966274797
C            8.30113608197461        0.32972419862179       -2.02199547632294
C            7.23583974506520        0.71389933713984       -1.23808624396850
C            6.59992587277547       -0.25966914623505       -0.47465358108420
C            3.47327778655112        1.10755199843755        0.56161288730339
H            2.18669750348493        4.48063066300438       -0.68066416616475
H            0.59091741242501        5.19642694068393       -0.94136753055911
H            1.42983319522433        5.46837769732074        0.57546483586230
H           -1.32870762103196        4.33824924371777        0.09745769352487
H           -3.07353944647858        4.40619893656886        1.37419487386463
H           -5.50271657934039        4.56995833812778        1.21776306042004
H           -6.84787650748075        2.62705074421582        0.47425644559370
H           -6.70961670526672        2.40084599103395       -2.01271748919102
H           -8.41784900638353        2.03173147244741       -3.75384838265738
H           -9.43355754202876       -0.17146886618903       -4.08146289507556
H           -8.75470568948457       -2.09630491468589       -2.68566528701982
H           -7.57068400960687       -3.76380047947217       -0.83190893974989
H           -4.66444210878564       -3.30993683720891        2.28970599061960
H           -4.41690010676779       -0.90586157601331        1.77695370985056
H           -3.27348032650815        0.37108391643452       -0.10013398433009
H           -1.70626637972813       -0.80372838185710        0.84736463849657
H           -2.32864194081850        0.15492268673585        2.19902546257689
H           -0.75085939375672       -0.63400000843683        2.30968571272644
H            1.13558348974922        0.28268347768669        1.34795115085077
H            3.01547362449620        4.30970571278134        1.59577316737644
H            5.44399089246897        4.20046625762658        1.75173225384073
H            6.64552610324419        2.10331817876736        1.21743151518389
H            3.56899707398004       -1.03184297486387        2.20835558991124
H            3.40391659542792       -3.41219635825357        2.83625831642468
H            4.93144586654169       -5.07641828402360        1.89360496083443
H            6.70418779194407       -4.40789824329366        0.30459321243534
H            8.40629752297620       -3.02029187301661       -1.36742908045371
H            8.82101772597227        1.05928283127257       -2.62493207581595
H            6.89983188800567        1.73940995507895       -1.22598020176869
H            2.94397794336956        0.24733941654903        0.18148035057655

 projected vibrational frequencies (cm⁻¹)
eigval :       -0.00    -0.00    -0.00     0.00     0.00     0.00
eigval :        6.28     8.63    12.77    21.92    25.36    36.18
eigval :       38.88    58.50    61.45    72.59    75.88    84.35
eigval :       95.05    99.66   106.60   108.82   111.62   118.37
eigval :      126.95   147.03   162.42   167.83   179.89   191.81
eigval :      202.86   210.33   216.53   224.06   226.49   232.58
eigval :      253.89   269.34   275.60   276.82   288.48   294.67
eigval :      300.85   312.61   326.18   349.68   370.90   377.13
eigval :      388.30   391.09   392.79   402.89   404.25   409.72
eigval :      412.19   421.58   422.19   434.63   444.49   466.59
eigval :      466.78   474.73   479.07   499.97   502.34   530.20
eigval :      538.49   541.73   546.51   554.72   561.59   570.52
eigval :      584.67   591.69   596.91   598.84   599.41   601.15
eigval :      621.08   626.63   633.19   642.55   649.45   656.23
eigval :      665.73   678.82   679.37   695.82   708.06   709.75
eigval :      710.10   736.45   740.77   762.42   762.73   775.65
eigval :      776.45   798.82   820.24   823.00   844.39   846.79
eigval :      847.89   850.80   852.49   861.57   864.53   867.81
eigval :      870.34   872.88   875.43   880.39   899.55   905.42
eigval :      906.14   908.13   909.57   913.97   915.99   922.24
eigval :      923.87   923.94   928.71   932.37   966.71   972.85
eigval :     1007.78  1012.78  1016.00  1017.68  1024.19  1025.57
eigval :     1030.20  1039.84  1070.16  1070.30  1113.36  1114.53
eigval :     1122.26  1124.60  1145.40  1146.32  1150.48  1161.45
eigval :     1173.66  1174.10  1177.78  1179.17  1182.14  1184.05
eigval :     1184.36  1188.81  1211.45  1227.14  1231.07  1232.42
eigval :     1241.56  1242.07  1249.45  1261.98  1276.46  1278.15
eigval :     1290.15  1303.13  1305.72  1324.58  1329.46  1334.70
eigval :     1342.85  1347.27  1349.80  1351.30  1355.57  1357.48
eigval :     1365.31  1371.66  1385.91  1397.23  1400.40  1402.65
eigval :     1412.41  1418.10  1419.18  1437.92  1440.93  1450.44
eigval :     1464.57  1465.46  1480.72  1482.27  1483.05  1483.76
eigval :     1485.47  1487.52  1489.22  1491.55  1518.43  1533.16
eigval :     1547.45  1556.14  1556.98  1577.23  1577.82  1586.81
eigval :     1587.97  1589.00  1605.41  1607.68  2368.45  2369.15
eigval :     2980.83  2981.29  3024.34  3026.27  3033.35  3044.05
eigval :     3075.29  3075.89  3078.64  3079.63  3081.48  3081.95
eigval :     3086.92  3086.99  3088.13  3090.87  3092.71  3093.26
eigval :     3095.95  3096.07  3096.56  3098.62  3099.09  3100.29
eigval :     3100.80  3104.47  3105.49  3105.82  3119.94  3125.21

   temp. (K)  partition function   enthalpy   heat capacity  entropy
                                   cal/mol     cal/K/mol   cal/K/mol   J/K/mol
 298.15  VIB  0.563E+19            24114.436    151.950    150.248
         ROT  0.137E+09              888.752      2.981     40.215
         INT  0.773E+27            25003.188    154.931    190.463
         TR   0.156E+29             1481.254      4.968     45.225
         TOT                       26484.4419   159.8993   235.6881   986.1190

       T/K    H(0)-H(T)+PV         H(T)/Eh          T*S/Eh         G(T)/Eh
   ------------------------------------------------------------------------
    298.15    0.422056E-01    0.647798E+00    0.111983E+00    0.535815E+00
   ------------------------------------------------------------------------

         :::::::::::::::::::::::::::::::::::::::::::::::::::::
         ::                  THERMODYNAMIC                  ::
         :::::::::::::::::::::::::::::::::::::::::::::::::::::
         :: total free energy        -124.869617008033 Eh   ::
         ::.................................................::
         :: total energy             -125.405432017533 Eh   ::
         :: zero point energy           0.605592383910 Eh   ::
         :: G(RRHO) w/o ZPVE           -0.069777374409 Eh   ::
         :: G(RRHO) contrib.            0.535815009501 Eh   ::
         :::::::::::::::::::::::::::::::::::::::::::::::::::::

           -------------------------------------------------
          | TOTAL ENERGY             -125.405432017533 Eh   |
          | TOTAL ENTHALPY           -124.757633988977 Eh   |
          | TOTAL FREE ENERGY        -124.869617008033 Eh   |
          | GRADIENT NORM               0.000148667523 Eh/α |
           -------------------------------------------------

 * finished run on 2025/08/26 at 00:43:49.848
