   * xtb version 6.7.1 (edcfbbe) compiled by 'albert@albert-system' on 2024-07-22

   ID    Z sym.   atoms
    1    6 C      1-9, 11-20, 22-34, 36-45, 47-50
    2    7 N      10, 21, 35, 46
    3    1 H      51-80

          program call               : xtb data2507/gas/m-CzCNDMT/m-CzCNDMT_gas_S0_crest.xyz --gfn 2 --ohess vtight --parallel 40 --molden --ceasefiles --namespace data2507/gas/m-CzCNDMT/m-CzCNDMT_gas_S0_finalOpt
          :  Hamiltonian                  GFN2-xTB          :
 * total energy  :  -125.5099058 Eh     change       -0.2369319E-08 Eh
 * total energy  :  -125.5099070 Eh     change       -0.1125881E-05 Eh
 * total energy  :  -125.5099074 Eh     change       -0.4644198E-06 Eh
 * total energy  :  -125.5099066 Eh     change        0.8559279E-06 Eh
 * total energy  :  -125.5099100 Eh     change       -0.3459870E-05 Eh
 * total energy  :  -125.5099112 Eh     change       -0.1162993E-05 Eh
 * total energy  :  -125.5099123 Eh     change       -0.1097364E-05 Eh
 * total energy  :  -125.5099139 Eh     change       -0.1636617E-05 Eh
 * total energy  :  -125.5099152 Eh     change       -0.1314831E-05 Eh
 * total energy  :  -125.5099165 Eh     change       -0.1213037E-05 Eh
 * total energy  :  -125.5099187 Eh     change       -0.2486718E-06 Eh
 * total energy  :  -125.5099188 Eh     change       -0.1266824E-06 Eh
 * total energy  :  -125.5099189 Eh     change       -0.1129821E-06 Eh
 * total energy  :  -125.5099190 Eh     change       -0.1082315E-06 Eh
 * total energy  :  -125.5099192 Eh     change       -0.1118537E-06 Eh
 * total energy  :  -125.5099193 Eh     change       -0.1236460E-06 Eh
 * total energy  :  -125.5099193 Eh     change        0.2231985E-08 Eh
 * total energy  :  -125.5099193 Eh     change        0.3862738E-08 Eh
 * total energy  :  -125.5099193 Eh     change       -0.4821848E-07 Eh
   *** GEOMETRY OPTIMIZATION CONVERGED AFTER 24 ITERATIONS ***

 final structure:
================
80
 xtb: 6.7.1 (edcfbbe)
C            1.30790872722906        4.38602046005493       -0.77078231713521
C            0.59587996372325        3.34370709077996        0.03910715068993
C           -0.78988700891342        3.30834987070049        0.03398901364488
C           -1.51557141002658        2.35156521930650        0.73447561129597
C           -2.98848954116954        2.39992574917845        0.66197704923472
C           -3.66172372703769        3.56925200513341        1.00592372570795
C           -5.04033367664297        3.63618415446235        0.91975001368915
C           -5.76848750771091        2.54424236466966        0.48362422442604
C           -5.10412463116724        1.37709399902787        0.12088172028558
N           -5.83378440006435        0.26850530604699       -0.34149408733560
C           -6.77134166253039        0.28919624179401       -1.35754239491077
C           -7.17455657016141        1.34250905198710       -2.16518033027130
C           -8.12585106220930        1.08290727221773       -3.13296806109918
C           -8.66166847488261       -0.19185310759464       -3.30482507866664
C           -8.24791446434665       -1.24856517516991       -2.51911917897083
C           -7.29259510540654       -1.01146644645522       -1.53946644838864
C           -6.63356112537759       -1.85086998961001       -0.57806962362795
C           -6.73098696801975       -3.19564955427150       -0.26672334443189
C           -5.93857518132896       -3.69331626346101        0.76451776898478
C           -6.00973766482862       -5.06143595908648        1.10402496205053
N           -6.06567146786673       -6.17356497558359        1.38063109192456
C           -5.07338911537507       -2.85307997357023        1.48487670988062
C           -4.96970466780001       -1.51341058433359        1.18330496009132
C           -5.73919659664469       -1.01492023541573        0.13792627084859
C           -3.71947329148703        1.30737469059097        0.21155919327532
C           -0.83278749142261        1.38872685540229        1.48193281015139
C           -1.54824241743510        0.34871051460042        2.29191354160946
C            0.55231246903257        1.42376819682982        1.48674621070128
C            1.27861439311334        2.38214915462697        0.78817123993902
C            2.75034690107501        2.34072513979745        0.87509667051196
C            3.48350196219151        3.44545402375590        1.29956174975738
C            4.86061768440745        3.37258801316138        1.40518208461161
C            5.52784951246918        2.20129022626912        1.09597112009882
C            4.80438879391546        1.09138753830970        0.67147724076396
N            5.46702154595758       -0.10783113907036        0.36145349138964
C            5.14992055736596       -1.35461361248610        0.86816006216113
C            4.17572962004261       -1.71209545930061        1.78869553134278
C            4.08576056282890       -3.04355901078153        2.14643213703713
C            4.94577519776498       -4.00089704448368        1.61230400224163
C            5.93188670738106       -3.64776267643580        0.71335902629671
C            6.04076194666221       -2.31494512907728        0.33864256848057
C            6.93376084818257       -1.60294741674576       -0.53261698545536
C            7.99362880888352       -1.99477363189117       -1.33127875252920
C            8.64848629760935       -1.02198738675894       -2.08209658759668
C            9.73735369568683       -1.38712103562615       -2.90264791247486
N           10.62332522876579       -1.68271207361798       -3.56897191291390
C            8.23806314015247        0.32109716090924       -2.04603936333501
C            7.18465734117285        0.72152669020011       -1.25444551652011
C            6.54166620211591       -0.24088989503265       -0.48357810193586
C            3.42157197600245        1.16466312865479        0.56198453398768
H            2.30667364192092        4.05707283501796       -1.04672251869275
H            0.74588006239173        4.60597444888355       -1.67614590921964
H            1.39850107123414        5.31320538035451       -0.20433190021512
H           -1.33034611809748        4.03990937439861       -0.55087393658580
H           -3.09726919791737        4.42124431719916        1.35459874802930
H           -5.55428049679466        4.54350778550210        1.20024438416686
H           -6.84589917534695        2.58514454417174        0.43147350486515
H           -6.75323059314677        2.32961688808743       -2.04973335979154
H           -8.45943873003362        1.88597617657275       -3.77317560856815
H           -9.40530612294699       -0.35227673186265       -4.07075330292851
H           -8.65209041250363       -2.23922733918391       -2.66121005967820
H           -7.40456627246030       -3.84709365076433       -0.80259993894746
H           -4.48826915228351       -3.27413652534645        2.28907851080310
H           -4.31843980376263       -0.86921017792577        1.75279226225148
H           -3.20930114200683        0.40898953221490       -0.10179179245113
H           -1.69970629146132       -0.55690846414000        1.70332909103004
H           -2.51841958218148        0.71276165173370        2.62302340327281
H           -0.95830086932796        0.07988282612408        3.16566677145727
H            1.09088980282009        0.69251015546005        2.07369048362175
H            2.96892244301281        4.35533409367080        1.56702246874173
H            5.42029319785580        4.23226369551388        1.74253516425677
H            6.60036653682469        2.13509800372562        1.19912903810712
H            3.51785653472053       -0.97403812419428        2.22171867771859
H            3.33410979757683       -3.34906022620581        2.85908035504273
H            4.84100983016591       -5.03152207383638        1.91588607699127
H            6.60822427834635       -4.38642116815185        0.31107433081213
H            8.30780827562025       -3.02645272802159       -1.37850344008908
H            8.76230593057931        1.04224301657522       -2.65539575387136
H            6.86375951144597        1.75199854632658       -1.24308898773591
H            2.86684483627955        0.30803235899389        0.20808578479266

          :  Hamiltonian                  GFN2-xTB          :
         :: gradient norm              0.000181347443 Eh/a0 ::
         :: HOMO-LUMO gap              3.060373829638 eV    ::
         :: SCC energy              -127.942284456864 Eh    ::
         :: -> dispersion             -0.110593025684 Eh    ::
         :: repulsion energy           2.432365132193 Eh    ::

    * Orbital Energies and Occupations

         #    Occupation            Energy/Eh            Energy/eV
      -------------------------------------------------------------
         1        2.0000           -0.6922899             -18.8382
       ...           ...                  ...                  ...
       105        2.0000           -0.4236659             -11.5285
       106        2.0000           -0.4230184             -11.5109
       107        2.0000           -0.4197140             -11.4210
       108        2.0000           -0.4182901             -11.3823
       109        2.0000           -0.4172847             -11.3549
       110        2.0000           -0.4132537             -11.2452
       111        2.0000           -0.4120302             -11.2119
       112        2.0000           -0.4055650             -11.0360
       113        2.0000           -0.3944349             -10.7331
       114        2.0000           -0.3939398             -10.7196
       115        2.0000           -0.3933894             -10.7047
       116        2.0000           -0.3774979             -10.2722
       117        2.0000           -0.3764475             -10.2437 (HOMO)
       118                         -0.2639808              -7.1833 (LUMO)
       119                         -0.2620102              -7.1297
       120                         -0.2610066              -7.1024
       121                         -0.2601969              -7.0803
       122                         -0.2597051              -7.0669
       123                         -0.2442637              -6.6468
       124                         -0.2435127              -6.6263
       125                         -0.2428791              -6.6091
       126                         -0.2313609              -6.2957
       127                         -0.2204188              -5.9979
       128                         -0.2182443              -5.9387
       ...                                ...                  ...
       230                          1.1788453              32.0780
      -------------------------------------------------------------
                  HL-Gap            0.1124667 Eh            3.0604 eV

     #   Z          covCN         q      C6AA      α(0)
     1   6 C        3.758    -0.107    22.605     6.779
     2   6 C        2.966     0.010    27.784     8.646
     3   6 C        2.933    -0.046    29.145     8.854
     4   6 C        2.980    -0.003    28.086     8.693
     5   6 C        2.978     0.016    27.639     8.624
     6   6 C        2.925    -0.038    28.936     8.822
     7   6 C        2.918    -0.029    28.715     8.787
     8   6 C        2.922    -0.045    29.108     8.847
     9   6 C        2.912     0.062    26.618     8.460
    10   7 N        2.803    -0.039    21.998     6.966
    11   6 C        3.080     0.048    26.840     8.493
    12   6 C        2.910    -0.049    29.213     8.863
    13   6 C        2.924    -0.031    28.772     8.796
    14   6 C        2.920    -0.038    28.949     8.823
    15   6 C        2.912    -0.031    28.770     8.795
    16   6 C        3.067    -0.016    28.343     8.730
    17   6 C        3.069    -0.014    28.298     8.723
    18   6 C        2.920    -0.024    28.604     8.771
    19   6 C        2.974     0.006    27.885     8.662
    20   6 C        1.914     0.110    28.382     8.604
    21   7 N        0.911    -0.247    26.426     7.435
    22   6 C        2.931    -0.027    28.667     8.781
    23   6 C        2.909    -0.050    29.239     8.867
    24   6 C        3.076     0.052    26.745     8.479
    25   6 C        2.927    -0.046    29.152     8.854
    26   6 C        2.966     0.009    27.812     8.650
    27   6 C        3.757    -0.104    22.532     6.768
    28   6 C        2.933    -0.045    29.128     8.851
    29   6 C        2.980    -0.003    28.085     8.693
    30   6 C        2.978     0.016    27.643     8.624
    31   6 C        2.924    -0.037    28.914     8.818
    32   6 C        2.919    -0.029    28.730     8.790
    33   6 C        2.922    -0.045    29.118     8.849
    34   6 C        2.912     0.062    26.607     8.458
    35   7 N        2.803    -0.039    21.995     6.965
    36   6 C        3.080     0.048    26.840     8.493
    37   6 C        2.910    -0.048    29.203     8.861
    38   6 C        2.924    -0.031    28.774     8.797
    39   6 C        2.920    -0.038    28.948     8.823
    40   6 C        2.912    -0.031    28.766     8.795
    41   6 C        3.066    -0.016    28.339     8.729
    42   6 C        3.069    -0.014    28.296     8.722
    43   6 C        2.920    -0.024    28.604     8.770
    44   6 C        2.974     0.006    27.879     8.661
    45   6 C        1.914     0.110    28.377     8.603
    46   7 N        0.911    -0.247    26.423     7.434
    47   6 C        2.931    -0.026    28.653     8.779
    48   6 C        2.909    -0.048    29.203     8.861
    49   6 C        3.075     0.052    26.745     8.479
    50   6 C        2.929    -0.048    29.186     8.860
    51   1 H        0.925     0.043     2.408     2.427
    52   1 H        0.925     0.044     2.391     2.418
    53   1 H        0.924     0.047     2.359     2.402
    54   1 H        0.925     0.033     2.543     2.494
    55   1 H        0.926     0.038     2.475     2.460
    56   1 H        0.926     0.038     2.471     2.458
    57   1 H        0.926     0.041     2.433     2.439
    58   1 H        0.926     0.031     2.573     2.508
    59   1 H        0.926     0.034     2.535     2.490
    60   1 H        0.926     0.033     2.540     2.492
    61   1 H        0.926     0.035     2.510     2.477
    62   1 H        0.926     0.041     2.431     2.438
    63   1 H        0.926     0.039     2.468     2.457
    64   1 H        0.926     0.035     2.515     2.480
    65   1 H        0.926     0.042     2.418     2.432
    66   1 H        0.924     0.046     2.367     2.406
    67   1 H        0.925     0.039     2.458     2.452
    68   1 H        0.925     0.044     2.402     2.424
    69   1 H        0.925     0.031     2.572     2.508
    70   1 H        0.926     0.040     2.451     2.448
    71   1 H        0.926     0.038     2.473     2.459
    72   1 H        0.926     0.040     2.446     2.446
    73   1 H        0.926     0.029     2.598     2.521
    74   1 H        0.926     0.033     2.539     2.492
    75   1 H        0.926     0.034     2.534     2.489
    76   1 H        0.926     0.036     2.507     2.476
    77   1 H        0.926     0.042     2.428     2.437
    78   1 H        0.926     0.039     2.457     2.451
    79   1 H        0.926     0.034     2.531     2.488
    80   1 H        0.926     0.042     2.419     2.432

molecular dipole:
                 x           y           z       tot (Debye)
 q only:       -1.236       2.789       0.777
   full:       -1.561       3.478       0.974      10.002

 projected vibrational frequencies (cm⁻¹)
eigval :       -0.00    -0.00    -0.00    -0.00     0.00     0.00
eigval :        7.64     8.72    12.99    21.68    24.75    34.30
eigval :       41.32    55.22    57.66    71.76    73.17    82.33
eigval :       88.02    97.18   103.94   108.36   109.89   118.39
eigval :      123.63   134.01   144.93   158.10   166.49   167.59
eigval :      184.35   205.52   220.40   229.84   230.05   236.82
eigval :      260.32   268.73   273.85   276.13   279.10   283.61
eigval :      288.86   310.27   318.88   365.21   375.55   388.79
eigval :      391.89   393.49   398.39   405.49   411.21   421.82
eigval :      422.86   434.49   437.85   442.07   458.78   467.96
eigval :      468.75   475.82   480.00   504.67   515.95   531.07
eigval :      538.40   541.19   553.63   558.94   579.24   593.47
eigval :      596.18   598.04   599.10   600.74   608.45   618.58
eigval :      634.79   643.28   653.97   668.93   673.60   677.47
eigval :      678.96   680.08   695.21   703.79   709.42   709.45
eigval :      721.41   742.29   761.56   775.50   776.08   798.29
eigval :      804.17   817.17   821.79   823.58   850.17   854.47
eigval :      868.28   869.20   869.58   871.32   873.56   889.12
eigval :      897.12   898.76   901.62   902.05   907.90   908.38
eigval :      911.25   912.79   913.08   924.13   924.41   926.68
eigval :      930.28   933.37   933.70   950.47  1000.02  1000.78
eigval :     1009.83  1021.19  1025.18  1027.98  1029.42  1032.41
eigval :     1033.85  1070.96  1071.28  1079.23  1118.57  1119.15
eigval :     1127.27  1128.48  1149.73  1150.41  1168.31  1174.14
eigval :     1177.66  1178.55  1184.29  1184.32  1187.30  1189.09
eigval :     1197.01  1204.83  1227.84  1237.13  1239.92  1245.80
eigval :     1255.94  1257.42  1261.13  1266.08  1280.33  1282.20
eigval :     1308.19  1310.69  1313.73  1316.07  1316.86  1335.39
eigval :     1349.69  1351.08  1359.21  1359.64  1364.65  1370.09
eigval :     1396.37  1405.60  1407.81  1416.73  1420.91  1424.70
eigval :     1425.89  1444.45  1452.61  1467.98  1469.90  1473.00
eigval :     1478.58  1484.01  1484.68  1485.50  1485.87  1486.05
eigval :     1490.20  1512.82  1558.28  1558.44  1562.27  1575.03
eigval :     1576.01  1581.55  1581.82  1589.64  1589.88  1593.09
eigval :     1593.88  1602.00  1612.23  1612.43  2370.07  2370.80
eigval :     2991.90  2996.52  3031.16  3032.19  3034.46  3043.63
eigval :     3069.89  3071.34  3080.47  3080.76  3081.63  3082.73
eigval :     3086.10  3086.21  3086.71  3089.23  3089.52  3091.47
eigval :     3092.64  3092.73  3095.15  3095.58  3095.89  3095.97
eigval :     3098.00  3099.20  3100.18  3100.38  3102.67  3104.78

   temp. (K)  partition function   enthalpy   heat capacity  entropy
                                   cal/mol     cal/K/mol   cal/K/mol   J/K/mol
 298.15  VIB  0.749E+19            24000.333    149.905    150.376
         ROT  0.135E+09              888.752      2.981     40.189
         INT  0.101E+28            24889.086    152.886    190.565
         TR   0.156E+29             1481.254      4.968     45.225
         TOT                       26370.3395   157.8544   235.7902   986.5463

       T/K    H(0)-H(T)+PV         H(T)/Eh          T*S/Eh         G(T)/Eh
   ------------------------------------------------------------------------
    298.15    0.420238E-01    0.651752E+00    0.112032E+00    0.539720E+00
   ------------------------------------------------------------------------

         :::::::::::::::::::::::::::::::::::::::::::::::::::::
         ::                  THERMODYNAMIC                  ::
         :::::::::::::::::::::::::::::::::::::::::::::::::::::
         :: total free energy        -124.970198841460 Eh   ::
         ::.................................................::
         :: total energy             -125.509919324671 Eh   ::
         :: zero point energy           0.609728215296 Eh   ::
         :: G(RRHO) w/o ZPVE           -0.070007732085 Eh   ::
         :: G(RRHO) contrib.            0.539720483211 Eh   ::
         :::::::::::::::::::::::::::::::::::::::::::::::::::::

           -------------------------------------------------
          | TOTAL ENERGY             -125.509919324671 Eh   |
          | TOTAL ENTHALPY           -124.858167298387 Eh   |
          | TOTAL FREE ENERGY        -124.970198841460 Eh   |
          | GRADIENT NORM               0.000181377238 Eh/α |
          | HOMO-LUMO GAP               3.060373379348 eV   |
           -------------------------------------------------

 * finished run on 2025/08/26 at 00:38:19.128
