   * xtb version 6.7.1 (edcfbbe) compiled by 'albert@albert-system' on 2024-07-22

   ID    Z sym.   atoms
    1    6 C      1-9, 11-20, 22-34, 36-45, 47-50
    2    7 N      10, 21, 35, 46
    3    1 H      51-80

          program call               : xtb data2507/gas/m-CzCNDMT/m-CzCNDMT.xyz --gfn 2 --ohess vtight --parallel 40 --molden --ceasefiles --namespace data2507/gas/m-CzCNDMT/m-CzCNDMT_gas_S0_preOpt
          :  Hamiltonian                  GFN2-xTB          :
 * total energy  :  -125.4865404 Eh     change       -0.5510842E-08 Eh
 * total energy  :  -125.5025345 Eh     change       -0.1599412E-01 Eh
 * total energy  :  -125.5059039 Eh     change       -0.3369405E-02 Eh
 * total energy  :  -125.5065203 Eh     change       -0.6163783E-03 Eh
 * total energy  :  -125.5067499 Eh     change       -0.2295264E-03 Eh
 * total energy  :  -125.5071851 Eh     change       -0.4352851E-03 Eh
 * total energy  :  -125.5073149 Eh     change       -0.1297494E-03 Eh
 * total energy  :  -125.5074504 Eh     change       -0.1355602E-03 Eh
 * total energy  :  -125.5075142 Eh     change       -0.6379598E-04 Eh
 * total energy  :  -125.5075648 Eh     change       -0.5050755E-04 Eh
 * total energy  :  -125.5092481 Eh     change       -0.1164135E-05 Eh
 * total energy  :  -125.5092491 Eh     change       -0.1001450E-05 Eh
 * total energy  :  -125.5092500 Eh     change       -0.9167841E-06 Eh
 * total energy  :  -125.5092508 Eh     change       -0.7735546E-06 Eh
 * total energy  :  -125.5092515 Eh     change       -0.7471642E-06 Eh
 * total energy  :  -125.5092524 Eh     change       -0.8664556E-06 Eh
 * total energy  :  -125.5092534 Eh     change       -0.9942074E-06 Eh
 * total energy  :  -125.5092543 Eh     change       -0.8925212E-06 Eh
 * total energy  :  -125.5092543 Eh     change       -0.5907509E-08 Eh
   *** GEOMETRY OPTIMIZATION CONVERGED AFTER 68 ITERATIONS ***

 final structure:
================
80
 xtb: 6.7.1 (edcfbbe)
C            1.28143347162601        1.49720814661495       -1.76906968848981
C            0.59108438816959        1.79194734855209       -0.47054361981872
C           -0.79410984824456        1.81850099828578       -0.42636661291756
C           -1.49835596398993        2.11874246785354        0.73417435344186
C           -2.97257661751806        2.13320094279915        0.67717532040048
C           -3.69935026387832        3.26546112272321        1.03406284467333
C           -5.07984573341443        3.26614775994712        0.94928145668943
C           -5.75747190728077        2.13887648897594        0.52169229537862
C           -5.03975167523335        1.00527214889716        0.15410634937405
N           -5.71629419354072       -0.14675397329046       -0.28085765830374
C           -6.68328771987553       -0.19187348533823       -1.26782145539986
C           -7.16274658830385        0.82460632273116       -2.08105607149687
C           -8.12591642338239        0.49902593968192       -3.01668017829590
C           -8.59979946179795       -0.80438311286401       -3.15156505024568
C           -8.11079153490916       -1.82393861682170       -2.35995175693446
C           -7.14208738396154       -1.52049420271162       -1.41230033920149
C           -6.41346111421294       -2.30757393853866       -0.45680557583088
C           -6.43471517824369       -3.64940473625599       -0.11934100547607
C           -5.58778980957927       -4.08768923947120        0.89529217088731
C           -5.58206161291110       -5.45071639952573        1.26181401650555
N           -5.57620837050894       -6.55862920296235        1.55994412063223
C           -4.74200182873706       -3.19294467091428        1.57174994149754
C           -4.71324521870789       -1.85565437429973        1.24387149877703
C           -5.54110779688014       -1.41512283846422        0.21689878539203
C           -3.65231424086121        1.00957242636425        0.22236346770299
C           -0.79495172106562        2.39415892618394        1.90942406401319
C           -1.48570875182286        2.69204237196840        3.20714724398881
C            0.59016403457251        2.36675576474746        1.86557370187625
C            1.29464051216272        2.06842247183974        0.70452909480249
C            2.76858000043852        2.05907635021001        0.76533542168410
C            3.45359620035147        3.17878346621894        1.22964507973612
C            4.83437610281060        3.17341847720234        1.30712577500743
C            5.55234340406037        2.04963529743199        0.94041103026596
C            4.87679102847551        0.92341887175219        0.48142896585994
N            5.59271705085535       -0.22821622633483        0.11363882200364
C            5.35111866588273       -1.50865974114575        0.57671802819801
C            4.41191444050777       -1.95302527273858        1.49594051374393
C            4.40077587180219       -3.30009793477701        1.80345623768706
C            5.30298614075118       -4.18821728492071        1.22146101546308
C            6.25312178874816       -3.74840720622092        0.32201904298782
C            6.28316702669111       -2.39851709279815       -0.00288323946316
C            7.12130455259666       -1.60719148260479       -0.86002355456957
C            8.18586166193330       -1.91104958417313       -1.69012582121350
C            8.77419547000853       -0.87690358126731       -2.41354620708127
C            9.86539267109429       -1.15209025659227       -3.26546407994191
N           10.75301024848609       -1.37502891155309       -3.95741941942297
C            8.29361825265959        0.43981743541525       -2.31910144962920
C            7.23488724366417        0.75287029479866       -1.49582011015049
C            6.65806321289866       -0.27110407428857       -0.75228962724656
C            3.49069740711235        0.93298322845371        0.38977046970383
H            1.39306065307946        0.42140366574421       -1.90746585138216
H            0.69295381723019        1.87736443181613       -2.60153421810924
H            2.27009551231792        1.94858102005547       -1.80130380584307
H           -1.35089736489780        1.61936851233309       -1.33178875684019
H           -3.17720392595142        4.15138031023716        1.36106797040099
H           -5.63532750472467        4.14943624239576        1.22733923316812
H           -6.83607544488638        2.12617005321166        0.48148609095759
H           -6.78995729597202        1.83396808794353       -1.99445809134497
H           -8.51803455910388        1.27210927173509       -3.66062339687641
H           -9.35470206903483       -1.01673774536620       -3.89347263085758
H           -8.46702633745761       -2.83641913486330       -2.47375350560346
H           -7.09125750376220       -4.34299968352594       -0.62248970014849
H           -4.11061347368959       -3.57006505768258        2.36253776549249
H           -4.07223271751697       -1.17099555194108        1.77802841853495
H           -3.09778368664589        0.13255325350079       -0.07832233910271
H           -1.57946943105331        3.76878150183872        3.35036575755671
H           -0.90731319823810        2.29735282920720        4.04000810804500
H           -2.48269273030514        2.25900998873824        3.23293369188613
H            1.14701842543324        2.56636601978536        2.77087454021199
H            2.89696938131639        4.05846811089896        1.51663803223496
H            5.35727100005400        4.04788148694260        1.66481761942748
H            6.62849595121050        2.03261129862931        1.02372114331081
H            3.71933668407492       -1.27041586283107        1.96464536504302
H            3.67787114545011       -3.67246785456579        2.51392782815182
H            5.25967649380360       -5.23356345250708        1.48739148983615
H            6.96165998459271       -4.43323226495176       -0.11832010025027
H            8.55362217153573       -2.92180399346273       -1.78198626919165
H            8.76755038239540        1.21059507186063       -2.90858371066953
H            6.86019782233015        1.76354792529870       -1.43942622334520
H            2.97491692891636        0.05549089075231        0.03072693803578

          :  Hamiltonian                  GFN2-xTB          :
         :: gradient norm              0.000056120276 Eh/a0 ::
         :: HOMO-LUMO gap              3.059944454787 eV    ::
         :: SCC energy              -127.941315167859 Eh    ::
         :: -> dispersion             -0.109356584791 Eh    ::
         :: repulsion energy           2.432060880120 Eh    ::

    * Orbital Energies and Occupations

         #    Occupation            Energy/Eh            Energy/eV
      -------------------------------------------------------------
         1        2.0000           -0.6921689             -18.8349
       ...           ...                  ...                  ...
       105        2.0000           -0.4233355             -11.5195
       106        2.0000           -0.4228380             -11.5060
       107        2.0000           -0.4195661             -11.4170
       108        2.0000           -0.4180919             -11.3769
       109        2.0000           -0.4170467             -11.3484
       110        2.0000           -0.4129947             -11.2382
       111        2.0000           -0.4120390             -11.2122
       112        2.0000           -0.4051365             -11.0243
       113        2.0000           -0.3941931             -10.7265
       114        2.0000           -0.3936116             -10.7107
       115        2.0000           -0.3932056             -10.6997
       116        2.0000           -0.3773852             -10.2692
       117        2.0000           -0.3764502             -10.2437 (HOMO)
       118                         -0.2639993              -7.1838 (LUMO)
       119                         -0.2618646              -7.1257
       120                         -0.2607535              -7.0955
       121                         -0.2598765              -7.0716
       122                         -0.2590718              -7.0497
       123                         -0.2441900              -6.6447
       124                         -0.2432709              -6.6197
       125                         -0.2428193              -6.6074
       126                         -0.2310783              -6.2880
       127                         -0.2196497              -5.9770
       128                         -0.2180157              -5.9325
       ...                                ...                  ...
       230                          1.1787190              32.0746
      -------------------------------------------------------------
                  HL-Gap            0.1124509 Eh            3.0599 eV

     #   Z          covCN         q      C6AA      α(0)
     1   6 C        3.758    -0.107    22.589     6.776
     2   6 C        2.966     0.010    27.791     8.647
     3   6 C        2.932    -0.046    29.144     8.854
     4   6 C        2.980    -0.003    28.094     8.694
     5   6 C        2.978     0.016    27.640     8.624
     6   6 C        2.924    -0.037    28.908     8.817
     7   6 C        2.919    -0.029    28.728     8.789
     8   6 C        2.922    -0.045    29.113     8.848
     9   6 C        2.912     0.062    26.611     8.459
    10   7 N        2.803    -0.039    21.998     6.966
    11   6 C        3.079     0.048    26.841     8.494
    12   6 C        2.910    -0.049    29.215     8.863
    13   6 C        2.924    -0.031    28.774     8.797
    14   6 C        2.920    -0.038    28.950     8.823
    15   6 C        2.912    -0.031    28.771     8.796
    16   6 C        3.066    -0.016    28.343     8.730
    17   6 C        3.069    -0.014    28.297     8.722
    18   6 C        2.920    -0.024    28.606     8.771
    19   6 C        2.974     0.006    27.881     8.661
    20   6 C        1.914     0.110    28.379     8.603
    21   7 N        0.911    -0.247    26.425     7.435
    22   6 C        2.931    -0.026    28.655     8.779
    23   6 C        2.909    -0.048    29.202     8.861
    24   6 C        3.075     0.052    26.745     8.479
    25   6 C        2.929    -0.048    29.194     8.861
    26   6 C        2.966     0.010    27.798     8.648
    27   6 C        3.758    -0.107    22.595     6.777
    28   6 C        2.932    -0.046    29.151     8.855
    29   6 C        2.980    -0.003    28.088     8.693
    30   6 C        2.978     0.016    27.643     8.624
    31   6 C        2.925    -0.038    28.940     8.822
    32   6 C        2.918    -0.029    28.717     8.788
    33   6 C        2.922    -0.045    29.118     8.849
    34   6 C        2.912     0.062    26.618     8.460
    35   7 N        2.803    -0.039    22.000     6.966
    36   6 C        3.079     0.048    26.845     8.494
    37   6 C        2.910    -0.049    29.218     8.863
    38   6 C        2.924    -0.031    28.772     8.796
    39   6 C        2.920    -0.038    28.946     8.823
    40   6 C        2.912    -0.031    28.771     8.795
    41   6 C        3.067    -0.016    28.343     8.730
    42   6 C        3.069    -0.014    28.298     8.723
    43   6 C        2.920    -0.024    28.606     8.771
    44   6 C        2.974     0.006    27.881     8.661
    45   6 C        1.914     0.110    28.378     8.603
    46   7 N        0.911    -0.247    26.425     7.435
    47   6 C        2.931    -0.026    28.655     8.779
    48   6 C        2.909    -0.049    29.207     8.862
    49   6 C        3.075     0.052    26.749     8.480
    50   6 C        2.927    -0.047    29.160     8.856
    51   1 H        0.924     0.046     2.365     2.405
    52   1 H        0.925     0.044     2.393     2.419
    53   1 H        0.925     0.042     2.418     2.432
    54   1 H        0.925     0.032     2.552     2.498
    55   1 H        0.926     0.040     2.453     2.449
    56   1 H        0.926     0.038     2.473     2.459
    57   1 H        0.926     0.041     2.435     2.440
    58   1 H        0.926     0.031     2.573     2.508
    59   1 H        0.926     0.034     2.535     2.490
    60   1 H        0.926     0.033     2.541     2.493
    61   1 H        0.926     0.035     2.511     2.478
    62   1 H        0.926     0.041     2.429     2.437
    63   1 H        0.926     0.039     2.461     2.453
    64   1 H        0.926     0.034     2.532     2.488
    65   1 H        0.926     0.041     2.436     2.440
    66   1 H        0.924     0.047     2.361     2.403
    67   1 H        0.925     0.044     2.393     2.419
    68   1 H        0.925     0.042     2.424     2.435
    69   1 H        0.925     0.033     2.544     2.494
    70   1 H        0.926     0.038     2.478     2.462
    71   1 H        0.926     0.038     2.472     2.459
    72   1 H        0.926     0.040     2.446     2.446
    73   1 H        0.926     0.031     2.576     2.510
    74   1 H        0.926     0.034     2.532     2.488
    75   1 H        0.926     0.034     2.533     2.489
    76   1 H        0.926     0.036     2.508     2.476
    77   1 H        0.926     0.041     2.429     2.437
    78   1 H        0.926     0.039     2.458     2.452
    79   1 H        0.926     0.034     2.532     2.488
    80   1 H        0.926     0.044     2.394     2.420

molecular dipole:
                 x           y           z       tot (Debye)
 q only:       -1.384       2.636       0.821
   full:       -1.733       3.298       1.023       9.821

 projected vibrational frequencies (cm⁻¹)
eigval :       -0.00    -0.00     0.00     0.00     0.00     0.00
eigval :        7.07     8.48    11.88    19.12    25.01    31.08
eigval :       43.72    51.52    58.51    68.37    76.72    81.64
eigval :       87.54    94.57    99.75   108.78   111.92   119.18
eigval :      123.19   126.95   138.89   145.61   165.72   167.28
eigval :      186.92   209.96   224.18   228.44   231.98   236.34
eigval :      252.63   268.76   273.15   275.25   276.48   283.47
eigval :      292.88   309.48   318.58   364.96   375.13   389.64
eigval :      391.87   393.73   399.20   402.20   411.92   421.45
eigval :      423.25   428.97   439.77   448.07   458.64   467.75
eigval :      468.24   478.26   481.85   490.43   520.53   532.18
eigval :      539.60   542.68   555.73   560.80   577.84   592.65
eigval :      596.78   597.32   599.04   601.06   608.64   616.43
eigval :      633.87   640.67   657.13   668.85   673.27   677.53
eigval :      678.73   681.79   695.29   704.99   709.44   709.49
eigval :      720.65   741.59   761.65   776.18   776.35   798.58
eigval :      804.02   816.38   822.17   823.55   850.13   855.17
eigval :      869.09   869.75   871.18   872.68   873.79   890.34
eigval :      897.36   900.07   901.30   902.35   908.57   909.40
eigval :      911.48   912.00   913.68   924.30   925.32   926.67
eigval :      930.15   932.92   933.86   950.57  1000.02  1000.81
eigval :     1009.44  1021.67  1025.30  1027.72  1028.02  1031.75
eigval :     1033.06  1071.19  1071.65  1078.88  1118.83  1119.33
eigval :     1127.06  1128.57  1150.38  1151.33  1168.30  1174.16
eigval :     1177.95  1178.79  1184.22  1184.27  1187.30  1189.22
eigval :     1196.85  1205.24  1228.05  1237.56  1240.80  1245.90
eigval :     1254.34  1258.23  1261.03  1266.07  1280.21  1282.53
eigval :     1308.24  1310.36  1313.52  1316.42  1316.66  1335.38
eigval :     1349.41  1351.15  1359.21  1359.44  1365.46  1369.24
eigval :     1396.46  1406.20  1408.40  1418.97  1419.83  1421.80
eigval :     1427.44  1446.10  1450.90  1468.76  1470.05  1472.24
eigval :     1478.55  1483.93  1484.41  1484.83  1485.55  1485.93
eigval :     1487.83  1512.55  1558.03  1558.20  1561.74  1575.48
eigval :     1576.50  1581.38  1581.65  1589.39  1591.05  1593.04
eigval :     1593.83  1601.60  1612.08  1612.28  2370.35  2370.62
eigval :     2995.26  2997.07  3031.81  3032.80  3041.47  3041.94
eigval :     3070.49  3070.52  3080.68  3080.99  3081.49  3082.86
eigval :     3085.90  3086.05  3086.14  3086.43  3087.81  3091.34
eigval :     3092.37  3092.40  3095.70  3095.78  3096.28  3097.63
eigval :     3097.78  3098.62  3099.39  3100.08  3100.47  3102.06

   temp. (K)  partition function   enthalpy   heat capacity  entropy
                                   cal/mol     cal/K/mol   cal/K/mol   J/K/mol
 298.15  VIB  0.130E+20            24043.261    149.825    151.100
         ROT  0.135E+09              888.752      2.981     40.183
         INT  0.175E+28            24932.014    152.806    191.283
         TR   0.156E+29             1481.254      4.968     45.225
         TOT                       26413.2677   157.7740   236.5078   989.5488

       T/K    H(0)-H(T)+PV         H(T)/Eh          T*S/Eh         G(T)/Eh
   ------------------------------------------------------------------------
    298.15    0.420922E-01    0.651753E+00    0.112373E+00    0.539380E+00
   ------------------------------------------------------------------------

         :::::::::::::::::::::::::::::::::::::::::::::::::::::
         ::                  THERMODYNAMIC                  ::
         :::::::::::::::::::::::::::::::::::::::::::::::::::::
         :: total free energy        -124.969874011738 Eh   ::
         ::.................................................::
         :: total energy             -125.509254287738 Eh   ::
         :: zero point energy           0.609660555980 Eh   ::
         :: G(RRHO) w/o ZPVE           -0.070280279979 Eh   ::
         :: G(RRHO) contrib.            0.539380276000 Eh   ::
         :::::::::::::::::::::::::::::::::::::::::::::::::::::

           -------------------------------------------------
          | TOTAL ENERGY             -125.509254287738 Eh   |
          | TOTAL ENTHALPY           -124.857501510347 Eh   |
          | TOTAL FREE ENERGY        -124.969874011738 Eh   |
          | GRADIENT NORM               0.000056107453 Eh/α |
          | HOMO-LUMO GAP               3.059944381100 eV   |
           -------------------------------------------------

 * finished run on 2025/08/26 at 00:31:50.632
