   * xtb version 6.7.1 (edcfbbe) compiled by 'albert@albert-system' on 2024-07-22

   ID    Z sym.   atoms
    1    6 C      1-9, 11-20, 22-34, 36-45, 47-50
    2    7 N      10, 21, 35, 46
    3    1 H      51-80

          program call               : xtb data2507/gas/m-CzCNDMT/m-CzCNDMT_gas_S0_finalOpt.xtbopt.xyz --gfn 2 --spinpol --tblite --uhf 2 --ohess vtight --parallel 40 --molden --ceasefiles --namespace data2507/gas/m-CzCNDMT/m-CzCNDMT_gas_T1_preOpt
 * total energy  :  -125.3972746 Eh     change       -0.9956550E-07 Eh
 * total energy  :  -125.3985622 Eh     change       -0.1287571E-02 Eh
 * total energy  :  -125.3989836 Eh     change       -0.4214414E-03 Eh
 * total energy  :  -125.3990925 Eh     change       -0.1088873E-03 Eh
 * total energy  :  -125.3991814 Eh     change       -0.8890206E-04 Eh
 * total energy  :  -125.3992673 Eh     change       -0.8588312E-04 Eh
 * total energy  :  -125.3993498 Eh     change       -0.8256678E-04 Eh
 * total energy  :  -125.3994194 Eh     change       -0.6959588E-04 Eh
 * total energy  :  -125.3995026 Eh     change       -0.8315832E-04 Eh
 * total energy  :  -125.3995961 Eh     change       -0.9348103E-04 Eh
 * total energy  :  -125.4054355 Eh     change        0.1488957E-06 Eh
 * total energy  :  -125.4054356 Eh     change       -0.1647628E-06 Eh
 * total energy  :  -125.4054357 Eh     change       -0.1022044E-06 Eh
 * total energy  :  -125.4054359 Eh     change       -0.1205884E-06 Eh
 * total energy  :  -125.4054360 Eh     change       -0.1356739E-06 Eh
 * total energy  :  -125.4054368 Eh     change       -0.8333413E-06 Eh
 * total energy  :  -125.4054368 Eh     change        0.3054708E-08 Eh
 * total energy  :  -125.4054370 Eh     change       -0.1344863E-06 Eh
 * total energy  :  -125.4054370 Eh     change       -0.4356205E-07 Eh
   *** GEOMETRY OPTIMIZATION CONVERGED AFTER 81 ITERATIONS ***

 final structure:
================
80
 xtb: 6.7.1 (edcfbbe)
C            1.21135416526904        4.76058577336184       -0.30576349583641
C            0.55767682628244        3.55104483859473        0.29213581507498
C           -0.79880603705944        3.50506997482349        0.35952761297036
C           -1.54725258176944        2.34465401242444        0.72315259784683
C           -2.96854352480687        2.38557313600971        0.64129918914966
C           -3.67047270277404        3.59106272976979        0.92156332223753
C           -5.03835518411969        3.65960133036755        0.83719400345818
C           -5.78637499106983        2.55514772523828        0.44319107503620
C           -5.11519937651700        1.36514894760376        0.12669216132760
N           -5.85862300612263        0.25662002296939       -0.31855411737412
C           -6.77614778251651        0.27335150200865       -1.35099614562508
C           -7.14319346402646        1.31792620110601       -2.18763491579125
C           -8.08386886289790        1.05785618730976       -3.16574081583905
C           -8.64219793306827       -0.20927176759841       -3.32090763070934
C           -8.26313430519876       -1.25866388608157       -2.50682185247276
C           -7.32049198232638       -1.02071811103310       -1.51611556584633
C           -6.69305070517674       -1.85264042257835       -0.52672011889977
C           -6.81969438140041       -3.18831295519987       -0.19040648159330
C           -6.05275146925688       -3.67910624295297        0.86405420239229
C           -6.15344218722300       -5.03890917151261        1.22832321165014
N           -6.23371720998950       -6.14454609386043        1.52432677281067
C           -5.18525869417280       -2.83962359985635        1.58265353458593
C           -5.05265029552081       -1.50856321670955        1.25561921919117
C           -5.79524552544997       -1.01746608071281        0.18730236520225
C           -3.74526111965275        1.27624369232223        0.23352608062271
C           -0.77662649937819        1.17792422945776        1.10429973497295
C           -1.43193923930469       -0.03198596950818        1.69899572221297
C            0.57964558358284        1.22460679848852        1.04098472528263
C            1.32887697733122        2.38854051044126        0.68702784697847
C            2.74664479354607        2.36004289696664        0.79675559952928
C            3.51996466383927        3.48913974385992        1.18298527192334
C            4.88705185487159        3.41885920128841        1.28237167396351
C            5.56736506135637        2.23586641943954        1.01082343148092
C            4.82645511601890        1.10347057656593        0.63921145599844
N            5.49522530132245       -0.10372818026091        0.37334407845845
C            5.18823090437235       -1.33155214267166        0.92734355012510
C            4.22391187949300       -1.65839093295086        1.87004855928539
C            4.14383831899573       -2.97587971693417        2.27885116359536
C            5.00283971441906       -3.94870579004831        1.77207872918957
C            5.98004066223903       -3.62523987430330        0.85102686638636
C            6.07916786649367       -2.30764330825674        0.42592451592699
C            6.96105779715661       -1.62366835043456       -0.47980612937406
C            8.01553333892271       -2.03777564239911       -1.27298843257405
C            8.65729894243268       -1.08804254165156       -2.06530480003417
C            9.74015173923778       -1.47744405090908       -2.88264113308616
N           10.62131947073715       -1.79362974909533       -3.54583396525363
C            8.23899959749568        0.25299877100518       -2.07472348021814
C            7.18905404037010        0.67532243215028       -1.28972631100137
C            6.56026765694839       -0.26266861367706       -0.47745491701724
C            3.45531438689078        1.15907578109159        0.54482553782589
H            2.15030594954833        4.50304645895915       -0.78890101243640
H            0.55058761723663        5.21206711059981       -1.04379257690767
H            1.40864186759285        5.51598518634149        0.45622104187222
H           -1.35565305019759        4.36223687961893        0.00909066172429
H           -3.11648769938863        4.45096750230679        1.26422039181255
H           -5.54644443873329        4.58013539379355        1.08502304227814
H           -6.86258051402376        2.59899266276015        0.39274344687851
H           -6.70191933158043        2.29757527949837       -2.08474926861719
H           -8.38996915554173        1.85381279528671       -3.82806511037790
H           -9.37542737940550       -0.37101725377484       -4.09652335168643
H           -8.68501513001473       -2.24359880926518       -2.63669496208467
H           -7.49611843415101       -3.83877761160726       -0.72391409267364
H           -4.62106798512180       -3.25422539912874        2.40483274729623
H           -4.40007269705356       -0.86359847597538        1.82227085316095
H           -3.25713395732513        0.36924923120233       -0.08267875436852
H           -1.69282400369829       -0.76126916037219        0.93089324754406
H           -2.33493540336640        0.24578656003827        2.23749679563982
H           -0.75044986684124       -0.52217607674600        2.39190944747123
H            1.13315932720807        0.36404436098020        1.38799694083541
H            3.01715802945785        4.39682342359281        1.47031256139538
H            5.44662456635521        4.28794500952755        1.59622439307624
H            6.63780448391041        2.17026407325262        1.12273563064556
H            3.56763840634867       -0.90629673682920        2.28092747933647
H            3.40075457539599       -3.25766133833618        3.00991899791886
H            4.90545890439553       -4.96790521408247        2.11412659565734
H            6.65604701368936       -4.37592160203778        0.47114670163952
H            8.33667055419603       -3.06829864264534       -1.28595506635502
H            8.75286671739587        0.95416566823992       -2.71531909550039
H            6.85899226658612        1.70256737205238       -1.31346470166361
H            2.92025012451916        0.28665327248229        0.20255241784032

 projected vibrational frequencies (cm⁻¹)
eigval :       -0.00    -0.00    -0.00     0.00     0.00     0.00
eigval :        6.34     8.38    12.75    21.89    25.31    36.19
eigval :       39.02    58.79    61.62    72.60    75.85    84.37
eigval :       95.10    99.49   106.71   108.82   111.32   118.58
eigval :      126.77   147.72   162.30   167.77   179.94   192.07
eigval :      204.58   212.36   216.11   223.42   226.00   232.29
eigval :      253.98   269.34   275.67   276.76   288.65   294.81
eigval :      300.73   312.87   326.10   349.67   370.97   377.04
eigval :      388.38   391.08   392.75   402.62   404.21   409.93
eigval :      412.31   421.60   422.44   434.80   444.56   466.48
eigval :      466.76   474.74   479.08   499.95   502.18   530.26
eigval :      538.46   541.80   546.49   554.71   561.50   570.70
eigval :      584.60   591.74   596.95   598.85   599.40   601.13
eigval :      621.07   626.56   633.17   642.27   649.49   656.38
eigval :      665.57   678.83   679.37   695.87   708.03   709.75
eigval :      710.06   736.28   740.86   762.32   762.66   775.63
eigval :      776.51   798.89   820.23   822.97   844.27   846.79
eigval :      847.97   850.84   852.50   861.61   864.39   867.47
eigval :      870.43   873.06   875.34   880.38   899.60   905.45
eigval :      906.15   908.13   909.41   913.99   915.91   922.16
eigval :      923.86   923.98   928.76   932.19   966.30   972.96
eigval :     1007.97  1012.79  1015.97  1017.73  1024.18  1025.66
eigval :     1030.26  1040.12  1070.12  1070.35  1113.50  1114.51
eigval :     1122.05  1124.39  1145.43  1146.27  1150.41  1161.35
eigval :     1173.79  1174.16  1177.81  1179.55  1182.06  1184.13
eigval :     1184.39  1188.79  1211.45  1227.33  1231.49  1232.59
eigval :     1241.55  1242.11  1249.66  1262.12  1276.40  1277.86
eigval :     1290.25  1303.27  1305.67  1324.55  1329.38  1334.72
eigval :     1342.89  1347.49  1350.00  1351.17  1355.64  1357.49
eigval :     1365.31  1371.85  1385.90  1397.15  1400.49  1402.75
eigval :     1412.39  1418.09  1419.14  1437.86  1440.87  1450.53
eigval :     1464.50  1465.44  1480.92  1482.51  1483.13  1483.72
eigval :     1485.46  1487.66  1489.41  1491.57  1518.59  1533.41
eigval :     1547.53  1556.19  1556.93  1577.34  1577.84  1586.67
eigval :     1587.93  1589.14  1606.27  1607.72  2368.17  2369.10
eigval :     2980.62  2981.21  3024.88  3026.02  3033.49  3043.65
eigval :     3075.68  3076.00  3078.66  3079.60  3081.40  3082.01
eigval :     3086.91  3086.95  3088.13  3090.78  3092.66  3093.30
eigval :     3095.86  3096.14  3096.79  3098.70  3099.07  3100.34
eigval :     3100.82  3104.71  3105.63  3105.87  3119.68  3126.18

   temp. (K)  partition function   enthalpy   heat capacity  entropy
                                   cal/mol     cal/K/mol   cal/K/mol   J/K/mol
 298.15  VIB  0.566E+19            24111.074    151.954    150.238
         ROT  0.137E+09              888.752      2.981     40.210
         INT  0.774E+27            24999.826    154.935    190.448
         TR   0.156E+29             1481.254      4.968     45.225
         TOT                       26481.0800   159.9035   235.6730   986.0557

       T/K    H(0)-H(T)+PV         H(T)/Eh          T*S/Eh         G(T)/Eh
   ------------------------------------------------------------------------
    298.15    0.422003E-01    0.647811E+00    0.111976E+00    0.535835E+00
   ------------------------------------------------------------------------

         :::::::::::::::::::::::::::::::::::::::::::::::::::::
         ::                  THERMODYNAMIC                  ::
         :::::::::::::::::::::::::::::::::::::::::::::::::::::
         :: total free energy        -124.869602116750 Eh   ::
         ::.................................................::
         :: total energy             -125.405437023697 Eh   ::
         :: zero point energy           0.605610455818 Eh   ::
         :: G(RRHO) w/o ZPVE           -0.069775548871 Eh   ::
         :: G(RRHO) contrib.            0.535834906947 Eh   ::
         :::::::::::::::::::::::::::::::::::::::::::::::::::::

           -------------------------------------------------
          | TOTAL ENERGY             -125.405437023697 Eh   |
          | TOTAL ENTHALPY           -124.757626280778 Eh   |
          | TOTAL FREE ENERGY        -124.869602116750 Eh   |
          | GRADIENT NORM               0.000140885340 Eh/α |
           -------------------------------------------------

 * finished run on 2025/08/26 at 00:38:35.418
