   * xtb version 6.7.1 (edcfbbe) compiled by 'albert@albert-system' on 2024-07-22

   ID    Z sym.   atoms
    1    6 C      1-6, 8-12, 16, 17, 19-50
    2    5 B      7
    3    9 F      13-15
    4    7 N      18
    5    1 H      51-99

          program call               : xtb data2507/gas/BuCzCF3oB/BuCzCF3oB_gas_T1_crest.xyz --gfn 2 --spinpol --tblite --uhf 2 --ohess vtight --parallel 40 --molden --ceasefiles --namespace data2507/gas/BuCzCF3oB/BuCzCF3oB_gas_T1_finalOpt
 * total energy  :  -139.7350914 Eh     change        0.1220096E-07 Eh
 * total energy  :  -139.7350974 Eh     change       -0.5975657E-05 Eh
 * total energy  :  -139.7350999 Eh     change       -0.2535073E-05 Eh
 * total energy  :  -139.7351009 Eh     change       -0.1039044E-05 Eh
 * total energy  :  -139.7351034 Eh     change       -0.2441375E-05 Eh
 * total energy  :  -139.7351054 Eh     change       -0.1996764E-05 Eh
 * total energy  :  -139.7351070 Eh     change       -0.1643720E-05 Eh
 * total energy  :  -139.7351079 Eh     change       -0.8389189E-06 Eh
 * total energy  :  -139.7351084 Eh     change       -0.5391446E-06 Eh
 * total energy  :  -139.7351091 Eh     change       -0.6737713E-06 Eh
 * total energy  :  -139.7351115 Eh     change       -0.1688408E-06 Eh
 * total energy  :  -139.7351118 Eh     change       -0.2305988E-06 Eh
 * total energy  :  -139.7351119 Eh     change       -0.1120488E-06 Eh
 * total energy  :  -139.7351120 Eh     change       -0.1371976E-06 Eh
 * total energy  :  -139.7351122 Eh     change       -0.1545843E-06 Eh
 * total energy  :  -139.7351123 Eh     change       -0.1839472E-06 Eh
 * total energy  :  -139.7351122 Eh     change        0.1239295E-06 Eh
 * total energy  :  -139.7351124 Eh     change       -0.1438020E-06 Eh
 * total energy  :  -139.7351124 Eh     change       -0.4776453E-07 Eh
   *** GEOMETRY OPTIMIZATION CONVERGED AFTER 23 ITERATIONS ***

 final structure:
================
99
 xtb: 6.7.1 (edcfbbe)
C           -7.60480957122673       -2.00721893561617        1.59249937429991
C           -6.20168914836770       -1.53939900763712        1.34839724031870
C           -5.32442327819490       -1.35275691907030        2.40721437843625
C           -4.02639912285886       -0.91178287721367        2.20726130092674
C           -3.15372482050467       -0.69416860912178        3.40686233472522
C           -3.56257222977434       -0.63440354477363        0.91077947972152
B           -2.06864174530023       -0.12024418205118        0.70791524795662
C           -1.83500255312968        1.17367453812346       -0.04988829201909
C           -2.87378016486756        2.14018086207754       -0.20083156447440
C           -2.67352595398898        3.39895268652763       -0.68017774147162
C           -1.38133779171597        3.79358877130956       -1.09080804580613
C           -1.11861917655529        5.14230740307323       -1.65118239523940
F            0.01697978589663        5.69635610815071       -1.16610568373531
F           -2.09747861487803        6.02776052032045       -1.41053535640662
F           -0.95157839436630        5.13894868756163       -2.99988476311335
C           -0.34104893280856        2.87004920367412       -1.03571909387663
C           -0.54403373202567        1.58852304598818       -0.56549840215096
N            0.55693175722145        0.72798509112782       -0.56364306025895
C            0.63838792438799       -0.50072964072267       -1.18537206603837
C           -0.28913553438216       -1.15818716381307       -1.97729971795467
C            0.06339265195880       -2.38482541490282       -2.50251069321849
C            1.31220093162415       -2.97736159927796       -2.27761185523888
C            1.59528599505032       -4.34604008366022       -2.87656876978062
C            1.47966511157808       -4.26258303466089       -4.40529550545138
C            2.99527837538205       -4.86226803047600       -2.53279494902619
C            0.57115751554837       -5.35180903093685       -2.33137245227157
C            2.25238660725325       -2.28185118745179       -1.52776004077449
C            1.92381983945584       -1.04876080911560       -0.99147979886399
C            2.66735865690176       -0.07435756643769       -0.23507603215414
C            3.96130775259731       -0.04597886691442        0.25417837376974
C            4.40267681532334        1.06155941557567        0.96937168838637
C            5.80139039894039        1.14960967935392        1.55791843088041
C            5.69121178859095        1.29236715971413        3.08328508920983
C            6.52090789329484        2.37245278491856        0.97114823464510
C            6.64865226883772       -0.08966715179052        1.25564852866000
C            3.51869941578008        2.13260068350823        1.15940318887591
C            2.22544005930066        2.13211286533986        0.67776237216255
C            1.79053602849015        1.01348647328487       -0.02132713167762
C           -0.88565575560594       -0.93558251260761        1.32938137346964
C           -0.69203720333135       -2.30770553442621        1.03503796129964
C           -1.77054883638064       -3.09497906070972        0.35986202193085
C            0.50528211323145       -2.92159125416808        1.33574849726587
C            1.53247298589657       -2.24020919800713        1.98657139777510
C            2.83461236256594       -2.91205653275935        2.28329992238319
C            1.28999893590435       -0.93942069512902        2.40574228038157
C            0.09833447478164       -0.29571033556465        2.12193314249340
C           -0.12232007608958        1.06278643514125        2.71604903159377
C           -4.44557609761422       -0.82049339518290       -0.16111185279577
C           -4.04865517710271       -0.62111107485901       -1.59629140098090
C           -5.74212245465670       -1.26516175860875        0.07323948877244
H           -8.08022889743014       -2.31297563820664        0.66366613953459
H           -7.61494921078908       -2.84653166840171        2.28594480020274
H           -8.19683566689180       -1.20413431179101        2.03247611230883
H           -5.66672462310673       -1.54502779354277        3.41519198559320
H           -3.67720296426185       -0.96760139018237        4.32030335847964
H           -2.86432617206151        0.35314601725598        3.47201420567283
H           -2.24477635616094       -1.28885758056784        3.33475293715392
H           -3.86243656646656        1.85434514556568        0.12694715751647
H           -3.48685558766442        4.10482096421197       -0.74483036338061
H            0.63118433396659        3.14319911477059       -1.42178947971530
H           -1.25105186542980       -0.72005697161717       -2.18419422342254
H           -0.66102446534298       -2.89785780689901       -3.11611286904190
H            0.47900896626111       -3.97353841675309       -4.71338631402442
H            2.18160642299495       -3.52866431773944       -4.79546127402033
H            1.70689967136945       -5.22871357702282       -4.85076653618075
H            3.12626708639768       -4.95242154343357       -1.45681127928426
H            3.13532746858426       -5.84832939782060       -2.97098582382968
H            3.76459285014701       -4.20626427941023       -2.93317674409675
H            0.64703298779598       -5.41329739285612       -1.24776373156032
H           -0.44471609790466       -5.06390440740267       -2.58616884091314
H            0.75953218676550       -6.33991901159675       -2.74580222469258
H            3.24025936802275       -2.67535670048179       -1.35691372254803
H            4.60344203114737       -0.89118090372066        0.07181814947061
H            6.68328266655039        1.34103037871907        3.52676230718194
H            5.16746463876511        0.43674670377101        3.50541454225973
H            5.15079069069306        2.19305915255656        3.36034312983467
H            7.53230236224287        2.43567881452220        1.36668607292519
H            6.57817300030204        2.29011428650950       -0.11215368883502
H            6.00305537665189        3.29539125959981        1.21528377461031
H            6.77496652577898       -0.22572732577342        0.18413401926032
H            6.20188113780173       -0.98615870527915        1.67990844093269
H            7.63589728950481        0.03142705405169        1.69660892863977
H            3.85139492173091        3.00175247451047        1.70540781824446
H            1.57655907768698        2.97813390728213        0.84324727597257
H           -2.62784348471381       -3.20810271008232        1.02246354470418
H           -2.11277581644857       -2.57863077498537       -0.53270206658527
H           -1.41141466478619       -4.08299186680177        0.08192226020686
H            0.65888748090143       -3.95407344921173        1.05316150543489
H            3.63803451102841       -2.18009781522795        2.33164670130041
H            3.06877626159538       -3.65148556366051        1.52045342453813
H            2.78618525308012       -3.42516197666995        3.24511527782078
H            2.05110669567651       -0.41446328184548        2.96719686601429
H           -0.83839840639376        1.64427785141883        2.14304053326750
H           -0.51286355542447        0.95020030461863        3.72885117633595
H            0.81629288364721        1.60825516429714        2.78616883703640
H           -4.90214392606617       -0.28715074286373       -2.18288717448352
H           -3.70429307908232       -1.56556968401779       -2.02227720926386
H           -3.25575029022824        0.11344970764896       -1.69110036766445
H           -6.40163755980456       -1.41113374094226       -0.77167975157321

 projected vibrational frequencies (cm⁻¹)
eigval :       -0.00    -0.00    -0.00    -0.00     0.00     0.00
eigval :       15.03    17.05    17.21    18.04    23.33    28.00
eigval :       29.06    31.66    34.07    35.14    40.96    54.08
eigval :       58.65    64.16    65.60    80.92    87.33    90.74
eigval :      102.19   103.69   115.53   120.14   123.00   138.40
eigval :      146.18   151.06   156.50   163.95   164.53   168.57
eigval :      174.22   183.83   188.41   190.47   192.92   204.77
eigval :      207.91   210.75   219.79   222.01   223.64   231.94
eigval :      247.84   262.45   274.53   276.03   278.19   290.84
eigval :      300.43   304.16   316.19   318.76   322.17   323.24
eigval :      329.08   338.18   339.72   346.36   359.18   365.70
eigval :      376.34   390.51   397.08   408.44   409.59   418.14
eigval :      439.87   447.68   448.78   458.48   461.47   465.81
eigval :      475.31   479.34   485.87   493.21   495.37   499.82
eigval :      512.04   513.56   520.67   524.20   531.32   547.67
eigval :      559.01   565.20   578.48   587.78   595.50   598.19
eigval :      599.68   608.36   624.97   638.98   641.79   651.02
eigval :      663.84   668.04   691.54   705.54   708.06   717.37
eigval :      771.22   808.11   819.58   830.00   832.27   834.75
eigval :      837.29   850.72   867.57   867.81   869.73   872.12
eigval :      874.10   876.32   881.30   911.24   911.83   919.42
eigval :      923.77   928.34   941.92   959.64   959.80   961.19
eigval :      962.25   962.39   962.80   963.00   963.27   973.06
eigval :      973.56   975.30  1012.48  1018.70  1023.65  1024.92
eigval :     1026.54  1027.57  1028.03  1029.56  1030.59  1033.54
eigval :     1033.91  1034.17  1034.57  1035.12  1038.02  1040.02
eigval :     1042.25  1043.36  1059.72  1082.29  1092.74  1116.59
eigval :     1123.50  1126.76  1146.85  1160.26  1192.89  1194.54
eigval :     1197.75  1205.36  1214.41  1225.09  1226.07  1226.38
eigval :     1227.90  1229.77  1231.74  1233.37  1236.16  1251.31
eigval :     1261.94  1275.72  1287.68  1292.94  1299.84  1300.28
eigval :     1308.45  1319.11  1332.69  1334.36  1347.50  1356.80
eigval :     1390.43  1395.30  1396.32  1398.97  1400.56  1402.19
eigval :     1402.63  1404.32  1405.19  1405.81  1405.97  1407.18
eigval :     1410.83  1418.06  1420.84  1427.51  1428.29  1428.82
eigval :     1434.18  1438.14  1446.15  1461.17  1466.62  1469.16
eigval :     1473.56  1477.88  1478.76  1480.25  1481.27  1482.15
eigval :     1483.05  1484.32  1486.72  1489.35  1490.70  1491.04
eigval :     1492.92  1493.19  1493.69  1499.41  1500.11  1503.88
eigval :     1504.23  1504.34  1513.96  1514.53  1518.68  1519.71
eigval :     1543.25  1547.14  1559.29  1574.33  1575.45  1579.91
eigval :     1583.30  1602.00  2974.60  2983.64  2985.01  2995.29
eigval :     3009.03  3012.68  3019.94  3022.04  3022.55  3022.89
eigval :     3024.14  3024.72  3026.92  3027.04  3028.36  3029.34
eigval :     3029.85  3030.39  3030.73  3031.16  3031.83  3032.27
eigval :     3033.32  3035.44  3035.66  3036.76  3038.84  3038.98
eigval :     3039.45  3046.45  3048.56  3048.69  3052.33  3052.98
eigval :     3053.17  3058.93  3060.09  3061.38  3062.21  3062.32
eigval :     3073.29  3080.77  3089.80  3091.10  3099.88  3100.48
eigval :     3117.39  3120.85  3122.43

   temp. (K)  partition function   enthalpy   heat capacity  entropy
                                   cal/mol     cal/K/mol   cal/K/mol   J/K/mol
 298.15  VIB  0.248E+25            30830.184    181.297    193.569
         ROT  0.724E+08              888.752      2.981     38.945
         INT  0.179E+33            31718.936    184.278    232.513
         TR   0.168E+29             1481.254      4.968     45.375
         TOT                       33200.1901   189.2462   277.8881  1162.6836

       T/K    H(0)-H(T)+PV         H(T)/Eh          T*S/Eh         G(T)/Eh
   ------------------------------------------------------------------------
    298.15    0.529079E-01    0.859053E+00    0.132034E+00    0.727019E+00
   ------------------------------------------------------------------------

         :::::::::::::::::::::::::::::::::::::::::::::::::::::
         ::                  THERMODYNAMIC                  ::
         :::::::::::::::::::::::::::::::::::::::::::::::::::::
         :: total free energy        -139.008093012364 Eh   ::
         ::.................................................::
         :: total energy             -139.735112468390 Eh   ::
         :: zero point energy           0.806145165104 Eh   ::
         :: G(RRHO) w/o ZPVE           -0.079125709078 Eh   ::
         :: G(RRHO) contrib.            0.727019456027 Eh   ::
         :::::::::::::::::::::::::::::::::::::::::::::::::::::

           -------------------------------------------------
          | TOTAL ENERGY             -139.735112468390 Eh   |
          | TOTAL ENTHALPY           -138.876059432663 Eh   |
          | TOTAL FREE ENERGY        -139.008093012364 Eh   |
          | GRADIENT NORM               0.000091115397 Eh/α |
           -------------------------------------------------

 * finished run on 2025/09/02 at 18:00:36.874
