   * xtb version 6.7.1 (edcfbbe) compiled by 'albert@albert-system' on 2024-07-22

   ID    Z sym.   atoms
    1    6 C      1-6, 8-12, 16, 17, 19-50
    2    5 B      7
    3    9 F      13-15
    4    7 N      18
    5    1 H      51-99

          program call               : xtb data2507/gas/BuCzCF3oB/BuCzCF3oB.xyz --gfn 2 --ohess vtight --parallel 40 --molden --ceasefiles --namespace data2507/gas/BuCzCF3oB/BuCzCF3oB_gas_S0_preOpt
          :  Hamiltonian                  GFN2-xTB          :
 * total energy  :  -139.7303128 Eh     change       -0.3653440E-08 Eh
 * total energy  :  -139.7825238 Eh     change       -0.5221099E-01 Eh
 * total energy  :  -139.7980809 Eh     change       -0.1555715E-01 Eh
 * total energy  :  -139.8018414 Eh     change       -0.3760499E-02 Eh
 * total energy  :  -139.8038383 Eh     change       -0.1996891E-02 Eh
 * total energy  :  -139.8051878 Eh     change       -0.1349531E-02 Eh
 * total energy  :  -139.8063821 Eh     change       -0.1194286E-02 Eh
 * total energy  :  -139.8074798 Eh     change       -0.1097698E-02 Eh
 * total energy  :  -139.8083312 Eh     change       -0.8514077E-03 Eh
 * total energy  :  -139.8088942 Eh     change       -0.5629516E-03 Eh
 * total energy  :  -139.8148993 Eh     change       -0.1784008E-05 Eh
 * total energy  :  -139.8149001 Eh     change       -0.7930258E-06 Eh
 * total energy  :  -139.8149008 Eh     change       -0.7453542E-06 Eh
 * total energy  :  -139.8149010 Eh     change       -0.2091658E-06 Eh
 * total energy  :  -139.8149013 Eh     change       -0.3244129E-06 Eh
 * total energy  :  -139.8149015 Eh     change       -0.2091138E-06 Eh
 * total energy  :  -139.8149017 Eh     change       -0.1306461E-06 Eh
 * total energy  :  -139.8149018 Eh     change       -0.1236005E-06 Eh
 * total energy  :  -139.8149019 Eh     change       -0.9957668E-07 Eh
   *** GEOMETRY OPTIMIZATION CONVERGED AFTER 159 ITERATIONS ***

 final structure:
================
99
 xtb: 6.7.1 (edcfbbe)
C           -7.89352912062522        0.03204558001504        1.72163332452058
C           -6.47393663192459        0.18912936312693        1.27133519710304
C           -5.61428511944113        1.05345134267603        1.93651924631908
C           -4.29404388813210        1.20528789714527        1.55218446964361
C           -3.43995947919521        2.18228345769211        2.30628747360746
C           -3.77767779481962        0.49086950635182        0.45144566144753
B           -2.28621689289640        0.71869357677189        0.01570884822206
C           -2.00687647055484        1.18320702089378       -1.47038576324447
C           -3.01922885114143        1.90133603263472       -2.11933434585678
C           -2.85523953261446        2.47277567251855       -3.36619476475206
C           -1.64098394994621        2.31872397689268       -4.01953907430064
C           -1.39670271967072        2.91769705644057       -5.37270068609557
F           -0.36758292591349        3.78842201368832       -5.36127156035977
F           -2.44995402882043        3.58730563192454       -5.85983382629942
F           -1.07980202798154        1.98753872446839       -6.29392319225864
C           -0.61603296202690        1.59919168878689       -3.42631990332560
C           -0.78670507721516        1.03884732696371       -2.16356182287797
N            0.31811309368989        0.37779609069970       -1.61188978101485
C            0.38653165163023       -0.91949935008107       -1.14692121102625
C           -0.52407284334989       -1.95533241348876       -1.25924286799798
C           -0.17764163209762       -3.18430719453563       -0.73559369163493
C            1.05081779867147       -3.42397567404436       -0.10719220236017
C            1.32796333356371       -4.80850889192003        0.46078380147258
C            1.26579904905558       -5.84272550710690       -0.67203269517025
C            2.70654325525699       -4.90838684959350        1.11964120095123
C            0.27051405349967       -5.13792823818090        1.52373901582305
C            1.97325607890436       -2.39293663342940       -0.04602709608140
C            1.65340920790426       -1.15039519885588       -0.57434147321907
C            2.39125173749103        0.07319352224715       -0.71172131023718
C            3.66605120233012        0.45722811505159       -0.31915929093895
C            4.10935353567620        1.74194733791608       -0.58491241119847
C            5.48315190767767        2.24109044141844       -0.16092883446360
C            6.26537187382920        2.69518275997706       -1.40112373889961
C            6.30751742355356        1.16375957926155        0.54953130742199
C            5.30777011036737        3.42150731504346        0.80544679431278
C            3.25115137472187        2.61859470334316       -1.26183827935155
C            1.97969457668580        2.26239065084881       -1.66441977516516
C            1.54277529124087        0.97877797702632       -1.37917647791165
C           -1.09249781481057        0.59441846970363        1.02046020247033
C           -0.91213291017852       -0.59641106466378        1.75041996241666
C           -1.96925480364650       -1.66150139193699        1.76535875015106
C            0.24882645854050       -0.80147408216555        2.47530199126793
C            1.24931397033240        0.15760968012947        2.53650862614843
C            2.51882777145076       -0.09190499091997        3.29013318119786
C            1.02469199352656        1.37111357328988        1.90884925021248
C           -0.12402414360264        1.60098251625559        1.16773991557584
C           -0.33275320646456        2.98500981590084        0.62357495526464
C           -4.65571569768857       -0.37084920164247       -0.22611245122612
C           -4.20891981722690       -1.21806084284801       -1.38226829646782
C           -5.97248947045258       -0.51493142095383        0.19169061505785
H           -8.38222001597771        1.00297117155555        1.78902988702938
H           -8.45434493278674       -0.59521464919057        1.03320225889377
H           -7.92596678366404       -0.42480740127149        2.71067486647944
H           -5.98950563989700        1.62105918735836        2.77719659529041
H           -4.00575105771478        2.63970057653695        3.11478971166055
H           -3.08708160894987        2.97013168829119        1.64379063245914
H           -2.56858273053652        1.68628672531282        2.72771782413827
H           -3.96386872269504        2.02558641330922       -1.61068857169363
H           -3.65549777257950        3.02987571581676       -3.82737560903681
H            0.32325905130450        1.46888968197731       -3.94347669212737
H           -1.47186054514150       -1.81295641307820       -1.75340207926952
H           -0.89195244984476       -3.98910485427140       -0.82429787306365
H            0.28110265738859       -5.87136715456942       -1.12996590441342
H            1.99285949774593       -5.59782090518946       -1.44347045678000
H            1.49098748755480       -6.83543728803807       -0.28746473152054
H            2.79990360533952       -4.19982548262305        1.93944624176572
H            2.84453848672738       -5.90964544778130        1.52331650478564
H            3.49930566822370       -4.72559295558961        0.39815322476015
H            0.31458016349982       -4.41115965319766        2.33223856835242
H           -0.73212476878403       -5.12250135630880        1.10578608118958
H            0.45113587039801       -6.12697272488953        1.94015146862749
H            2.94648596546224       -2.52970760129944        0.39456953126642
H            4.28434358851776       -0.26054648229387        0.19333204375435
H            7.25913542692181        3.03360715517837       -1.11490665691107
H            5.76330332794920        3.51190644433906       -1.91181125621420
H            6.37002180208668        1.86894881860827       -2.10122850141133
H            7.27816176366541        1.57222363912168        0.82406197401021
H            5.81620129029259        0.82897450148537        1.46036917606398
H            6.47473272867133        0.30806370441335       -0.10039430729120
H            4.74028687201817        3.11014041260210        1.68045189621886
H            4.77970099908326        4.24527688526990        0.33321833492205
H            6.27870768220596        3.78448885142615        1.13627686636632
H            3.58488572066110        3.62116965937404       -1.48269344522480
H            1.35056402050459        2.97221661686664       -2.18134891608253
H           -2.85552816417017       -1.30011633573335        2.28599433324762
H           -2.26305111680111       -1.93859653672583        0.75816824984881
H           -1.60709554757407       -2.54998196065764        2.27659856265612
H            0.38442396671174       -1.73775702906231        2.99877489333728
H            2.74296710557330       -1.15535770930010        3.32781590509020
H            2.42920822716357        0.27216684019548        4.31449850829134
H            3.34824643710078        0.42998841263428        2.81797688196844
H            1.76644865215696        2.15435875133470        1.98203987498729
H           -1.08853674849286        3.00897070419562       -0.15611101636808
H           -0.66088252401958        3.64002663592962        1.43254806650796
H            0.59960829474440        3.38677490975877        0.23306322682538
H           -3.84935922025141       -2.18228076896202       -1.01924164141293
H           -3.41038484952511       -0.74110735889759       -1.94202497598809
H           -5.04143761135241       -1.41010487236234       -2.05630505455960
H           -6.62051348621451       -1.19411863180075       -0.34537046816018

          :  Hamiltonian                  GFN2-xTB          :
         :: gradient norm              0.000062610007 Eh/a0 ::
         :: HOMO-LUMO gap              1.850248976987 eV    ::
         :: SCC energy              -142.035810786676 Eh    ::
         :: -> dispersion             -0.143414378053 Eh    ::
         :: repulsion energy           2.220908885681 Eh    ::

    * Orbital Energies and Occupations

         #    Occupation            Energy/Eh            Energy/eV
      -------------------------------------------------------------
         1        2.0000           -0.8714674             -23.7138
       ...           ...                  ...                  ...
       117        2.0000           -0.4148941             -11.2898
       118        2.0000           -0.4125913             -11.2272
       119        2.0000           -0.4079116             -11.0998
       120        2.0000           -0.4074973             -11.0886
       121        2.0000           -0.4052590             -11.0277
       122        2.0000           -0.3998237             -10.8798
       123        2.0000           -0.3940634             -10.7230
       124        2.0000           -0.3868019             -10.5254
       125        2.0000           -0.3833344             -10.4311
       126        2.0000           -0.3798933             -10.3374
       127        2.0000           -0.3741593             -10.1814
       128        2.0000           -0.3678777             -10.0105
       129        2.0000           -0.3560356              -9.6882 (HOMO)
       130                         -0.2880399              -7.8380 (LUMO)
       131                         -0.2495120              -6.7896
       132                         -0.2391029              -6.5063
       133                         -0.2361057              -6.4248
       134                         -0.2181136              -5.9352
       135                         -0.2144031              -5.8342
       136                         -0.2127031              -5.7879
       137                         -0.2064557              -5.6179
       138                         -0.1887607              -5.1364
       139                         -0.1820288              -4.9533
       140                         -0.1800052              -4.8982
       ...                                ...                  ...
       249                          0.7486690              20.3723
      -------------------------------------------------------------
                  HL-Gap            0.0679956 Eh            1.8503 eV

     #   Z          covCN         q      C6AA      α(0)
     1   6 C        3.758    -0.108    22.619     6.781
     2   6 C        2.963     0.015    27.665     8.627
     3   6 C        2.930    -0.056    29.394     8.891
     4   6 C        2.967     0.013    27.718     8.636
     5   6 C        3.759    -0.115    22.754     6.800
     6   6 C        2.887    -0.085    30.116     8.997
     7   5 B        2.708     0.254    17.660     7.048
     8   6 C        2.880    -0.066    29.641     8.925
     9   6 C        2.927    -0.028    28.698     8.785
    10   6 C        2.914    -0.033    28.818     8.803
    11   6 C        2.976    -0.027    28.659     8.781
    12   6 C        3.337     0.486    17.277     6.581
    13   9 F        0.791    -0.212    11.364     3.982
    14   9 F        0.791    -0.207    11.308     3.972
    15   9 F        0.791    -0.212    11.355     3.981
    16   6 C        2.926    -0.038    28.952     8.824
    17   6 C        2.914     0.073    26.370     8.421
    18   7 N        2.804    -0.046    22.127     6.986
    19   6 C        3.082     0.045    26.901     8.503
    20   6 C        2.910    -0.055    29.359     8.885
    21   6 C        2.932    -0.038    28.946     8.823
    22   6 C        2.973    -0.001    28.056     8.688
    23   6 C        3.903     0.026    20.081     6.370
    24   6 C        3.761    -0.106    22.565     6.772
    25   6 C        3.762    -0.106    22.571     6.772
    26   6 C        3.762    -0.102    22.503     6.762
    27   6 C        2.918    -0.042    29.041     8.837
    28   6 C        3.071    -0.018    28.378     8.735
    29   6 C        3.069    -0.017    28.357     8.732
    30   6 C        2.918    -0.043    29.057     8.840
    31   6 C        2.973    -0.002    28.073     8.691
    32   6 C        3.903     0.026    20.084     6.370
    33   6 C        3.761    -0.106    22.567     6.772
    34   6 C        3.761    -0.106    22.567     6.772
    35   6 C        3.762    -0.103    22.518     6.764
    36   6 C        2.931    -0.040    28.989     8.830
    37   6 C        2.909    -0.053    29.307     8.877
    38   6 C        3.085     0.045    26.907     8.503
    39   6 C        2.890    -0.084    30.093     8.994
    40   6 C        2.967     0.013    27.711     8.635
    41   6 C        3.759    -0.112    22.694     6.792
    42   6 C        2.930    -0.053    29.314     8.879
    43   6 C        2.964     0.016    27.647     8.624
    44   6 C        3.758    -0.104    22.538     6.769
    45   6 C        2.931    -0.054    29.337     8.883
    46   6 C        2.967     0.012    27.745     8.640
    47   6 C        3.759    -0.110    22.643     6.784
    48   6 C        2.966     0.012    27.742     8.639
    49   6 C        3.760    -0.108    22.622     6.781
    50   6 C        2.930    -0.056    29.391     8.891
    51   1 H        0.925     0.044     2.398     2.421
    52   1 H        0.925     0.040     2.455     2.450
    53   1 H        0.925     0.045     2.381     2.413
    54   1 H        0.925     0.026     2.645     2.543
    55   1 H        0.925     0.039     2.465     2.455
    56   1 H        0.925     0.041     2.435     2.440
    57   1 H        0.925     0.051     2.306     2.375
    58   1 H        0.926     0.052     2.298     2.370
    59   1 H        0.926     0.055     2.254     2.348
    60   1 H        0.926     0.057     2.230     2.335
    61   1 H        0.926     0.021     2.713     2.576
    62   1 H        0.926     0.027     2.624     2.533
    63   1 H        0.925     0.035     2.512     2.478
    64   1 H        0.925     0.034     2.535     2.490
    65   1 H        0.925     0.036     2.505     2.475
    66   1 H        0.925     0.034     2.530     2.487
    67   1 H        0.925     0.035     2.521     2.483
    68   1 H        0.925     0.036     2.509     2.477
    69   1 H        0.925     0.031     2.575     2.509
    70   1 H        0.925     0.035     2.520     2.483
    71   1 H        0.925     0.035     2.517     2.481
    72   1 H        0.926     0.038     2.474     2.459
    73   1 H        0.926     0.038     2.479     2.462
    74   1 H        0.925     0.036     2.508     2.476
    75   1 H        0.925     0.036     2.497     2.471
    76   1 H        0.925     0.034     2.533     2.489
    77   1 H        0.925     0.035     2.519     2.482
    78   1 H        0.925     0.033     2.543     2.494
    79   1 H        0.925     0.036     2.507     2.476
    80   1 H        0.925     0.031     2.577     2.511
    81   1 H        0.925     0.035     2.514     2.479
    82   1 H        0.925     0.035     2.510     2.477
    83   1 H        0.926     0.029     2.594     2.519
    84   1 H        0.926     0.025     2.664     2.552
    85   1 H        0.925     0.046     2.366     2.405
    86   1 H        0.925     0.043     2.404     2.425
    87   1 H        0.925     0.039     2.464     2.454
    88   1 H        0.925     0.023     2.687     2.563
    89   1 H        0.925     0.039     2.459     2.452
    90   1 H        0.924     0.044     2.402     2.424
    91   1 H        0.925     0.041     2.432     2.439
    92   1 H        0.925     0.025     2.657     2.549
    93   1 H        0.925     0.032     2.561     2.503
    94   1 H        0.924     0.043     2.410     2.427
    95   1 H        0.925     0.044     2.390     2.418
    96   1 H        0.924     0.041     2.435     2.440
    97   1 H        0.925     0.038     2.479     2.462
    98   1 H        0.925     0.040     2.445     2.445
    99   1 H        0.925     0.025     2.654     2.548

molecular dipole:
                 x           y           z       tot (Debye)
 q only:       -0.245      -0.765       1.954
   full:       -0.356      -0.636       1.769       4.863

 projected vibrational frequencies (cm⁻¹)
eigval :       -0.00    -0.00    -0.00     0.00     0.00     0.00
eigval :       -6.70    10.39    13.66    14.56    18.85    26.54
eigval :       28.73    31.30    33.90    35.12    38.21    49.53
eigval :       54.94    62.01    68.11    84.49    92.22    94.71
eigval :      102.19   109.75   121.66   126.80   131.50   139.94
eigval :      146.59   150.67   152.22   161.99   166.96   169.21
eigval :      179.15   184.64   186.91   190.07   198.03   203.78
eigval :      205.45   207.76   219.35   220.52   224.67   232.70
eigval :      246.79   262.51   274.47   276.04   279.25   288.67
eigval :      307.21   309.90   316.58   320.68   320.92   324.77
eigval :      326.45   338.06   344.47   349.81   360.97   369.54
eigval :      376.60   399.08   400.29   412.22   421.69   428.22
eigval :      442.32   446.79   460.86   462.51   465.72   467.54
eigval :      477.70   488.38   490.20   493.13   498.22   507.39
eigval :      513.24   515.97   524.84   535.56   540.73   559.77
eigval :      569.62   578.94   587.64   592.37   600.72   602.73
eigval :      617.64   621.24   639.94   643.83   649.11   675.30
eigval :      680.61   686.26   699.68   705.77   714.91   724.91
eigval :      781.35   819.34   826.65   832.79   833.02   836.23
eigval :      840.41   870.48   872.03   874.11   876.41   883.94
eigval :      885.53   890.33   890.89   911.49   920.81   923.03
eigval :      926.86   930.68   954.82   959.69   959.79   962.37
eigval :      962.54   962.64   963.15   963.89   964.72   976.35
eigval :      978.71  1019.74  1023.35  1028.55  1029.37  1029.48
eigval :     1030.06  1030.65  1032.19  1033.60  1034.55  1035.27
eigval :     1035.34  1035.76  1040.91  1041.68  1042.30  1044.32
eigval :     1044.85  1057.44  1075.63  1096.73  1113.57  1128.73
eigval :     1131.45  1158.00  1167.34  1176.96  1183.75  1199.06
eigval :     1207.86  1221.51  1227.87  1228.23  1230.07  1232.14
eigval :     1233.45  1235.17  1237.72  1237.99  1245.25  1256.22
eigval :     1272.07  1284.76  1297.62  1300.95  1305.15  1307.05
eigval :     1311.47  1334.20  1338.13  1348.20  1353.23  1361.42
eigval :     1398.60  1399.58  1401.72  1402.28  1403.95  1404.45
eigval :     1405.29  1406.01  1406.26  1409.60  1410.00  1415.31
eigval :     1426.22  1428.81  1429.76  1429.82  1444.21  1449.41
eigval :     1454.40  1462.29  1476.88  1478.26  1481.11  1481.47
eigval :     1482.62  1484.47  1485.48  1486.12  1486.34  1487.65
eigval :     1488.43  1491.09  1492.81  1493.21  1493.64  1495.46
eigval :     1496.47  1499.68  1501.88  1502.58  1505.92  1506.19
eigval :     1514.52  1515.13  1520.38  1521.42  1549.59  1558.67
eigval :     1559.25  1571.32  1575.97  1587.21  1602.07  1604.14
eigval :     1606.90  1620.95  2983.81  2984.15  2991.18  3002.27
eigval :     3008.79  3018.96  3020.04  3020.33  3021.26  3021.57
eigval :     3021.65  3024.66  3026.37  3028.48  3028.69  3028.97
eigval :     3030.63  3031.27  3032.59  3033.03  3033.78  3034.08
eigval :     3035.33  3036.20  3038.21  3038.55  3039.07  3040.93
eigval :     3042.58  3046.67  3046.87  3050.14  3051.25  3054.03
eigval :     3058.33  3063.01  3063.85  3064.67  3065.18  3069.13
eigval :     3074.41  3082.24  3087.06  3090.92  3092.83  3106.43
eigval :     3107.22  3115.89  3119.52

   temp. (K)  partition function   enthalpy   heat capacity  entropy
                                   cal/mol     cal/K/mol   cal/K/mol   J/K/mol
 298.15  VIB  0.137E+26            30640.489    179.586    193.818
         ROT  0.724E+08              888.752      2.981     38.945
         INT  0.993E+33            31529.241    182.567    232.763
         TR   0.168E+29             1481.254      4.968     45.375
         TOT                       33010.4953   187.5350   278.1378  1163.7284

       T/K    H(0)-H(T)+PV         H(T)/Eh          T*S/Eh         G(T)/Eh
   ------------------------------------------------------------------------
    298.15    0.526056E-01    0.862443E+00    0.132152E+00    0.730291E+00
   ------------------------------------------------------------------------

         :::::::::::::::::::::::::::::::::::::::::::::::::::::
         ::                  THERMODYNAMIC                  ::
         :::::::::::::::::::::::::::::::::::::::::::::::::::::
         :: total free energy        -139.084611184115 Eh   ::
         ::.................................................::
         :: total energy             -139.814901900994 Eh   ::
         :: zero point energy           0.809837364784 Eh   ::
         :: G(RRHO) w/o ZPVE           -0.079546647905 Eh   ::
         :: G(RRHO) contrib.            0.730290716879 Eh   ::
         :::::::::::::::::::::::::::::::::::::::::::::::::::::

           -------------------------------------------------
          | TOTAL ENERGY             -139.814901900994 Eh   |
          | TOTAL ENTHALPY           -138.952458963409 Eh   |
          | TOTAL FREE ENERGY        -139.084611184115 Eh   |
          | GRADIENT NORM               0.000062663811 Eh/α |
          | HOMO-LUMO GAP               1.850255485868 eV   |
           -------------------------------------------------

 * finished run on 2025/09/02 at 17:35:15.089
