   * xtb version 6.7.1 (edcfbbe) compiled by 'albert@albert-system' on 2024-07-22

   ID    Z sym.   atoms
    1    6 C      1-6, 8-12, 16, 17, 19-50
    2    5 B      7
    3    9 F      13-15
    4    7 N      18
    5    1 H      51-99

          program call               : xtb data2507/gas/BuCzCF3oB/BuCzCF3oB_gas_S0_finalOpt.xtbopt.xyz --gfn 2 --spinpol --tblite --uhf 2 --ohess vtight --parallel 40 --molden --ceasefiles --namespace data2507/gas/BuCzCF3oB/BuCzCF3oB_gas_T1_preOpt
 * total energy  :  -139.7284941 Eh     change       -0.8279898E-08 Eh
 * total energy  :  -139.7323209 Eh     change       -0.3826859E-02 Eh
 * total energy  :  -139.7338688 Eh     change       -0.1547860E-02 Eh
 * total energy  :  -139.7340922 Eh     change       -0.2233780E-03 Eh
 * total energy  :  -139.7343825 Eh     change       -0.2903478E-03 Eh
 * total energy  :  -139.7345209 Eh     change       -0.1383990E-03 Eh
 * total energy  :  -139.7347113 Eh     change       -0.1904103E-03 Eh
 * total energy  :  -139.7348581 Eh     change       -0.1467706E-03 Eh
 * total energy  :  -139.7349237 Eh     change       -0.6561285E-04 Eh
 * total energy  :  -139.7349545 Eh     change       -0.3082596E-04 Eh
 * total energy  :  -139.7351105 Eh     change       -0.3359457E-06 Eh
 * total energy  :  -139.7351108 Eh     change       -0.2529470E-06 Eh
 * total energy  :  -139.7351108 Eh     change       -0.2429675E-07 Eh
 * total energy  :  -139.7351109 Eh     change       -0.1248130E-06 Eh
 * total energy  :  -139.7351112 Eh     change       -0.2967712E-06 Eh
 * total energy  :  -139.7351112 Eh     change        0.2882427E-07 Eh
 * total energy  :  -139.7351113 Eh     change       -0.1705897E-06 Eh
 * total energy  :  -139.7351115 Eh     change       -0.1335499E-06 Eh
 * total energy  :  -139.7351116 Eh     change       -0.7804999E-07 Eh
   *** GEOMETRY OPTIMIZATION CONVERGED AFTER 81 ITERATIONS ***

 final structure:
================
99
 xtb: 6.7.1 (edcfbbe)
C           -7.41769957323758       -2.57102699392681        1.63186880006184
C           -6.05416631622968       -2.00124533727237        1.38015396385810
C           -5.19118982947290       -1.74102909680320        2.43526886634548
C           -3.93027428805927       -1.20565117774162        2.22862281276514
C           -3.07405028543917       -0.91390925456435        3.42434174689900
C           -3.49130629024252       -0.90422018085814        0.92883527801225
B           -2.04170274118084       -0.27848741560450        0.71806718957878
C           -1.90996993760394        1.02305060196460       -0.05113671519347
C           -3.02068482347325        1.90494523691449       -0.20783294845365
C           -2.91956521319581        3.17105450713905       -0.69897934375988
C           -1.66280223833110        3.66046102842101       -1.11709544583843
C           -1.50322950150856        5.02096119569996       -1.68784268878684
F           -0.43614083030995        5.67884024977430       -1.17590932844451
F           -2.56277329168352        5.81922615833873       -1.48922034878847
F           -1.29305167013669        5.01699400082620       -3.03022827810190
C           -0.55377862785703        2.82102950564578       -1.05573157009088
C           -0.65591619376795        1.53203395883641       -0.57346848425654
N            0.50858072662313        0.75972386371387       -0.56590205200062
C            0.68464132755618       -0.46463010608401       -1.17651015237329
C           -0.18979647671139       -1.19917735235102       -1.96099210911250
C            0.25645748006737       -2.39922927387422       -2.47622966880361
C            1.54798372717879       -2.89054628263678       -2.24896201400083
C            1.93604826043868       -4.23801661878408       -2.83709449649237
C            1.81231069267444       -4.17656203941979       -4.36623718828356
C            3.37236208854891       -4.64098584873972       -2.49174226909369
C            0.99404003366800       -5.31583671255308       -2.28158621161098
C            2.43206381929145       -2.11729321135236       -1.50697077849229
C            2.00898660051049       -0.90927743329751       -0.97986878817302
C            2.67513138422141        0.12655497240450       -0.23286883526726
C            3.96261059380205        0.25891265378260        0.25630757903848
C            4.31721632392188        1.40435871343111        0.95989758741952
C            5.70497430658838        1.60598124276753        1.54644130089893
C            6.32922211967109        2.87271479838840        0.94387011393362
C            6.64404735420773        0.43105822634403        1.25893966046099
C            5.58424488924062        1.75905971308098        3.06999614221856
C            3.35353919694727        2.40626598635118        1.13936725294802
C            2.06400948364187        2.30098746264247        0.65931017138736
C            1.71681893213024        1.14526541279387       -0.02845345799570
C           -0.79856417568447       -0.99524305918176        1.34355629799202
C           -0.50054027296993       -2.35107246172235        1.06004511766148
C           -1.51659692862439       -3.22444215083256        0.39384384269301
C            0.74061978723898       -2.86819943943104        1.36311773458842
C            1.71409201517296       -2.10395859773025        2.00579753562412
C            3.06355091913030       -2.67634167985808        2.29985387325577
C            1.37338190881455       -0.82262368456618        2.41432275497973
C            0.13464747715658       -0.27498087616116        2.12805832586998
C           -0.18869759682760        1.06736271644650        2.71164306107165
C           -4.35955476113407       -1.16548255529408       -0.13937403908357
C           -3.98131010619310       -0.94929608827502       -1.57714242708300
C           -5.61873464506195       -1.70413783718035        0.10171178507707
H           -8.06274740020044       -1.81595515105029        2.08212246335769
H           -7.87723110546405       -2.90484997220600        0.70471608327064
H           -7.36115896471330       -3.41329538624995        2.31957773065177
H           -5.51623381628191       -1.95035276962477        3.44556458666131
H           -3.57266405227278       -1.22121324505243        4.34092038284275
H           -2.86622229110260        0.15301074211511        3.48239893241167
H           -2.12206908032141       -1.43705743304260        3.35320878768127
H           -3.98357709568633        1.54630984276289        0.12503027342443
H           -3.78534902187176        3.81105036244244       -0.76785282525963
H            0.39357641863625        3.16531381934322       -1.44678816361907
H           -1.18312511117605       -0.83908133387092       -2.16998031800528
H           -0.42660829320667       -2.97247572944758       -3.08390808642605
H            0.79170406310390       -3.96925949839956       -4.67472462541992
H            2.45416052477661       -3.39324318187331       -4.76376821275198
H            2.11385579338955       -5.12562493886301       -4.80422021934779
H            3.51117051954407       -4.71225493073464       -1.41529641828275
H            3.58820188634083       -5.61663258641887       -2.92239389018037
H            4.08787560768665       -3.93038405556011       -2.89867116788720
H            1.07561504279915       -5.36192858442288       -1.19762717938435
H           -0.04143447721503       -5.11015611064631       -2.53708063940701
H            1.25840503674163       -6.28976564118310       -2.68799377220926
H            3.44832073847963       -2.43051292356727       -1.33621712134631
H            4.66734267197096       -0.53703803877825        0.08428291618835
H            7.33279771454128        3.01788908412438        1.33774034984651
H            5.74234492438268        3.75638508902764        1.17693077532972
H            6.39271493612729        2.78149911747210       -0.13837668644525
H            7.61862575989197        0.63145776655322        1.69919132559343
H            6.26533865347560       -0.49168827748716        1.69292789167945
H            6.78196699695108        0.29288083342874        0.18913270161560
H            5.12708152871775        0.87147197925001        3.50332008556038
H            4.97698254358244        2.61945844045289        3.33644939213627
H            6.56974938618777        1.88849740228641        3.51189209362069
H            3.61835092468364        3.30409654911934        1.67604529364025
H            1.35158818447098        3.09575728487291        0.81741293028462
H           -1.08312173594974       -4.18435041383838        0.12350893196356
H           -2.36163366146360       -3.39726728850622        1.05928671244494
H           -1.89876687160706       -2.74353623845747       -0.50230858192721
H            0.97338696028849       -3.88816951926029        1.08936408823213
H            3.40434822043258       -3.29441900999184        1.47140869893640
H            3.02376650581937       -3.30509900193524        3.19067360250152
H            3.78673524655673       -1.88312474579782        2.47481170235710
H            2.09232193354827       -0.23517844194109        2.96941349695606
H           -0.94986817420254        1.58645464123406        2.13682988536214
H           -0.56561544983520        0.93354935883617        3.72703908644782
H            0.70492364084610        1.68472209456842        2.77319650739387
H           -4.85782486449104       -0.68150491384590       -2.16374152204266
H           -3.57154668087252       -1.87010621982711       -1.99699476700466
H           -3.24301295548517       -0.16085236620546       -1.67970266680074
H           -6.26689812781446       -1.90611987882696       -0.74045788019816

 projected vibrational frequencies (cm⁻¹)
eigval :       -0.00    -0.00     0.00     0.00     0.00     0.00
eigval :       17.05    17.61    18.72    19.12    24.83    28.24
eigval :       29.44    31.94    34.14    35.28    41.02    53.26
eigval :       58.86    64.31    65.60    80.91    87.33    90.51
eigval :      102.38   103.50   115.31   120.14   123.06   138.40
eigval :      146.35   151.04   156.76   163.61   164.89   168.45
eigval :      174.48   183.79   188.36   190.48   192.84   204.64
eigval :      208.00   210.82   219.86   222.19   223.77   231.97
eigval :      247.80   262.37   274.41   276.26   278.11   291.00
eigval :      300.47   304.21   316.25   319.01   322.34   323.27
eigval :      328.93   338.20   339.76   346.40   359.16   365.78
eigval :      376.25   390.46   397.17   408.19   409.82   418.35
eigval :      439.92   447.57   448.68   458.47   461.50   465.87
eigval :      475.62   479.87   485.81   493.12   495.44   499.66
eigval :      512.22   513.64   520.70   523.93   531.33   547.97
eigval :      559.02   565.12   578.69   587.92   595.58   598.37
eigval :      599.83   608.41   624.99   639.08   641.82   651.11
eigval :      663.85   668.25   691.55   705.50   708.06   717.53
eigval :      771.08   808.19   819.74   830.01   832.30   834.86
eigval :      837.51   850.84   867.52   868.09   869.70   872.29
eigval :      873.95   876.17   881.05   911.35   912.00   919.35
eigval :      923.91   928.38   942.00   959.83   960.02   961.28
eigval :      962.22   962.52   962.93   963.20   963.44   972.84
eigval :      973.60   975.17  1013.09  1018.84  1023.80  1025.05
eigval :     1026.00  1026.81  1028.33  1029.53  1030.50  1033.65
eigval :     1034.12  1034.38  1034.82  1035.29  1038.18  1040.10
eigval :     1042.29  1043.38  1059.61  1082.71  1092.85  1116.48
eigval :     1123.66  1126.95  1146.85  1160.40  1193.01  1194.25
eigval :     1198.06  1205.46  1214.28  1225.29  1226.16  1226.46
eigval :     1228.09  1229.95  1231.88  1233.59  1236.31  1251.48
eigval :     1261.98  1275.93  1287.86  1293.10  1299.69  1300.16
eigval :     1307.61  1320.07  1332.91  1334.44  1347.43  1356.87
eigval :     1390.67  1395.92  1396.59  1399.27  1401.03  1402.43
eigval :     1403.14  1404.58  1405.56  1406.11  1406.29  1407.25
eigval :     1410.95  1417.59  1420.91  1428.68  1429.17  1429.62
eigval :     1434.48  1438.21  1446.47  1461.34  1467.10  1469.68
eigval :     1473.85  1478.06  1478.93  1481.14  1481.76  1482.20
eigval :     1483.34  1484.59  1487.64  1489.76  1491.13  1491.42
eigval :     1493.53  1493.59  1494.25  1500.02  1500.44  1504.36
eigval :     1504.65  1505.03  1514.71  1514.97  1519.15  1520.12
eigval :     1543.57  1547.17  1559.26  1574.41  1575.56  1579.98
eigval :     1583.43  1602.11  2975.20  2984.13  2986.76  2996.01
eigval :     3009.60  3013.11  3020.05  3022.98  3023.02  3023.19
eigval :     3024.41  3024.49  3025.13  3027.62  3027.71  3028.95
eigval :     3030.89  3031.33  3031.56  3032.84  3033.42  3034.31
eigval :     3035.23  3036.05  3036.24  3037.47  3039.83  3040.07
eigval :     3040.62  3047.10  3049.64  3050.01  3053.24  3053.41
eigval :     3053.88  3059.31  3060.56  3061.41  3062.70  3063.08
eigval :     3073.38  3081.09  3090.07  3091.65  3100.26  3100.86
eigval :     3117.67  3121.60  3122.63

   temp. (K)  partition function   enthalpy   heat capacity  entropy
                                   cal/mol     cal/K/mol   cal/K/mol   J/K/mol
 298.15  VIB  0.170E+25            30817.511    181.313    193.239
         ROT  0.724E+08              888.752      2.981     38.945
         INT  0.123E+33            31706.264    184.294    232.184
         TR   0.168E+29             1481.254      4.968     45.375
         TOT                       33187.5177   189.2624   277.5587  1161.3057

       T/K    H(0)-H(T)+PV         H(T)/Eh          T*S/Eh         G(T)/Eh
   ------------------------------------------------------------------------
    298.15    0.528877E-01    0.859185E+00    0.131877E+00    0.727308E+00
   ------------------------------------------------------------------------

         :::::::::::::::::::::::::::::::::::::::::::::::::::::
         ::                  THERMODYNAMIC                  ::
         :::::::::::::::::::::::::::::::::::::::::::::::::::::
         :: total free energy        -139.007804026067 Eh   ::
         ::.................................................::
         :: total energy             -139.735111593023 Eh   ::
         :: zero point energy           0.806296998279 Eh   ::
         :: G(RRHO) w/o ZPVE           -0.078989431323 Eh   ::
         :: G(RRHO) contrib.            0.727307566956 Eh   ::
         :::::::::::::::::::::::::::::::::::::::::::::::::::::

           -------------------------------------------------
          | TOTAL ENERGY             -139.735111593023 Eh   |
          | TOTAL ENTHALPY           -138.875926918848 Eh   |
          | TOTAL FREE ENERGY        -139.007804026067 Eh   |
          | GRADIENT NORM               0.000080706375 Eh/α |
           -------------------------------------------------

 * finished run on 2025/09/02 at 17:50:39.717
