   * xtb version 6.7.1 (edcfbbe) compiled by 'albert@albert-system' on 2024-07-22

   ID    Z sym.   atoms
    1    6 C      1-6, 8-12, 16, 17, 19-50
    2    5 B      7
    3    9 F      13-15
    4    7 N      18
    5    1 H      51-99

          program call               : xtb data2507/gas/BuCzCF3oB/BuCzCF3oB_gas_S0_crest.xyz --gfn 2 --ohess vtight --parallel 40 --molden --ceasefiles --namespace data2507/gas/BuCzCF3oB/BuCzCF3oB_gas_S0_finalOpt
          :  Hamiltonian                  GFN2-xTB          :
 * total energy  :  -139.8148911 Eh     change       -0.4743981E-08 Eh
 * total energy  :  -139.8148918 Eh     change       -0.6984835E-06 Eh
 * total energy  :  -139.8148924 Eh     change       -0.5538781E-06 Eh
 * total energy  :  -139.8148944 Eh     change       -0.2002055E-05 Eh
 * total energy  :  -139.8148959 Eh     change       -0.1552413E-05 Eh
 * total energy  :  -139.8148967 Eh     change       -0.8237364E-06 Eh
 * total energy  :  -139.8148975 Eh     change       -0.8005179E-06 Eh
 * total energy  :  -139.8148984 Eh     change       -0.8837229E-06 Eh
 * total energy  :  -139.8148991 Eh     change       -0.7142922E-06 Eh
 * total energy  :  -139.8148998 Eh     change       -0.6709480E-06 Eh
 * total energy  :  -139.8149061 Eh     change       -0.1402817E-06 Eh
 * total energy  :  -139.8149062 Eh     change       -0.1576221E-06 Eh
 * total energy  :  -139.8149064 Eh     change       -0.1336280E-06 Eh
 * total energy  :  -139.8149065 Eh     change       -0.1496148E-06 Eh
 * total energy  :  -139.8149066 Eh     change       -0.1244950E-06 Eh
 * total energy  :  -139.8149068 Eh     change       -0.1644537E-06 Eh
 * total energy  :  -139.8149070 Eh     change       -0.1461139E-06 Eh
 * total energy  :  -139.8149071 Eh     change       -0.1830406E-06 Eh
 * total energy  :  -139.8149072 Eh     change       -0.3183376E-07 Eh
   *** GEOMETRY OPTIMIZATION CONVERGED AFTER 38 ITERATIONS ***

 final structure:
================
99
 xtb: 6.7.1 (edcfbbe)
C           -7.42558628600002       -2.45644190514348        1.58241036897040
C           -6.04699370214017       -1.92405950862089        1.34000935126667
C           -5.18604498542263       -1.68645181473983        2.40349508641201
C           -3.90597457740143       -1.19948870074561        2.20873116225494
C           -3.04923263414881       -0.94424280284235        3.41432839386507
C           -3.43500910696114       -0.91098181002545        0.91114427407980
B           -1.99274362500832       -0.31671037142461        0.72925858887538
C           -1.84854930355179        1.06549006067003       -0.02648483720971
C           -2.94237172541415        1.93918021223938        0.01926199421882
C           -2.90187745504105        3.22216316637146       -0.49072288575974
C           -1.73447281104816        3.66721555262986       -1.09448103999033
C           -1.62333964744988        5.05537777529253       -1.65139705882053
F           -0.76969225945085        5.81753272108456       -0.93661496933966
F           -2.78817841438091        5.71759614480600       -1.67220886980492
F           -1.15668027924463        5.06723769050812       -2.91338532797490
C           -0.63154270083256        2.83287206086988       -1.17947352996890
C           -0.67790990416765        1.54646442791351       -0.64940070463526
N            0.49881370453565        0.79027158283944       -0.72517047199148
C            0.67215457785385       -0.45841858741275       -1.28560370650140
C           -0.18636050002989       -1.21097420531971       -2.06753595871206
C            0.26415720505931       -2.42578736848413       -2.54274033833080
C            1.54737903103485       -2.91843760204137       -2.27452235918191
C            1.94097650386332       -4.28223850311360       -2.82347947381421
C            1.85461128881389       -4.25596071901760       -4.35596482692529
C            3.36659581928344       -4.68354997157604       -2.43461572337306
C            0.98267477463227       -5.34455017155144       -2.26695146362498
C            2.41434598195215       -2.13245342130282       -1.53410512066514
C            1.98871036420376       -0.90337181825416       -1.05080136248072
C            2.64577374172559        0.13945005022166       -0.31487087051345
C            3.92107613254378        0.26050867158590        0.21948104600771
C            4.27171066543107        1.40922085323735        0.90857225738621
C            5.64192080521958        1.60037301674236        1.54247634984707
C            6.31660806358325        2.83596857578566        0.93077995096037
C            6.56417769581868        0.39791358152593        1.32276527194128
C            5.46981232548874        1.79639520722738        3.05566447377880
C            3.32099543751446        2.43093999982792        1.03250986045980
C            2.04571675054855        2.33608565115911        0.51266239357725
C            1.70228508429021        1.17451544436644       -0.16020820735408
C           -0.72399277442579       -0.99412098852389        1.34657011162357
C           -0.43200955434205       -2.33981474513193        1.04617635088388
C           -1.43051083150224       -3.20731330086801        0.33725833435761
C            0.78440694341552       -2.88683161904234        1.41066840598440
C            1.73743868874550       -2.15253734038430        2.10469335085695
C            3.07152798391337       -2.75083759605016        2.42636259340085
C            1.40903870594620       -0.86630923880346        2.49246359657128
C            0.19966187021960       -0.28849799264300        2.13332029575462
C           -0.11702590948093        1.06449833119124        2.70265986324886
C           -4.31501823846028       -1.14020086483185       -0.15912192551526
C           -3.91011279827824       -0.91661564973564       -1.58750250485263
C           -5.58964861651618       -1.64462342937854        0.06511064505855
H           -8.01032502131504       -1.74092888689462        2.16017314541310
H           -7.94101909151148       -2.64738766553677        0.64448037295650
H           -7.38029284471126       -3.38374288050477        2.15205181842197
H           -5.52794488859055       -1.88947164445739        3.40928668010484
H           -3.57830508368089       -1.21917498257015        4.32401068733389
H           -2.78206067291633        0.10880212799922        3.47580469945846
H           -2.12751904083156       -1.51908934746106        3.35997048009158
H           -3.85139261993911        1.59546862084952        0.49043511197853
H           -3.76225612398825        3.86942321800044       -0.42515323531806
H            0.27171280096151        3.17681825120256       -1.66164698707657
H           -1.17452032081777       -0.85477331494388       -2.31147538898832
H           -0.40998715264943       -3.01033175384370       -3.15068191818447
H            0.84314989893476       -4.04730792781549       -4.69298316994050
H            2.51190970111433       -3.48647349867755       -4.75543615165812
H            2.15836400006609       -5.21702973521252       -4.76603368396286
H            3.47837783182484       -4.72800485641593       -1.35363874103407
H            3.58832065016545       -5.67046483011890       -2.83625748933205
H            4.09467194856272       -3.98539391370327       -2.84084707931253
H            1.04268334596931       -5.36905645850321       -1.18088211278246
H           -0.04645533009322       -5.13822768190762       -2.54715032920756
H            1.24915825373706       -6.32822478944647       -2.64850488938121
H            3.42510028853159       -2.44430574831403       -1.33039288919412
H            4.61360854330634       -0.55391769751958        0.08958495077183
H            7.30701775989869        2.97411132798970        1.35976925347152
H            5.73832848755708        3.73695044533911        1.11492265335085
H            6.42029726673432        2.71210072495530       -0.14519000128916
H            7.52514381382588        0.58643706273685        1.79755218091441
H            6.14367541757546       -0.50363214311448        1.76244200992562
H            6.74094092877698        0.22952996099267        0.26304331041989
H            4.97644983861845        0.93030754429751        3.49257002857640
H            4.87200681159857        2.67615584108934        3.27699840687064
H            6.44063196398738        1.91633580019582        3.53218237046284
H            3.58234368535760        3.33674808084291        1.55843067131034
H            1.34237854076154        3.14649464276454        0.63719567739941
H           -0.98823259937138       -4.16765105863473        0.08415746233570
H           -2.29417871925401       -3.38247923347185        0.97798311709396
H           -1.78156997738475       -2.73758679166190       -0.57576781466892
H            1.00520546651634       -3.91057693808435        1.14185184883691
H            3.61309994918792       -2.96203391593579        1.50486600602681
H            2.95410238751927       -3.68965070657721        2.96644214148302
H            3.66719783840617       -2.07063616816363        3.03004043376587
H            2.11094379906373       -0.28741442957601        3.07657830945688
H           -0.92850273012811        1.55280432517285        2.17084482145526
H           -0.41678595842470        0.95064086156206        3.74591484850840
H            0.76281893438248        1.70377753423207        2.68142432257930
H           -4.77752977414695       -0.65895135116803       -2.19208946134896
H           -3.48088109423924       -1.83135155846196       -1.99963135058139
H           -3.17596832288260       -0.12173183748438       -1.67500831320639
H           -6.23931989820214       -1.81997192792849       -0.78155206630982

          :  Hamiltonian                  GFN2-xTB          :
         :: gradient norm              0.000123097572 Eh/a0 ::
         :: HOMO-LUMO gap              1.852004285410 eV    ::
         :: SCC energy              -142.035862050718 Eh    ::
         :: -> dispersion             -0.143406044073 Eh    ::
         :: repulsion energy           2.220954877699 Eh    ::

    * Orbital Energies and Occupations

         #    Occupation            Energy/Eh            Energy/eV
      -------------------------------------------------------------
         1        2.0000           -0.8714811             -23.7142
       ...           ...                  ...                  ...
       117        2.0000           -0.4150443             -11.2939
       118        2.0000           -0.4126649             -11.2292
       119        2.0000           -0.4078301             -11.0976
       120        2.0000           -0.4075304             -11.0895
       121        2.0000           -0.4053137             -11.0291
       122        2.0000           -0.3999878             -10.8842
       123        2.0000           -0.3942011             -10.7268
       124        2.0000           -0.3868008             -10.5254
       125        2.0000           -0.3833870             -10.4325
       126        2.0000           -0.3798297             -10.3357
       127        2.0000           -0.3741834             -10.1820
       128        2.0000           -0.3680761             -10.0159
       129        2.0000           -0.3561305              -9.6908 (HOMO)
       130                         -0.2880703              -7.8388 (LUMO)
       131                         -0.2495408              -6.7904
       132                         -0.2392137              -6.5093
       133                         -0.2361780              -6.4267
       134                         -0.2184297              -5.9438
       135                         -0.2141089              -5.8262
       136                         -0.2127133              -5.7882
       137                         -0.2064854              -5.6188
       138                         -0.1888773              -5.1396
       139                         -0.1822058              -4.9581
       140                         -0.1799832              -4.8976
       ...                                ...                  ...
       249                          0.7485477              20.3690
      -------------------------------------------------------------
                  HL-Gap            0.0680602 Eh            1.8520 eV

     #   Z          covCN         q      C6AA      α(0)
     1   6 C        3.758    -0.108    22.619     6.781
     2   6 C        2.963     0.015    27.666     8.627
     3   6 C        2.930    -0.056    29.394     8.891
     4   6 C        2.967     0.013    27.718     8.636
     5   6 C        3.759    -0.115    22.754     6.800
     6   6 C        2.887    -0.085    30.116     8.997
     7   5 B        2.708     0.254    17.661     7.048
     8   6 C        2.880    -0.066    29.641     8.925
     9   6 C        2.927    -0.028    28.697     8.785
    10   6 C        2.914    -0.033    28.816     8.802
    11   6 C        2.976    -0.027    28.659     8.781
    12   6 C        3.337     0.486    17.278     6.581
    13   9 F        0.791    -0.213    11.372     3.984
    14   9 F        0.791    -0.207    11.309     3.972
    15   9 F        0.791    -0.211    11.345     3.979
    16   6 C        2.926    -0.038    28.954     8.824
    17   6 C        2.914     0.073    26.371     8.421
    18   7 N        2.804    -0.046    22.127     6.986
    19   6 C        3.082     0.045    26.900     8.503
    20   6 C        2.909    -0.055    29.355     8.884
    21   6 C        2.932    -0.038    28.945     8.823
    22   6 C        2.973    -0.001    28.055     8.688
    23   6 C        3.903     0.026    20.080     6.370
    24   6 C        3.761    -0.106    22.564     6.771
    25   6 C        3.762    -0.106    22.571     6.772
    26   6 C        3.762    -0.103    22.506     6.763
    27   6 C        2.919    -0.042    29.040     8.837
    28   6 C        3.071    -0.018    28.383     8.735
    29   6 C        3.069    -0.017    28.360     8.732
    30   6 C        2.918    -0.042    29.041     8.837
    31   6 C        2.973    -0.001    28.060     8.689
    32   6 C        3.903     0.026    20.082     6.370
    33   6 C        3.761    -0.106    22.565     6.772
    34   6 C        3.761    -0.107    22.583     6.774
    35   6 C        3.762    -0.103    22.518     6.764
    36   6 C        2.931    -0.040    28.988     8.830
    37   6 C        2.909    -0.053    29.308     8.877
    38   6 C        3.085     0.045    26.906     8.503
    39   6 C        2.890    -0.084    30.092     8.994
    40   6 C        2.967     0.013    27.711     8.635
    41   6 C        3.759    -0.112    22.696     6.792
    42   6 C        2.930    -0.053    29.325     8.881
    43   6 C        2.964     0.016    27.648     8.625
    44   6 C        3.758    -0.104    22.537     6.768
    45   6 C        2.930    -0.053    29.323     8.881
    46   6 C        2.967     0.012    27.743     8.640
    47   6 C        3.759    -0.109    22.642     6.784
    48   6 C        2.966     0.012    27.743     8.640
    49   6 C        3.760    -0.108    22.622     6.781
    50   6 C        2.930    -0.056    29.391     8.891
    51   1 H        0.925     0.045     2.385     2.415
    52   1 H        0.925     0.039     2.456     2.451
    53   1 H        0.925     0.044     2.393     2.419
    54   1 H        0.925     0.026     2.644     2.543
    55   1 H        0.925     0.039     2.465     2.455
    56   1 H        0.925     0.041     2.435     2.440
    57   1 H        0.925     0.051     2.306     2.375
    58   1 H        0.926     0.052     2.298     2.370
    59   1 H        0.926     0.055     2.256     2.349
    60   1 H        0.926     0.058     2.227     2.334
    61   1 H        0.926     0.021     2.713     2.576
    62   1 H        0.926     0.027     2.622     2.532
    63   1 H        0.925     0.035     2.512     2.478
    64   1 H        0.925     0.034     2.536     2.490
    65   1 H        0.925     0.036     2.504     2.475
    66   1 H        0.925     0.034     2.525     2.485
    67   1 H        0.925     0.035     2.520     2.482
    68   1 H        0.925     0.035     2.514     2.479
    69   1 H        0.925     0.031     2.569     2.506
    70   1 H        0.925     0.035     2.520     2.483
    71   1 H        0.925     0.035     2.517     2.481
    72   1 H        0.926     0.036     2.503     2.474
    73   1 H        0.926     0.037     2.482     2.464
    74   1 H        0.925     0.036     2.507     2.476
    75   1 H        0.925     0.036     2.499     2.472
    76   1 H        0.925     0.034     2.535     2.490
    77   1 H        0.925     0.035     2.521     2.483
    78   1 H        0.925     0.035     2.516     2.480
    79   1 H        0.925     0.035     2.512     2.479
    80   1 H        0.925     0.031     2.578     2.511
    81   1 H        0.925     0.035     2.515     2.480
    82   1 H        0.925     0.035     2.511     2.478
    83   1 H        0.926     0.029     2.594     2.519
    84   1 H        0.926     0.024     2.667     2.554
    85   1 H        0.925     0.039     2.463     2.454
    86   1 H        0.925     0.046     2.365     2.405
    87   1 H        0.925     0.043     2.404     2.424
    88   1 H        0.925     0.023     2.681     2.560
    89   1 H        0.925     0.045     2.383     2.414
    90   1 H        0.925     0.042     2.424     2.435
    91   1 H        0.925     0.037     2.489     2.467
    92   1 H        0.926     0.025     2.665     2.553
    93   1 H        0.925     0.032     2.562     2.503
    94   1 H        0.924     0.043     2.408     2.427
    95   1 H        0.925     0.045     2.389     2.417
    96   1 H        0.925     0.040     2.445     2.445
    97   1 H        0.924     0.041     2.436     2.441
    98   1 H        0.925     0.038     2.481     2.463
    99   1 H        0.925     0.025     2.654     2.548

molecular dipole:
                 x           y           z       tot (Debye)
 q only:       -0.063      -1.927       0.858
   full:       -0.195      -1.713       0.801       4.833

 projected vibrational frequencies (cm⁻¹)
eigval :       -0.00    -0.00    -0.00    -0.00     0.00     0.00
eigval :       11.54    13.61    14.84    18.44    25.33    27.30
eigval :       29.34    31.39    33.62    34.22    38.56    48.22
eigval :       54.86    61.96    68.04    84.48    92.64    95.04
eigval :      101.85   109.89   121.89   126.96   131.77   139.78
eigval :      147.43   150.86   152.74   162.23   167.33   169.46
eigval :      179.59   184.59   187.09   190.11   197.76   203.95
eigval :      205.36   207.92   219.90   220.56   224.57   232.80
eigval :      246.77   262.31   273.92   276.27   278.89   288.33
eigval :      307.54   310.27   318.38   320.73   322.64   324.86
eigval :      326.40   338.12   344.75   349.69   360.99   369.83
eigval :      376.35   398.10   400.13   411.87   421.57   428.24
eigval :      442.35   446.69   460.99   462.34   465.69   467.87
eigval :      478.60   488.03   490.29   494.22   498.64   506.90
eigval :      513.69   515.98   523.86   533.49   540.25   561.16
eigval :      569.64   578.86   587.68   592.72   601.46   602.72
eigval :      617.55   621.11   639.88   643.83   649.18   675.11
eigval :      680.81   686.19   699.73   705.69   714.89   724.97
eigval :      781.34   819.38   826.12   832.83   832.91   836.03
eigval :      840.42   870.78   871.89   873.92   875.31   883.57
eigval :      885.10   890.43   891.03   911.49   920.86   923.09
eigval :      926.77   930.69   954.86   959.92   960.18   962.44
eigval :      962.48   962.80   963.24   963.46   964.52   976.23
eigval :      978.65  1019.98  1023.19  1027.47  1028.20  1029.62
eigval :     1030.51  1030.76  1032.43  1033.93  1034.74  1035.33
eigval :     1035.43  1035.74  1041.14  1041.57  1042.01  1044.17
eigval :     1044.75  1059.02  1075.68  1095.98  1113.63  1128.71
eigval :     1131.69  1158.24  1167.37  1177.03  1183.70  1199.23
eigval :     1208.11  1221.12  1228.19  1228.34  1230.11  1232.29
eigval :     1233.57  1235.20  1237.87  1238.28  1245.42  1256.23
eigval :     1271.99  1284.88  1297.38  1300.71  1303.21  1305.35
eigval :     1311.69  1336.01  1340.14  1348.27  1353.44  1361.56
eigval :     1399.43  1399.57  1401.72  1402.15  1403.92  1404.20
eigval :     1405.20  1405.87  1406.09  1409.64  1410.00  1415.38
eigval :     1426.13  1428.71  1429.29  1429.55  1444.11  1449.20
eigval :     1454.38  1462.57  1476.66  1478.25  1480.82  1481.03
eigval :     1482.60  1484.26  1484.71  1486.44  1487.18  1487.65
eigval :     1488.45  1490.84  1492.75  1493.14  1493.67  1495.34
eigval :     1496.38  1499.30  1502.02  1502.60  1505.87  1506.16
eigval :     1514.87  1514.96  1520.66  1521.58  1549.30  1558.87
eigval :     1559.60  1571.37  1576.07  1587.19  1602.43  1604.44
eigval :     1607.06  1621.04  2983.56  2984.06  3002.84  3002.95
eigval :     3008.80  3015.55  3017.84  3020.08  3020.64  3021.36
eigval :     3021.78  3022.13  3025.26  3026.40  3028.49  3028.64
eigval :     3029.27  3030.52  3031.22  3032.92  3033.62  3034.83
eigval :     3035.06  3037.73  3038.05  3038.86  3040.87  3041.04
eigval :     3042.90  3046.74  3046.88  3050.13  3050.73  3053.63
eigval :     3058.41  3063.28  3063.88  3064.91  3065.56  3068.28
eigval :     3073.90  3082.49  3087.25  3090.54  3093.12  3106.16
eigval :     3106.71  3114.49  3119.57

   temp. (K)  partition function   enthalpy   heat capacity  entropy
                                   cal/mol     cal/K/mol   cal/K/mol   J/K/mol
 298.15  VIB  0.337E+25            30607.700    179.617    192.439
         ROT  0.724E+08              888.752      2.981     38.945
         INT  0.244E+33            31496.452    182.598    231.384
         TR   0.168E+29             1481.254      4.968     45.375
         TOT                       32977.7060   187.5658   276.7582  1157.9564

       T/K    H(0)-H(T)+PV         H(T)/Eh          T*S/Eh         G(T)/Eh
   ------------------------------------------------------------------------
    298.15    0.525533E-01    0.862441E+00    0.131497E+00    0.730945E+00
   ------------------------------------------------------------------------

         :::::::::::::::::::::::::::::::::::::::::::::::::::::
         ::                  THERMODYNAMIC                  ::
         :::::::::::::::::::::::::::::::::::::::::::::::::::::
         :: total free energy        -139.083962432349 Eh   ::
         ::.................................................::
         :: total energy             -139.814907173002 Eh   ::
         :: zero point energy           0.809888179699 Eh   ::
         :: G(RRHO) w/o ZPVE           -0.078943439045 Eh   ::
         :: G(RRHO) contrib.            0.730944740653 Eh   ::
         :::::::::::::::::::::::::::::::::::::::::::::::::::::

           -------------------------------------------------
          | TOTAL ENERGY             -139.814907173002 Eh   |
          | TOTAL ENTHALPY           -138.952465673686 Eh   |
          | TOTAL FREE ENERGY        -139.083962432349 Eh   |
          | GRADIENT NORM               0.000123146950 Eh/α |
          | HOMO-LUMO GAP               1.852013076116 eV   |
           -------------------------------------------------

 * finished run on 2025/09/02 at 17:50:19.681
