   * xtb version 6.7.1 (edcfbbe) compiled by 'albert@albert-system' on 2024-07-22

   ID    Z sym.   atoms
    1    8 O      1, 3, 11, 12
    2   16 S      2, 10
    3    6 C      4-9, 13-19, 21-37
    4    7 N      20
    5    1 H      38-58

          program call               : xtb data2507/toluene/TPADSO2/TPADSO2_toluene_T1_crest.xyz --gfn 2 --uhf 2 --gbsa toluene --ohess vtight --parallel 40 --molden --ceasefiles --namespace data2507/toluene/TPADSO2/TPADSO2_toluene_T1_finalOpt
      * Solvation model:               GBSA
        Solvent                        toluene
        Solvent mass                       9.2140E+01 g/mol
          :  Hamiltonian                  GFN2-xTB          :
 * total energy  :  -100.5457343 Eh     change       -0.7673719E-09 Eh
 * total energy  :  -100.5463393 Eh     change       -0.6050449E-03 Eh
 * total energy  :  -100.5467789 Eh     change       -0.4395148E-03 Eh
 * total energy  :  -100.5468165 Eh     change       -0.3760308E-04 Eh
 * total energy  :  -100.5468718 Eh     change       -0.5534404E-04 Eh
 * total energy  :  -100.5468862 Eh     change       -0.1443671E-04 Eh
 * total energy  :  -100.5469158 Eh     change       -0.2951680E-04 Eh
 * total energy  :  -100.5469294 Eh     change       -0.1359127E-04 Eh
 * total energy  :  -100.5469627 Eh     change       -0.3330422E-04 Eh
 * total energy  :  -100.5469816 Eh     change       -0.1894278E-04 Eh
 * total energy  :  -100.5470906 Eh     change       -0.6257871E-06 Eh
 * total energy  :  -100.5470912 Eh     change       -0.5937783E-06 Eh
 * total energy  :  -100.5470919 Eh     change       -0.7200706E-06 Eh
 * total energy  :  -100.5470928 Eh     change       -0.9666163E-06 Eh
 * total energy  :  -100.5470940 Eh     change       -0.1134207E-05 Eh
 * total energy  :  -100.5470950 Eh     change       -0.1040567E-05 Eh
 * total energy  :  -100.5470958 Eh     change       -0.8052220E-06 Eh
 * total energy  :  -100.5470964 Eh     change       -0.6247907E-06 Eh
 * total energy  :  -100.5470965 Eh     change       -0.6619800E-08 Eh
   *** GEOMETRY OPTIMIZATION CONVERGED AFTER 44 ITERATIONS ***

 final structure:
================
58
 xtb: 6.7.1 (edcfbbe)
O            5.50738711999865       -2.70549841593171       -0.40482113200502
S            5.15510382782502       -1.52566091230892        0.36688139283962
O            5.65316314943596       -1.51287677854781        1.72684342538249
C            5.76389862483530       -0.09112528847194       -0.50187744823368
C            6.68722144320192       -0.21858121729266       -1.52866790050274
C            7.10769592634350        0.90556437473674       -2.21643408989391
C            6.58716345227584        2.15782883042533       -1.89681597427755
C            5.64470905835676        2.28062852424052       -0.88991806869772
C            5.24400162617815        1.15756116529752       -0.18636327168983
S            3.97267413899406        1.26521167136763        1.06090001792394
O            3.27218342329640        2.52586546361237        0.88358546964821
O            4.53430503119662        1.06326033859487        2.37750859248788
C            2.86747736177942       -0.05509278784967        0.62222411163326
C            1.52707747249470        0.18332264116405        0.52015059538637
C            0.62487127692429       -0.82929659632302        0.10475112122966
C           -0.77866880776162       -0.59868036719028        0.03972443370056
C           -1.65482652137000       -1.45282451257536       -0.69489282214992
C           -3.00013449206341       -1.23964839297370       -0.74219877623026
C           -3.58701426440855       -0.14417122162977       -0.06642370804302
N           -4.95074025920457        0.07005700926282       -0.10842564262994
C           -5.82553581043739       -1.01373819737319       -0.15204654804489
C           -7.00704152904036       -0.94173696984952       -0.90049992089786
C           -7.86253141993430       -2.02306696140019       -0.94451927055358
C           -7.56066371541988       -3.18711167145849       -0.25013418473393
C           -6.39142929719343       -3.26310751088704        0.49464742728984
C           -5.52615370140260       -2.18982385619833        0.54726652368600
C           -5.45360010584520        1.36986557130189       -0.10305530316135
C           -4.77394064305385        2.39082736436336       -0.77915085395576
C           -5.27349620773795        3.67684926874601       -0.76806202183396
C           -6.44801680467754        3.96850714123243       -0.08764270966433
C           -7.12489109819625        2.96000370249621        0.58545801332479
C           -6.63783048604441        1.66930140435035        0.58182501262822
C           -2.73484310899412        0.72382560803373        0.65723573186014
C           -1.39168811700874        0.50097760753626        0.71203518469470
C            1.21020349892016       -2.09139846310460       -0.25127705924740
C            2.55478195996368       -2.31273205859486       -0.16116528080390
C            3.41604978805624       -1.30949103967288        0.30401612764420
H            7.05403685553021       -1.20623468800077       -1.76158020270457
H            7.83753790237447        0.80993220988573       -3.00517535906320
H            6.91310681596180        3.03266706064495       -2.43714694846071
H            5.20175846013266        3.22958471669694       -0.63030793379632
H            1.19566841897784        1.18739475899067        0.73099455061556
H           -1.23980191924650       -2.26460520728575       -1.26797687380762
H           -3.62894715595788       -1.88123970376346       -1.34164656776660
H           -7.22800935462879       -0.04643554558051       -1.46162474750298
H           -8.76624101519315       -1.96406673570584       -1.53173433872080
H           -8.23368214652627       -4.02958742966316       -0.28798107182705
H           -6.15852197778521       -4.16178175813885        1.04526353951431
H           -4.63028057542033       -2.23631233785564        1.14787597729760
H           -3.87507603142493        2.15626616240627       -1.32910448524175
H           -4.74938792980332        4.45591635896373       -1.30043310857200
H           -6.83356620766106        4.97627038220583       -0.08178592991922
H           -8.03247104890687        3.18560913542869        1.12432686693732
H           -7.14934855452096        0.89027600399110        1.12668244014760
H           -3.17067788157399        1.53924500555910        1.21537581834085
H           -0.78220505420313        1.14946924727829        1.31938993008286
H            0.57448494749454       -2.90074299945916       -0.56867251425725
H            2.99604979598639       -3.25986195212372       -0.43046311670453

          :  Hamiltonian                  GFN2-xTB          :
         :: gradient norm              0.000060753746 Eh/a0 ::
         :: HOMO-LUMO gap              0.498377879137 eV    ::
         :: SCC energy              -102.125329453787 Eh    ::
         :: -> dispersion             -0.084188460799 Eh    ::
         :: -> Gsolv                  -0.073910820617 Eh    ::
         :: repulsion energy           1.578232998603 Eh    ::

    * Orbital Energies and Occupations

         #    Occupation            Energy/Eh            Energy/eV
      -------------------------------------------------------------
         1        2.0000           -0.7752938             -21.0968
       ...           ...                  ...                  ...
        80        2.0000           -0.4325374             -11.7699
        81        2.0000           -0.4310315             -11.7290
        82        2.0000           -0.4299642             -11.6999
        83        2.0000           -0.4293546             -11.6833
        84        2.0000           -0.4287061             -11.6657
        85        2.0000           -0.4267606             -11.6127
        86        2.0000           -0.4250693             -11.5667
        87        2.0000           -0.4236050             -11.5269
        88        2.0000           -0.4180508             -11.3757
        89        2.0000           -0.4046080             -11.0099
        90        2.0000           -0.3979644             -10.8292
        91        1.0000           -0.3725461             -10.1375
        92        0.9999           -0.2868630              -7.8059 (HOMO)
        93        0.0001           -0.2685476              -7.3076 (LUMO)
        94                         -0.2561174              -6.9693
        95                         -0.2550011              -6.9389
        96                         -0.2477829              -6.7425
        97                         -0.2444780              -6.6526
        98                         -0.2432704              -6.6197
        99                         -0.2364070              -6.4330
       100                         -0.2339242              -6.3654
       101                         -0.2112216              -5.7476
       102                         -0.1513589              -4.1187
       103                         -0.1325314              -3.6064
       ...                                ...                  ...
       179                          1.2065307              32.8314
      -------------------------------------------------------------
                  HL-Gap            0.0183154 Eh            0.4984 eV

     #   Z          covCN         q      C6AA      α(0)
     1   8 O        0.860    -0.573    25.461     6.765
     2  16 S        3.882     0.920   108.969    17.569
     3   8 O        0.860    -0.592    25.915     6.825
     4   6 C        3.009    -0.087    30.158     9.008
     5   6 C        2.951    -0.021    28.533     8.761
     6   6 C        2.919    -0.023    28.568     8.765
     7   6 C        2.920    -0.024    28.614     8.772
     8   6 C        2.951    -0.021    28.521     8.759
     9   6 C        3.009    -0.087    30.171     9.010
    10  16 S        3.895     0.934   108.564    17.537
    11   8 O        0.860    -0.570    25.386     6.755
    12   8 O        0.860    -0.585    25.745     6.803
    13   6 C        3.005    -0.093    30.324     9.033
    14   6 C        2.965    -0.029    28.727     8.791
    15   6 C        2.968    -0.001    28.046     8.687
    16   6 C        2.967     0.022    27.515     8.604
    17   6 C        2.916    -0.037    28.911     8.817
    18   6 C        2.911    -0.035    28.863     8.810
    19   6 C        2.928     0.044    27.007     8.523
    20   7 N        2.753     0.020    20.898     6.789
    21   6 C        2.930     0.060    26.652     8.466
    22   6 C        2.920    -0.035    28.870     8.811
    23   6 C        2.917    -0.021    28.539     8.760
    24   6 C        2.919    -0.021    28.537     8.760
    25   6 C        2.917    -0.021    28.535     8.760
    26   6 C        2.920    -0.034    28.849     8.808
    27   6 C        2.930     0.060    26.653     8.467
    28   6 C        2.920    -0.034    28.848     8.808
    29   6 C        2.917    -0.021    28.537     8.760
    30   6 C        2.919    -0.021    28.536     8.760
    31   6 C        2.917    -0.021    28.541     8.761
    32   6 C        2.920    -0.035    28.872     8.811
    33   6 C        2.911    -0.034    28.852     8.808
    34   6 C        2.916    -0.036    28.901     8.816
    35   6 C        2.917    -0.041    29.021     8.834
    36   6 C        2.942    -0.028    28.694     8.785
    37   6 C        3.005    -0.114    30.882     9.116
    38   1 H        0.926     0.068     2.109     2.271
    39   1 H        0.926     0.077     2.011     2.218
    40   1 H        0.926     0.077     2.008     2.216
    41   1 H        0.926     0.070     2.091     2.261
    42   1 H        0.926     0.064     2.158     2.297
    43   1 H        0.926     0.055     2.256     2.349
    44   1 H        0.926     0.056     2.243     2.342
    45   1 H        0.926     0.056     2.246     2.344
    46   1 H        0.926     0.055     2.256     2.349
    47   1 H        0.926     0.053     2.281     2.362
    48   1 H        0.926     0.054     2.271     2.357
    49   1 H        0.926     0.056     2.250     2.346
    50   1 H        0.926     0.056     2.249     2.345
    51   1 H        0.926     0.054     2.274     2.358
    52   1 H        0.926     0.053     2.283     2.363
    53   1 H        0.926     0.055     2.257     2.349
    54   1 H        0.926     0.056     2.246     2.344
    55   1 H        0.926     0.053     2.284     2.363
    56   1 H        0.926     0.046     2.376     2.410
    57   1 H        0.926     0.068     2.112     2.272
    58   1 H        0.926     0.055     2.259     2.350

molecular dipole:
                 x           y           z       tot (Debye)
 q only:      -10.745       0.848      -3.633
   full:      -10.336       0.838      -3.305      27.665

 projected vibrational frequencies (cm⁻¹)
eigval :       -0.00    -0.00     0.00     0.00     0.00     0.00
eigval :       13.40    13.65    25.05    34.05    51.76    56.51
eigval :       62.68    74.03    74.19    85.96   102.76   109.08
eigval :      121.23   122.50   143.41   156.14   175.03   187.08
eigval :      209.01   228.07   231.33   237.86   257.20   271.84
eigval :      293.08   296.45   315.01   319.11   326.68   340.73
eigval :      351.80   377.45   379.12   383.86   390.78   403.11
eigval :      414.15   423.28   433.03   445.87   454.47   467.98
eigval :      481.90   500.37   506.61   522.58   527.58   534.51
eigval :      551.10   577.33   582.83   589.29   604.48   617.84
eigval :      623.75   644.94   656.02   657.33   659.74   664.42
eigval :      676.69   698.85   710.66   755.71   756.97   767.54
eigval :      782.31   799.09   804.70   820.10   853.91   863.57
eigval :      867.26   883.25   894.84   897.00   898.39   902.38
eigval :      905.50   907.63   908.44   911.85   917.21   928.19
eigval :      928.54   929.26   929.99   968.67   973.56   987.40
eigval :      994.53  1001.98  1019.07  1060.58  1069.53  1074.71
eigval :     1075.25  1075.53  1104.19  1119.09  1121.24  1122.89
eigval :     1140.73  1143.30  1166.06  1166.82  1172.63  1173.59
eigval :     1173.73  1175.90  1183.84  1185.21  1196.61  1210.98
eigval :     1215.85  1221.64  1253.02  1267.19  1272.95  1278.34
eigval :     1295.87  1308.92  1319.55  1323.36  1326.56  1331.74
eigval :     1339.62  1363.51  1396.39  1398.76  1399.36  1406.97
eigval :     1424.65  1432.98  1435.26  1438.86  1443.84  1452.44
eigval :     1468.68  1519.21  1532.01  1545.69  1549.65  1557.42
eigval :     1561.01  1569.10  1592.46  3083.58  3084.68  3087.28
eigval :     3087.74  3088.19  3088.83  3092.38  3094.87  3095.46
eigval :     3095.80  3097.40  3098.51  3099.25  3103.02  3104.30
eigval :     3105.57  3105.83  3107.15  3113.16  3114.90  3121.27

   temp. (K)  partition function   enthalpy   heat capacity  entropy
                                   cal/mol     cal/K/mol   cal/K/mol   J/K/mol
 298.15  VIB  0.204E+14            17959.210    113.773    111.047
         ROT  0.534E+08              888.752      2.981     38.339
         INT  0.109E+22            18847.962    116.754    149.387
         TR   0.116E+29             1481.254      4.968     44.633
         TOT                       20329.2161   121.7224   194.0193   811.7770

       T/K    H(0)-H(T)+PV         H(T)/Eh          T*S/Eh         G(T)/Eh
   ------------------------------------------------------------------------
    298.15    0.323967E-01    0.452563E+00    0.921849E-01    0.360379E+00
   ------------------------------------------------------------------------

         :::::::::::::::::::::::::::::::::::::::::::::::::::::
         ::                  THERMODYNAMIC                  ::
         :::::::::::::::::::::::::::::::::::::::::::::::::::::
         :: total free energy        -100.186717879495 Eh   ::
         ::.................................................::
         :: total energy             -100.547096453023 Eh   ::
         :: zero point energy           0.420166758964 Eh   ::
         :: G(RRHO) w/o ZPVE           -0.059788185436 Eh   ::
         :: G(RRHO) contrib.            0.360378573529 Eh   ::
         :::::::::::::::::::::::::::::::::::::::::::::::::::::

           -------------------------------------------------
          | TOTAL ENERGY             -100.547096453023 Eh   |
          | TOTAL ENTHALPY           -100.094533026117 Eh   |
          | TOTAL FREE ENERGY        -100.186717879495 Eh   |
          | GRADIENT NORM               0.000060684507 Eh/α |
          | HOMO-LUMO GAP               0.498387637582 eV   |
           -------------------------------------------------

 * finished run on 2025/08/22 at 16:38:38.160
