   * xtb version 6.7.1 (edcfbbe) compiled by 'albert@albert-system' on 2024-07-22

   ID    Z sym.   atoms
    1    8 O      1, 3, 11, 12
    2   16 S      2, 10
    3    6 C      4-9, 13-19, 21-37
    4    7 N      20
    5    1 H      38-58

          program call               : xtb data2507/toluene/TPADSO2/TPADSO2.xyz --gfn 2 --gbsa toluene --ohess vtight --parallel 40 --molden --ceasefiles --namespace data2507/toluene/TPADSO2/TPADSO2_toluene_S0_preOpt
      * Solvation model:               GBSA
        Solvent                        toluene
        Solvent mass                       9.2140E+01 g/mol
          :  Hamiltonian                  GFN2-xTB          :
 * total energy  :  -100.6064387 Eh     change       -0.2932694E-09 Eh
 * total energy  :  -100.6175809 Eh     change       -0.1114219E-01 Eh
 * total energy  :  -100.6225541 Eh     change       -0.4973271E-02 Eh
 * total energy  :  -100.6238746 Eh     change       -0.1320490E-02 Eh
 * total energy  :  -100.6245591 Eh     change       -0.6845048E-03 Eh
 * total energy  :  -100.6248990 Eh     change       -0.3398211E-03 Eh
 * total energy  :  -100.6251802 Eh     change       -0.2811983E-03 Eh
 * total energy  :  -100.6254715 Eh     change       -0.2913820E-03 Eh
 * total energy  :  -100.6257528 Eh     change       -0.2812526E-03 Eh
 * total energy  :  -100.6260168 Eh     change       -0.2640538E-03 Eh
 * total energy  :  -100.6272329 Eh     change       -0.2147722E-05 Eh
 * total energy  :  -100.6272352 Eh     change       -0.2342309E-05 Eh
 * total energy  :  -100.6272380 Eh     change       -0.2822973E-05 Eh
 * total energy  :  -100.6272411 Eh     change       -0.3084064E-05 Eh
 * total energy  :  -100.6272442 Eh     change       -0.3050615E-05 Eh
 * total energy  :  -100.6272470 Eh     change       -0.2845314E-05 Eh
 * total energy  :  -100.6272498 Eh     change       -0.2792612E-05 Eh
 * total energy  :  -100.6272528 Eh     change       -0.3009699E-05 Eh
 * total energy  :  -100.6272528 Eh     change       -0.2129170E-07 Eh
   *** GEOMETRY OPTIMIZATION CONVERGED AFTER 68 ITERATIONS ***

 final structure:
================
58
 xtb: 6.7.1 (edcfbbe)
O            6.47149130448175       -0.70718978944499       -2.71849021566145
S            6.09844097482128       -1.19936630077147       -1.41188074289732
O            6.41882668088255       -2.57742720126510       -1.14021311970016
C            6.86936114658036       -0.15199354153271       -0.17558084391773
C            7.95815527695137        0.63503903257725       -0.50608737097256
C            8.53721910881303        1.43889092953293        0.46548221958121
C            8.02045162113647        1.45934150814976        1.75254673262084
C            6.92063040483068        0.67728131378895        2.07561162318352
C            6.35407098287185       -0.13093583513243        1.10604516889059
S            4.92591042144547       -1.14566912026848        1.49475813379039
O            4.29069142240304       -0.59768782774801        2.67165692872834
O            5.32156143696682       -2.52816356240762        1.57805727799444
C            3.82640163491529       -0.91037016332862        0.09943853653648
C            2.48064701837678       -0.70153219135790        0.31256604679111
C            1.61596674057642       -0.51221795638004       -0.77187468156972
C            0.18025745208652       -0.32337715422040       -0.55788860167135
C           -0.56343077142295        0.54225636385296       -1.36346688465882
C           -1.91632308033714        0.70943296950293       -1.16797307894231
C           -2.58450397852174        0.00101948808974       -0.16384780076635
N           -3.95220709658340        0.15177179038027        0.02564432244082
C           -4.73326936216959       -0.93474196873664        0.45189566621945
C           -4.49538213298740       -2.21494540189200       -0.04698150175685
C           -5.27333839080265       -3.27845038077563        0.36927127439676
C           -6.30178373050579       -3.08232682852590        1.27704298303245
C           -6.54490145578611       -1.81091009459858        1.77135910618616
C           -5.76670347784807       -0.74250355232089        1.36745592346985
C           -4.57442276958922        1.38619471999713       -0.22042025460130
C           -3.95002045654995        2.57797789200040        0.14594962037942
C           -4.56928925672789        3.78952438338822       -0.09570103406504
C           -5.81867668682806        3.83204265701646       -0.69358558682864
C           -6.44576984980276        2.64975053938542       -1.05265816230607
C           -5.83046245637234        1.43362351828331       -0.82338608276812
C           -1.84252365961955       -0.86662890572823        0.64469891664704
C           -0.48703590882406       -1.01703666600677        0.45464417889273
C            2.15963997112515       -0.51645678495889       -2.06122658895973
C            3.51274272212416       -0.71539306541019       -2.26598767290441
C            4.34809432841377       -0.92347444863178       -1.18081589942816
H            8.32379227622855        0.60622326346311       -1.52046229360000
H            9.38898099782987        2.05131738096586        0.21367861327285
H            8.46869973242106        2.08759917412085        2.50641534412822
H            6.48271121552380        0.68189782830702        3.06133616769118
H            2.12628471597052       -0.66585259334644        1.33067158967615
H           -0.07051531266417        1.10747138442918       -2.13932755168995
H           -2.47267059092769        1.38471049678244       -1.80062927507767
H           -3.70159314968246       -2.36805885908609       -0.76351091352682
H           -5.08113989202099       -4.26526238353743       -0.02606009696341
H           -6.91037277098942       -3.91494539590203        1.59645443576288
H           -7.34239912986903       -1.65038174160135        2.48209948295919
H           -5.95349625948021        0.24697947494567        1.75855368224332
H           -2.98173188641250        2.54607662744401        0.62382616422510
H           -4.07667904877984        4.70615496713839        0.19429477049696
H           -6.30103477559398        4.78033051149861       -0.87730115707906
H           -7.41829584029660        2.67395939949730       -1.52233936747102
H           -6.31776353757842        0.51327043801446       -1.11056031932242
H           -2.34062123396895       -1.41727283334926        1.42869160217437
H            0.06165968669876       -1.70089243054161        1.08439969726501
H            1.51035938776980       -0.38225336777250       -2.91216767104098
H            3.94531428729596       -0.71642070597479       -3.25412143952346

          :  Hamiltonian                  GFN2-xTB          :
         :: gradient norm              0.000108678052 Eh/a0 ::
         :: HOMO-LUMO gap              1.661686117207 eV    ::
         :: SCC energy              -102.223959025523 Eh    ::
         :: -> dispersion             -0.084035183229 Eh    ::
         :: -> Gsolv                  -0.055904602244 Eh    ::
         :: repulsion energy           1.596706197326 Eh    ::

    * Orbital Energies and Occupations

         #    Occupation            Energy/Eh            Energy/eV
      -------------------------------------------------------------
         1        2.0000           -0.7955732             -21.6486
       ...           ...                  ...                  ...
        79        2.0000           -0.4405700             -11.9885
        80        2.0000           -0.4390197             -11.9463
        81        2.0000           -0.4356997             -11.8560
        82        2.0000           -0.4271834             -11.6243
        83        2.0000           -0.4261692             -11.5967
        84        2.0000           -0.4246391             -11.5550
        85        2.0000           -0.4165666             -11.3354
        86        2.0000           -0.4153028             -11.3010
        87        2.0000           -0.4105874             -11.1727
        88        2.0000           -0.4087879             -11.1237
        89        2.0000           -0.4080532             -11.1037
        90        2.0000           -0.4061907             -11.0530
        91        2.0000           -0.3551332              -9.6637 (HOMO)
        92                         -0.2940674              -8.0020 (LUMO)
        93                         -0.2776017              -7.5539
        94                         -0.2731706              -7.4334
        95                         -0.2667699              -7.2592
        96                         -0.2333728              -6.3504
        97                         -0.2324605              -6.3256
        98                         -0.2319319              -6.3112
        99                         -0.2266488              -6.1674
       100                         -0.2243214              -6.1041
       101                         -0.2005107              -5.4562
       102                         -0.1629991              -4.4354
       ...                                ...                  ...
       179                          1.2136046              33.0239
      -------------------------------------------------------------
                  HL-Gap            0.0610658 Eh            1.6617 eV

     #   Z          covCN         q      C6AA      α(0)
     1   8 O        0.860    -0.555    25.028     6.708
     2  16 S        3.862     0.972   107.452    17.447
     3   8 O        0.860    -0.573    25.452     6.764
     4   6 C        3.006    -0.081    30.007     8.986
     5   6 C        2.952    -0.015    28.384     8.738
     6   6 C        2.920    -0.012    28.316     8.726
     7   6 C        2.920    -0.012    28.318     8.726
     8   6 C        2.952    -0.015    28.383     8.738
     9   6 C        3.007    -0.081    30.007     8.986
    10  16 S        3.865     0.974   107.410    17.443
    11   8 O        0.860    -0.555    25.034     6.708
    12   8 O        0.860    -0.571    25.423     6.760
    13   6 C        3.006    -0.083    30.052     8.993
    14   6 C        2.961    -0.026    28.643     8.778
    15   6 C        2.975     0.035    27.210     8.556
    16   6 C        2.975     0.001    28.008     8.681
    17   6 C        2.922    -0.031    28.780     8.798
    18   6 C        2.920    -0.048    29.190     8.860
    19   6 C        2.922     0.070    26.441     8.433
    20   7 N        2.752    -0.068    22.554     7.053
    21   6 C        2.925     0.063    26.578     8.454
    22   6 C        2.922    -0.047    29.165     8.856
    23   6 C        2.919    -0.029    28.733     8.790
    24   6 C        2.919    -0.037    28.922     8.819
    25   6 C        2.919    -0.029    28.729     8.790
    26   6 C        2.922    -0.046    29.140     8.852
    27   6 C        2.924     0.063    26.578     8.454
    28   6 C        2.922    -0.047    29.166     8.856
    29   6 C        2.919    -0.029    28.731     8.790
    30   6 C        2.919    -0.037    28.923     8.819
    31   6 C        2.919    -0.029    28.728     8.789
    32   6 C        2.922    -0.046    29.142     8.853
    33   6 C        2.920    -0.047    29.173     8.857
    34   6 C        2.923    -0.031    28.766     8.795
    35   6 C        2.925    -0.024    28.613     8.772
    36   6 C        2.950    -0.018    28.446     8.748
    37   6 C        3.007    -0.089    30.227     9.019
    38   1 H        0.926     0.084     1.939     2.177
    39   1 H        0.926     0.093     1.850     2.127
    40   1 H        0.926     0.093     1.850     2.127
    41   1 H        0.926     0.084     1.939     2.178
    42   1 H        0.926     0.080     1.983     2.202
    43   1 H        0.926     0.051     2.311     2.377
    44   1 H        0.926     0.045     2.380     2.412
    45   1 H        0.926     0.035     2.512     2.478
    46   1 H        0.926     0.035     2.510     2.477
    47   1 H        0.926     0.034     2.531     2.488
    48   1 H        0.926     0.036     2.506     2.476
    49   1 H        0.926     0.035     2.518     2.482
    50   1 H        0.926     0.036     2.505     2.475
    51   1 H        0.926     0.036     2.498     2.472
    52   1 H        0.926     0.034     2.527     2.486
    53   1 H        0.926     0.036     2.509     2.477
    54   1 H        0.926     0.034     2.527     2.486
    55   1 H        0.926     0.042     2.422     2.434
    56   1 H        0.926     0.041     2.431     2.438
    57   1 H        0.926     0.089     1.893     2.151
    58   1 H        0.926     0.080     1.979     2.200

molecular dipole:
                 x           y           z       tot (Debye)
 q only:       -2.231       3.582      -0.322
   full:       -2.055       3.232      -0.268       9.759

 projected vibrational frequencies (cm⁻¹)
eigval :       -0.00    -0.00    -0.00    -0.00     0.00     0.00
eigval :       12.24    15.81    27.74    32.54    48.95    50.83
eigval :       64.79    66.30    73.17    83.14    96.92   111.42
eigval :      113.22   123.85   141.89   148.58   175.21   189.50
eigval :      206.62   231.30   233.20   233.74   253.74   267.03
eigval :      293.45   297.41   316.22   321.94   331.78   340.84
eigval :      367.99   375.49   378.21   385.83   389.82   408.81
eigval :      416.88   431.64   453.86   455.82   466.51   488.48
eigval :      493.23   501.77   510.01   517.77   529.47   562.14
eigval :      574.77   586.37   587.75   595.92   613.41   622.50
eigval :      647.78   660.02   666.47   670.04   676.74   685.03
eigval :      692.28   703.81   714.47   758.44   760.64   778.03
eigval :      810.03   814.23   840.05   867.71   874.96   877.19
eigval :      890.76   891.98   895.21   895.81   909.11   917.19
eigval :      918.79   920.37   921.97   927.46   927.63   928.73
eigval :      930.30   931.07   931.96   978.43   986.93  1004.39
eigval :     1006.10  1016.05  1067.59  1070.06  1081.22  1082.47
eigval :     1089.90  1092.12  1119.59  1121.79  1131.21  1138.35
eigval :     1141.70  1146.34  1156.16  1167.28  1176.60  1179.25
eigval :     1184.61  1193.22  1195.99  1199.36  1205.77  1212.43
eigval :     1212.92  1214.16  1268.25  1276.39  1278.29  1286.15
eigval :     1302.52  1313.39  1313.93  1317.73  1322.89  1326.38
eigval :     1329.61  1375.67  1401.97  1414.93  1423.43  1433.75
eigval :     1435.26  1440.26  1467.92  1471.16  1491.57  1535.93
eigval :     1547.86  1556.64  1560.34  1576.43  1579.89  1580.58
eigval :     1590.52  1590.77  1598.66  3073.69  3074.50  3075.05
eigval :     3075.84  3083.32  3084.21  3084.49  3086.80  3087.27
eigval :     3088.04  3094.78  3095.12  3095.80  3095.98  3098.53
eigval :     3100.45  3101.94  3106.67  3107.72  3108.72  3110.75

   temp. (K)  partition function   enthalpy   heat capacity  entropy
                                   cal/mol     cal/K/mol   cal/K/mol   J/K/mol
 298.15  VIB  0.222E+14            17799.788    112.015    110.457
         ROT  0.540E+08              888.752      2.981     38.361
         INT  0.120E+22            18688.541    114.996    148.818
         TR   0.116E+29             1481.254      4.968     44.633
         TOT                       20169.7947   119.9642   193.4509   809.3987

       T/K    H(0)-H(T)+PV         H(T)/Eh          T*S/Eh         G(T)/Eh
   ------------------------------------------------------------------------
    298.15    0.321426E-01    0.455346E+00    0.919148E-01    0.363431E+00
   ------------------------------------------------------------------------

         :::::::::::::::::::::::::::::::::::::::::::::::::::::
         ::                  THERMODYNAMIC                  ::
         :::::::::::::::::::::::::::::::::::::::::::::::::::::
         :: total free energy        -100.263821748393 Eh   ::
         ::.................................................::
         :: total energy             -100.627252829458 Eh   ::
         :: zero point energy           0.423203247221 Eh   ::
         :: G(RRHO) w/o ZPVE           -0.059772166155 Eh   ::
         :: G(RRHO) contrib.            0.363431081066 Eh   ::
         :::::::::::::::::::::::::::::::::::::::::::::::::::::

           -------------------------------------------------
          | TOTAL ENERGY             -100.627252829458 Eh   |
          | TOTAL ENTHALPY           -100.171906968353 Eh   |
          | TOTAL FREE ENERGY        -100.263821748393 Eh   |
          | GRADIENT NORM               0.000108523619 Eh/α |
          | HOMO-LUMO GAP               1.661684209489 eV   |
           -------------------------------------------------

 * finished run on 2025/08/22 at 16:32:04.907
