   * xtb version 6.7.1 (edcfbbe) compiled by 'albert@albert-system' on 2024-07-22

   ID    Z sym.   atoms
    1    8 O      1, 3, 11, 12
    2   16 S      2, 10
    3    6 C      4-9, 13-19, 21-37
    4    7 N      20
    5    1 H      38-58

          program call               : xtb data2507/toluene/TPADSO2/TPADSO2_toluene_S0_crest.xyz --gfn 2 --gbsa toluene --ohess vtight --parallel 40 --molden --ceasefiles --namespace data2507/toluene/TPADSO2/TPADSO2_toluene_S0_finalOpt
      * Solvation model:               GBSA
        Solvent                        toluene
        Solvent mass                       9.2140E+01 g/mol
          :  Hamiltonian                  GFN2-xTB          :
 * total energy  :  -100.6270774 Eh     change       -0.1882654E-09 Eh
 * total energy  :  -100.6273381 Eh     change       -0.2606253E-03 Eh
 * total energy  :  -100.6275244 Eh     change       -0.1863575E-03 Eh
 * total energy  :  -100.6275444 Eh     change       -0.1997625E-04 Eh
 * total energy  :  -100.6275683 Eh     change       -0.2395026E-04 Eh
 * total energy  :  -100.6275728 Eh     change       -0.4444815E-05 Eh
 * total energy  :  -100.6275761 Eh     change       -0.3272090E-05 Eh
 * total energy  :  -100.6275795 Eh     change       -0.3413472E-05 Eh
 * total energy  :  -100.6275822 Eh     change       -0.2685854E-05 Eh
 * total energy  :  -100.6275830 Eh     change       -0.8779225E-06 Eh
 * total energy  :  -100.6275853 Eh     change       -0.4711661E-06 Eh
 * total energy  :  -100.6275855 Eh     change       -0.2757910E-06 Eh
 * total energy  :  -100.6275858 Eh     change       -0.2260345E-06 Eh
 * total energy  :  -100.6275860 Eh     change       -0.2875819E-06 Eh
 * total energy  :  -100.6275864 Eh     change       -0.3355569E-06 Eh
 * total energy  :  -100.6275867 Eh     change       -0.3328823E-06 Eh
 * total energy  :  -100.6275870 Eh     change       -0.2896592E-06 Eh
 * total energy  :  -100.6275872 Eh     change       -0.2266653E-06 Eh
 * total energy  :  -100.6275872 Eh     change       -0.7372066E-08 Eh
   *** GEOMETRY OPTIMIZATION CONVERGED AFTER 22 ITERATIONS ***

 final structure:
================
58
 xtb: 6.7.1 (edcfbbe)
O            5.46745412086414        2.74448920973553        0.18119872640225
S            5.14133999358366        1.48907159573476       -0.45653219892121
O            5.58085017678665        1.34053239718551       -1.82064787967294
C            5.82773829779826        0.16113762722311        0.53647315345180
C            6.85641362931669        0.41502274968699        1.42608480410749
C            7.37291071102833       -0.62572023328736        2.18479441951303
C            6.85263132010910       -1.90543647857737        2.05945329693765
C            5.81396307010580       -2.15266430621726        1.17312783492901
C            5.31106812008287       -1.11380486877484        0.41016406191189
S            3.96919140011185       -1.40543290471159       -0.74467828680101
O            3.29294621844136       -2.62113413986529       -0.35230208786130
O            4.47715561954466       -1.37194997474677       -2.09214401386949
C            2.85408332427599       -0.02889278057088       -0.47856013901872
C            1.49646030424788       -0.25115954099972       -0.39463554465484
C            0.61680032096887        0.81915188257026       -0.19205619791791
C           -0.82624544253847        0.59465536982042       -0.11489229632157
C           -1.72786998203910        1.53325735650328       -0.62427537470140
C           -3.08659890709248        1.32009038143515       -0.56635170082440
C           -3.60326772444648        0.16014657117382        0.02144984045530
N           -4.97212395447468       -0.05570559315627        0.08617126817536
C           -5.49330494523038       -1.35896750346208        0.02887565647217
C           -4.95051890508923       -2.30202659777769       -0.84292010737432
C           -5.47318607887882       -3.58024405288853       -0.89640745989786
C           -6.54542393224906       -3.93394391807195       -0.09305698084891
C           -7.09205050812000       -2.99777666931311        0.76992081166675
C           -6.57110179441304       -1.71937412269279        0.83614778293554
C           -5.86076167986248        1.02605217205462        0.20337706604704
C           -5.55962590725820        2.10228675494172        1.03704722640508
C           -6.44174675208778        3.15991007952718        1.15191084052130
C           -7.63593026806360        3.15687507213230        0.44897036588790
C           -7.94191253550030        2.08613780395254       -0.37558874269066
C           -7.06238152978634        1.02759568910053       -0.50310102379533
C           -2.70342451187530       -0.77731409551818        0.54114324418553
C           -1.34528154067820       -0.56595462064195        0.46542670457064
C            1.15798830124684        2.10390503138175       -0.06344040527951
C            2.52212892011212        2.31691390551660       -0.13781519445057
C            3.37402144254086        1.24610452733307       -0.35416972439633
H            7.22579099221836        1.42502365009061        1.50945614227159
H            8.17850756588083       -0.43365137660014        2.87623458464166
H            7.25139616653908       -2.71296161465674        2.65349289062560
H            5.37569974314664       -3.13181811687147        1.06072874160683
H            1.14043007022564       -1.26338132639277       -0.50271827217576
H           -1.35632704243694        2.42142758317428       -1.11172020880466
H           -3.76382916081404        2.04680272172026       -0.98935422368516
H           -4.12204849107173       -2.02520595004140       -1.47856275917131
H           -5.04569815264043       -4.30180641653573       -1.57728067575115
H           -6.95287694542988       -4.93263067274059       -0.14039296914212
H           -7.92562015778150       -3.26639941115403        1.40222759380858
H           -6.99444420532797       -0.99231507160249        1.51365999720850
H           -4.63488132479796        2.09979018350119        1.59537416629458
H           -6.19902163073629        3.98706440697087        1.80286889751978
H           -8.32461155750515        3.98287539365739        0.54413472428759
H           -8.86905826180931        2.07741505713097       -0.92985599690477
H           -7.29951819664083        0.19633102688367       -1.15097847430400
H           -3.08320012656541       -1.67065607672421        1.01395021993312
H           -0.67442257365433       -1.29343264751584        0.89616289939255
H            0.50244370934398        2.94050858679927        0.12064603407472
H            2.95222851497427        3.29924686847166       -0.02151058820357

          :  Hamiltonian                  GFN2-xTB          :
         :: gradient norm              0.000065318820 Eh/a0 ::
         :: HOMO-LUMO gap              1.687161381843 eV    ::
         :: SCC energy              -102.224299633290 Eh    ::
         :: -> dispersion             -0.084099216396 Eh    ::
         :: -> Gsolv                  -0.055884157892 Eh    ::
         :: repulsion energy           1.596712393765 Eh    ::

    * Orbital Energies and Occupations

         #    Occupation            Energy/Eh            Energy/eV
      -------------------------------------------------------------
         1        2.0000           -0.7953405             -21.6423
       ...           ...                  ...                  ...
        79        2.0000           -0.4409436             -11.9987
        80        2.0000           -0.4391312             -11.9494
        81        2.0000           -0.4357719             -11.8580
        82        2.0000           -0.4272642             -11.6265
        83        2.0000           -0.4265285             -11.6064
        84        2.0000           -0.4243067             -11.5460
        85        2.0000           -0.4160467             -11.3212
        86        2.0000           -0.4150462             -11.2940
        87        2.0000           -0.4109957             -11.1838
        88        2.0000           -0.4091806             -11.1344
        89        2.0000           -0.4084013             -11.1132
        90        2.0000           -0.4063309             -11.0568
        91        2.0000           -0.3555721              -9.6756 (HOMO)
        92                         -0.2935700              -7.9884 (LUMO)
        93                         -0.2778163              -7.5598
        94                         -0.2730041              -7.4288
        95                         -0.2662775              -7.2458
        96                         -0.2337160              -6.3597
        97                         -0.2322499              -6.3198
        98                         -0.2314295              -6.2975
        99                         -0.2267710              -6.1708
       100                         -0.2246786              -6.1138
       101                         -0.2005784              -5.4580
       102                         -0.1624420              -4.4203
       ...                                ...                  ...
       179                          1.2129241              33.0053
      -------------------------------------------------------------
                  HL-Gap            0.0620021 Eh            1.6872 eV

     #   Z          covCN         q      C6AA      α(0)
     1   8 O        0.860    -0.555    25.045     6.710
     2  16 S        3.861     0.972   107.465    17.448
     3   8 O        0.860    -0.573    25.463     6.766
     4   6 C        3.007    -0.081    30.000     8.985
     5   6 C        2.953    -0.015    28.383     8.738
     6   6 C        2.920    -0.012    28.317     8.726
     7   6 C        2.920    -0.012    28.319     8.727
     8   6 C        2.952    -0.015    28.385     8.738
     9   6 C        3.006    -0.081    30.008     8.986
    10  16 S        3.866     0.974   107.413    17.443
    11   8 O        0.860    -0.555    25.032     6.708
    12   8 O        0.860    -0.572    25.440     6.762
    13   6 C        3.005    -0.083    30.061     8.994
    14   6 C        2.962    -0.026    28.655     8.780
    15   6 C        2.975     0.035    27.221     8.558
    16   6 C        2.975    -0.000    28.024     8.684
    17   6 C        2.923    -0.031    28.779     8.797
    18   6 C        2.920    -0.048    29.201     8.862
    19   6 C        2.922     0.070    26.443     8.433
    20   7 N        2.752    -0.067    22.532     7.050
    21   6 C        2.925     0.063    26.580     8.455
    22   6 C        2.922    -0.047    29.155     8.855
    23   6 C        2.919    -0.029    28.729     8.790
    24   6 C        2.919    -0.037    28.913     8.818
    25   6 C        2.919    -0.029    28.726     8.789
    26   6 C        2.922    -0.046    29.134     8.851
    27   6 C        2.925     0.063    26.582     8.455
    28   6 C        2.922    -0.047    29.156     8.855
    29   6 C        2.919    -0.029    28.729     8.790
    30   6 C        2.919    -0.037    28.913     8.818
    31   6 C        2.919    -0.029    28.725     8.789
    32   6 C        2.922    -0.046    29.132     8.851
    33   6 C        2.920    -0.048    29.190     8.860
    34   6 C        2.922    -0.031    28.780     8.797
    35   6 C        2.925    -0.025    28.624     8.774
    36   6 C        2.950    -0.018    28.449     8.748
    37   6 C        3.007    -0.090    30.229     9.019
    38   1 H        0.926     0.084     1.942     2.179
    39   1 H        0.926     0.093     1.851     2.128
    40   1 H        0.926     0.093     1.850     2.127
    41   1 H        0.926     0.084     1.939     2.178
    42   1 H        0.926     0.079     1.986     2.204
    43   1 H        0.926     0.048     2.340     2.392
    44   1 H        0.926     0.044     2.394     2.420
    45   1 H        0.926     0.035     2.514     2.479
    46   1 H        0.926     0.036     2.508     2.476
    47   1 H        0.926     0.034     2.524     2.484
    48   1 H        0.926     0.036     2.498     2.472
    49   1 H        0.926     0.035     2.512     2.479
    50   1 H        0.926     0.037     2.488     2.466
    51   1 H        0.926     0.037     2.490     2.467
    52   1 H        0.926     0.035     2.523     2.484
    53   1 H        0.926     0.036     2.507     2.476
    54   1 H        0.926     0.034     2.528     2.486
    55   1 H        0.926     0.043     2.408     2.427
    56   1 H        0.926     0.045     2.385     2.415
    57   1 H        0.926     0.088     1.897     2.154
    58   1 H        0.926     0.079     1.986     2.204

molecular dipole:
                 x           y           z       tot (Debye)
 q only:       -2.632      -0.011       3.377
   full:       -2.426      -0.034       3.053       9.912

 projected vibrational frequencies (cm⁻¹)
eigval :       -0.00    -0.00    -0.00    -0.00     0.00     0.00
eigval :       10.78    17.52    21.96    35.73    48.24    49.79
eigval :       60.56    69.01    72.88    85.30    90.51   107.66
eigval :      111.31   123.11   149.01   156.14   177.24   181.11
eigval :      212.63   218.08   233.22   243.03   254.59   270.91
eigval :      291.17   300.83   315.85   319.18   327.35   338.34
eigval :      372.17   378.13   381.15   389.61   402.45   406.36
eigval :      418.22   428.67   444.05   456.66   472.77   489.61
eigval :      491.45   503.09   512.32   515.05   528.46   562.21
eigval :      576.91   585.57   586.22   593.81   614.39   622.64
eigval :      647.78   660.77   666.81   669.18   676.48   682.96
eigval :      693.92   703.97   714.62   757.02   761.00   781.59
eigval :      810.64   814.27   837.58   866.85   873.51   876.11
eigval :      886.87   895.36   895.52   896.46   909.39   918.10
eigval :      919.54   922.96   924.15   924.26   928.29   929.49
eigval :      930.46   931.82   933.70   978.29   986.87  1004.33
eigval :     1006.12  1016.10  1068.12  1069.90  1081.22  1082.42
eigval :     1089.56  1091.95  1120.20  1121.99  1131.75  1139.71
eigval :     1142.07  1146.68  1156.29  1168.36  1178.89  1181.18
eigval :     1184.51  1193.66  1197.12  1199.27  1207.06  1212.32
eigval :     1213.70  1215.11  1269.40  1276.10  1278.75  1286.49
eigval :     1301.74  1313.22  1313.77  1318.06  1322.72  1326.73
eigval :     1330.69  1376.42  1402.23  1416.54  1423.89  1434.00
eigval :     1435.30  1440.36  1467.63  1470.87  1492.67  1534.68
eigval :     1546.10  1556.73  1558.14  1576.73  1580.07  1580.77
eigval :     1590.31  1590.55  1598.50  3073.83  3074.39  3075.16
eigval :     3075.64  3083.72  3084.42  3085.57  3086.62  3087.08
eigval :     3087.79  3095.17  3095.93  3096.00  3096.69  3099.11
eigval :     3100.74  3102.18  3107.92  3108.26  3109.06  3110.95

   temp. (K)  partition function   enthalpy   heat capacity  entropy
                                   cal/mol     cal/K/mol   cal/K/mol   J/K/mol
 298.15  VIB  0.279E+14            17798.216    111.900    110.616
         ROT  0.537E+08              888.752      2.981     38.354
         INT  0.150E+22            18686.968    114.881    148.970
         TR   0.116E+29             1481.254      4.968     44.633
         TOT                       20168.2224   119.8491   193.6026   810.0332

       T/K    H(0)-H(T)+PV         H(T)/Eh          T*S/Eh         G(T)/Eh
   ------------------------------------------------------------------------
    298.15    0.321401E-01    0.455418E+00    0.919868E-01    0.363431E+00
   ------------------------------------------------------------------------

         :::::::::::::::::::::::::::::::::::::::::::::::::::::
         ::                  THERMODYNAMIC                  ::
         :::::::::::::::::::::::::::::::::::::::::::::::::::::
         :: total free energy        -100.264155864321 Eh   ::
         ::.................................................::
         :: total energy             -100.627587244528 Eh   ::
         :: zero point energy           0.423278100967 Eh   ::
         :: G(RRHO) w/o ZPVE           -0.059846720760 Eh   ::
         :: G(RRHO) contrib.            0.363431380208 Eh   ::
         :::::::::::::::::::::::::::::::::::::::::::::::::::::

           -------------------------------------------------
          | TOTAL ENERGY             -100.627587244528 Eh   |
          | TOTAL ENTHALPY           -100.172169035414 Eh   |
          | TOTAL FREE ENERGY        -100.264155864321 Eh   |
          | GRADIENT NORM               0.000065335218 Eh/α |
          | HOMO-LUMO GAP               1.687163797558 eV   |
           -------------------------------------------------

 * finished run on 2025/08/22 at 16:35:12.111
