   * xtb version 6.7.1 (edcfbbe) compiled by 'albert@albert-system' on 2024-07-22

   ID    Z sym.   atoms
    1    8 O      1, 3, 11, 12
    2   16 S      2, 10
    3    6 C      4-9, 13-19, 21-37
    4    7 N      20
    5    1 H      38-58

          program call               : xtb data2507/toluene/TPADSO2/TPADSO2_toluene_S0_finalOpt.xtbopt.xyz --gfn 2 --uhf 2 --gbsa toluene --ohess vtight --parallel 40 --molden --ceasefiles --namespace data2507/toluene/TPADSO2/TPADSO2_toluene_T1_preOpt
      * Solvation model:               GBSA
        Solvent                        toluene
        Solvent mass                       9.2140E+01 g/mol
          :  Hamiltonian                  GFN2-xTB          :
 * total energy  :  -100.5391215 Eh     change       -0.6414638E-09 Eh
 * total energy  :  -100.5436598 Eh     change       -0.4538280E-02 Eh
 * total energy  :  -100.5450247 Eh     change       -0.1364880E-02 Eh
 * total energy  :  -100.5452940 Eh     change       -0.2693240E-03 Eh
 * total energy  :  -100.5455143 Eh     change       -0.2202949E-03 Eh
 * total energy  :  -100.5456312 Eh     change       -0.1169135E-03 Eh
 * total energy  :  -100.5457177 Eh     change       -0.8647319E-04 Eh
 * total energy  :  -100.5457658 Eh     change       -0.4807226E-04 Eh
 * total energy  :  -100.5458025 Eh     change       -0.3669948E-04 Eh
 * total energy  :  -100.5458451 Eh     change       -0.4261194E-04 Eh
 * total energy  :  -100.5468846 Eh     change       -0.6768199E-06 Eh
 * total energy  :  -100.5468853 Eh     change       -0.6761080E-06 Eh
 * total energy  :  -100.5468859 Eh     change       -0.6723623E-06 Eh
 * total energy  :  -100.5468866 Eh     change       -0.6693425E-06 Eh
 * total energy  :  -100.5468873 Eh     change       -0.6575082E-06 Eh
 * total energy  :  -100.5468879 Eh     change       -0.6451873E-06 Eh
 * total energy  :  -100.5468885 Eh     change       -0.6269129E-06 Eh
 * total energy  :  -100.5468891 Eh     change       -0.6156172E-06 Eh
 * total energy  :  -100.5468892 Eh     change       -0.5716899E-08 Eh
   *** GEOMETRY OPTIMIZATION CONVERGED AFTER 94 ITERATIONS ***

 final structure:
================
58
 xtb: 6.7.1 (edcfbbe)
O            5.51855234044985        2.59766588788396       -0.56049957925629
S            5.16559846122646        1.22376752897342       -0.87633239853225
O            5.68353734128832        0.73459605850636       -2.13739599796024
C            5.74913801474592        0.18049325156429        0.44844993971206
C            6.66398178811811        0.65286890714363        1.37741562814004
C            7.06837900026581       -0.16341494110802        2.41842449801692
C            6.54193180511654       -1.44691986624868        2.54725539914091
C            5.60802364079649       -1.90811357746929        1.63478458906665
C            5.22203401902866       -1.09766028753322        0.58089056346520
S            3.96589171814208       -1.62811068093523       -0.57049769797829
O            3.25438087734367       -2.74725482150882        0.02371980157177
O            4.54571182365095       -1.89619905024580       -1.86718252848925
C            2.86903578939538       -0.23248374483000       -0.61891150945099
C            1.52924691316596       -0.41076184156232       -0.42387537432202
C            0.63162533747268        0.68618890395877       -0.41634138921032
C           -0.77393281783114        0.50156768686418       -0.27656555240882
C           -1.70809050897483        1.51374790633316       -0.64861719841086
C           -3.05373076750506        1.33702449292391       -0.52190190720689
C           -3.58325273473561        0.12830625144627       -0.01141910104308
N           -4.94541430995105       -0.05722806056455        0.11366307099660
C           -5.49536001238366       -1.32668233960579       -0.05951391126616
C           -4.97269777461038       -2.19669918054353       -1.02430785469295
C           -5.51598132997381       -3.45473878417407       -1.18520080038804
C           -6.57956269345808       -3.86688407482328       -0.39373615401637
C           -7.10128704479432       -3.00771979967229        0.56435938762692
C           -6.56950746013197       -1.74625654419597        0.73481172803130
C           -5.77710553407570        1.02093371933997        0.41079512600619
C           -5.34201976687034        2.03156438313684        1.27722030094970
C           -6.16785841097312        3.09991117715333        1.56047191009946
C           -7.43111258635761        3.18207283615689        0.99037165996643
C           -7.86717340514502        2.18251512393418        0.13068652235836
C           -7.05301804524929        1.10755168238724       -0.16017992562752
C           -2.67301983871935       -0.88824103854192        0.36579915843595
C           -1.32843048086385       -0.70726127988112        0.23995443358556
C            1.21961990336391        1.98919797801010       -0.55377825874048
C            2.56642218460282        2.15789680319302       -0.70363154697424
C            3.42358164134720        1.05071490681481       -0.77046411620506
H            7.03740486359219        1.65788001578419        1.25583348187896
H            7.79106619720827        0.19750900662222        3.13361810950884
H            6.85617870761999       -2.08078741431943        3.36148795047202
H            5.16092073147820       -2.88675873420415        1.71573646037693
H            1.18713220440940       -1.42700590794685       -0.31266697518650
H           -1.34457545937889        2.42464672455278       -1.09385430044832
H           -3.73395238351485        2.10410939216733       -0.86128572598540
H           -4.16256043879362       -1.86412871748413       -1.65572683433003
H           -5.11412735821496       -4.11540091315290       -1.93826095642829
H           -6.99913850362157       -4.85255607500662       -0.52278455220072
H           -7.92137011296360       -3.32909646881356        1.18813460764596
H           -6.95751843903850       -1.08705736844989        1.49659150536922
H           -4.37016124470506        1.95107990421589        1.74027327231882
H           -5.82962385753453        3.86923752490457        2.23774330017194
H           -8.07246236218533        4.02022674830006        1.21470032945391
H           -8.84469877874857        2.24839929838138       -0.32223001789666
H           -7.38111516257569        0.34323241576347       -0.84832665000160
H           -3.05674786888727       -1.79694857938376        0.80539248691405
H           -0.66496508467831       -1.48334884154303        0.58409629507592
H            0.59133829294244        2.86225949864869       -0.49518518691850
H            3.01419869075109        3.13694532207741       -0.77707261993926

          :  Hamiltonian                  GFN2-xTB          :
         :: gradient norm              0.000059710317 Eh/a0 ::
         :: HOMO-LUMO gap              0.483643744159 eV    ::
         :: SCC energy              -102.125001052556 Eh    ::
         :: -> dispersion             -0.084207736795 Eh    ::
         :: -> Gsolv                  -0.074024119489 Eh    ::
         :: repulsion energy           1.578111898005 Eh    ::

    * Orbital Energies and Occupations

         #    Occupation            Energy/Eh            Energy/eV
      -------------------------------------------------------------
         1        2.0000           -0.7751506             -21.0929
       ...           ...                  ...                  ...
        80        2.0000           -0.4315593             -11.7433
        81        2.0000           -0.4311129             -11.7312
        82        2.0000           -0.4299714             -11.7001
        83        2.0000           -0.4292751             -11.6812
        84        2.0000           -0.4283065             -11.6548
        85        2.0000           -0.4267727             -11.6131
        86        2.0000           -0.4253368             -11.5740
        87        2.0000           -0.4236548             -11.5282
        88        2.0000           -0.4180697             -11.3763
        89        2.0000           -0.4046476             -11.0110
        90        2.0000           -0.3979282             -10.8282
        91        1.0000           -0.3725545             -10.1377
        92        0.9999           -0.2864242              -7.7940 (HOMO)
        93        0.0001           -0.2686504              -7.3103 (LUMO)
        94                         -0.2561400              -6.9699
        95                         -0.2549218              -6.9368
        96                         -0.2478453              -6.7442
        97                         -0.2443684              -6.6496
        98                         -0.2432932              -6.6203
        99                         -0.2365955              -6.4381
       100                         -0.2341142              -6.3706
       101                         -0.2112340              -5.7480
       102                         -0.1512791              -4.1165
       103                         -0.1319053              -3.5893
       ...                                ...                  ...
       179                          1.2066490              32.8346
      -------------------------------------------------------------
                  HL-Gap            0.0177738 Eh            0.4836 eV

     #   Z          covCN         q      C6AA      α(0)
     1   8 O        0.860    -0.573    25.469     6.766
     2  16 S        3.882     0.920   108.980    17.570
     3   8 O        0.860    -0.592    25.919     6.826
     4   6 C        3.009    -0.087    30.156     9.008
     5   6 C        2.951    -0.021    28.533     8.761
     6   6 C        2.919    -0.023    28.568     8.765
     7   6 C        2.920    -0.025    28.616     8.772
     8   6 C        2.951    -0.021    28.522     8.759
     9   6 C        3.008    -0.087    30.171     9.010
    10  16 S        3.895     0.934   108.564    17.537
    11   8 O        0.860    -0.570    25.388     6.756
    12   8 O        0.860    -0.585    25.744     6.803
    13   6 C        3.005    -0.094    30.344     9.036
    14   6 C        2.965    -0.029    28.723     8.791
    15   6 C        2.968    -0.001    28.051     8.687
    16   6 C        2.967     0.022    27.510     8.603
    17   6 C        2.916    -0.036    28.903     8.816
    18   6 C        2.911    -0.035    28.865     8.810
    19   6 C        2.927     0.045    26.998     8.521
    20   7 N        2.753     0.020    20.894     6.789
    21   6 C        2.930     0.060    26.657     8.467
    22   6 C        2.920    -0.034    28.845     8.807
    23   6 C        2.917    -0.021    28.537     8.760
    24   6 C        2.919    -0.021    28.536     8.760
    25   6 C        2.917    -0.021    28.540     8.761
    26   6 C        2.920    -0.035    28.869     8.811
    27   6 C        2.929     0.060    26.657     8.467
    28   6 C        2.920    -0.034    28.851     8.808
    29   6 C        2.917    -0.021    28.537     8.760
    30   6 C        2.919    -0.021    28.538     8.760
    31   6 C        2.917    -0.021    28.539     8.760
    32   6 C        2.920    -0.035    28.869     8.811
    33   6 C        2.911    -0.034    28.855     8.808
    34   6 C        2.916    -0.036    28.905     8.816
    35   6 C        2.917    -0.041    29.024     8.835
    36   6 C        2.942    -0.028    28.692     8.785
    37   6 C        3.005    -0.114    30.883     9.116
    38   1 H        0.926     0.068     2.111     2.272
    39   1 H        0.926     0.077     2.012     2.218
    40   1 H        0.926     0.077     2.009     2.216
    41   1 H        0.926     0.069     2.091     2.262
    42   1 H        0.926     0.064     2.157     2.296
    43   1 H        0.926     0.054     2.265     2.354
    44   1 H        0.926     0.056     2.244     2.342
    45   1 H        0.926     0.055     2.260     2.351
    46   1 H        0.926     0.053     2.283     2.363
    47   1 H        0.926     0.053     2.283     2.363
    48   1 H        0.926     0.055     2.252     2.347
    49   1 H        0.926     0.056     2.241     2.341
    50   1 H        0.926     0.057     2.238     2.339
    51   1 H        0.926     0.054     2.265     2.353
    52   1 H        0.926     0.053     2.281     2.362
    53   1 H        0.926     0.055     2.260     2.351
    54   1 H        0.926     0.055     2.255     2.348
    55   1 H        0.926     0.054     2.272     2.357
    56   1 H        0.926     0.048     2.344     2.394
    57   1 H        0.926     0.067     2.115     2.274
    58   1 H        0.926     0.055     2.263     2.352

molecular dipole:
                 x           y           z       tot (Debye)
 q only:      -10.816       0.504       3.689
   full:      -10.401       0.402       3.380      27.817

 projected vibrational frequencies (cm⁻¹)
eigval :       -0.00    -0.00     0.00     0.00     0.00     0.00
eigval :       11.27    12.60    22.59    34.35    51.65    54.59
eigval :       58.73    72.23    72.85    88.10    95.46   107.78
eigval :      120.58   123.20   155.60   160.11   170.06   179.81
eigval :      209.29   228.45   230.13   237.98   256.51   271.16
eigval :      287.01   296.60   316.28   318.83   325.18   338.47
eigval :      349.49   373.53   374.56   381.97   386.19   402.82
eigval :      411.03   424.98   427.78   441.52   461.57   465.42
eigval :      481.78   500.57   506.30   520.12   527.60   533.91
eigval :      551.00   576.94   582.80   589.32   604.00   614.96
eigval :      622.89   645.12   655.01   656.45   658.54   661.22
eigval :      677.26   698.80   710.50   754.01   758.01   769.99
eigval :      781.07   797.66   804.33   816.08   848.05   862.80
eigval :      867.13   885.39   894.01   897.19   897.80   899.32
eigval :      904.13   906.44   907.30   914.32   916.75   925.32
eigval :      927.51   929.18   933.07   968.18   973.54   986.89
eigval :      994.38  1002.05  1019.49  1060.85  1069.58  1074.38
eigval :     1074.79  1075.39  1104.18  1118.95  1121.43  1122.87
eigval :     1140.17  1142.66  1164.82  1166.56  1172.12  1174.49
eigval :     1175.31  1175.56  1183.25  1185.07  1195.63  1211.75
eigval :     1215.00  1221.30  1251.84  1266.69  1272.79  1278.31
eigval :     1296.41  1308.86  1319.63  1323.06  1326.46  1332.03
eigval :     1338.90  1361.23  1395.55  1398.41  1399.15  1406.92
eigval :     1424.89  1433.10  1435.09  1438.23  1443.52  1451.55
eigval :     1468.00  1518.96  1531.41  1545.70  1549.70  1556.56
eigval :     1560.65  1568.67  1591.99  3084.27  3085.35  3086.71
eigval :     3087.60  3088.03  3088.53  3092.17  3094.31  3094.80
eigval :     3095.32  3097.09  3098.04  3098.84  3102.69  3105.34
eigval :     3105.67  3105.78  3107.19  3111.55  3114.97  3118.95

   temp. (K)  partition function   enthalpy   heat capacity  entropy
                                   cal/mol     cal/K/mol   cal/K/mol   J/K/mol
 298.15  VIB  0.342E+14            18012.035    113.772    111.701
         ROT  0.535E+08              888.752      2.981     38.343
         INT  0.183E+22            18900.788    116.753    150.044
         TR   0.116E+29             1481.254      4.968     44.633
         TOT                       20382.0414   121.7210   194.6769   814.5280

       T/K    H(0)-H(T)+PV         H(T)/Eh          T*S/Eh         G(T)/Eh
   ------------------------------------------------------------------------
    298.15    0.324809E-01    0.452412E+00    0.924973E-01    0.359915E+00
   ------------------------------------------------------------------------

         :::::::::::::::::::::::::::::::::::::::::::::::::::::
         ::                  THERMODYNAMIC                  ::
         :::::::::::::::::::::::::::::::::::::::::::::::::::::
         :: total free energy        -100.186974631010 Eh   ::
         ::.................................................::
         :: total energy             -100.546889151978 Eh   ::
         :: zero point energy           0.419930929723 Eh   ::
         :: G(RRHO) w/o ZPVE           -0.060016408755 Eh   ::
         :: G(RRHO) contrib.            0.359914520968 Eh   ::
         :::::::::::::::::::::::::::::::::::::::::::::::::::::

           -------------------------------------------------
          | TOTAL ENERGY             -100.546889151978 Eh   |
          | TOTAL ENTHALPY           -100.094477371711 Eh   |
          | TOTAL FREE ENERGY        -100.186974631010 Eh   |
          | GRADIENT NORM               0.000059805081 Eh/α |
          | HOMO-LUMO GAP               0.483648811614 eV   |
           -------------------------------------------------

 * finished run on 2025/08/22 at 16:35:18.681
