   * xtb version 6.7.1 (edcfbbe) compiled by 'albert@albert-system' on 2024-07-22

   ID    Z sym.   atoms
    1    8 O      1, 8
    2    6 C      2-7, 9-12, 14-33, 35-48
    3    7 N      13, 34
    4    1 H      49-80

          program call               : xtb data2507/toluene/p-DTPACO/p-DTPACO_toluene_S0_crest.xyz --gfn 2 --gbsa toluene --ohess vtight --parallel 40 --molden --ceasefiles --namespace data2507/toluene/p-DTPACO/p-DTPACO_toluene_S0_finalOpt
      * Solvation model:               GBSA
        Solvent                        toluene
        Solvent mass                       9.2140E+01 g/mol
          :  Hamiltonian                  GFN2-xTB          :
 * total energy  :  -124.5445957 Eh     change       -0.5012836E-08 Eh
 * total energy  :  -124.5447311 Eh     change       -0.1353570E-03 Eh
 * total energy  :  -124.5447700 Eh     change       -0.3886088E-04 Eh
 * total energy  :  -124.5447827 Eh     change       -0.1274472E-04 Eh
 * total energy  :  -124.5447945 Eh     change       -0.1184022E-04 Eh
 * total energy  :  -124.5448120 Eh     change       -0.1742757E-04 Eh
 * total energy  :  -124.5448213 Eh     change       -0.9338073E-05 Eh
 * total energy  :  -124.5448252 Eh     change       -0.3888114E-05 Eh
 * total energy  :  -124.5448285 Eh     change       -0.3276506E-05 Eh
 * total energy  :  -124.5448282 Eh     change        0.3228104E-06 Eh
 * total energy  :  -124.5448845 Eh     change       -0.3228062E-06 Eh
 * total energy  :  -124.5448847 Eh     change       -0.1897286E-06 Eh
 * total energy  :  -124.5448850 Eh     change       -0.2511312E-06 Eh
 * total energy  :  -124.5448853 Eh     change       -0.2690884E-06 Eh
 * total energy  :  -124.5448854 Eh     change       -0.1472154E-06 Eh
 * total energy  :  -124.5448854 Eh     change        0.9974627E-08 Eh
 * total energy  :  -124.5448855 Eh     change       -0.1072065E-06 Eh
 * total energy  :  -124.5448855 Eh     change        0.5655892E-08 Eh
 * total energy  :  -124.5448856 Eh     change       -0.8481575E-07 Eh
   *** GEOMETRY OPTIMIZATION CONVERGED AFTER 54 ITERATIONS ***

 final structure:
================
80
 xtb: 6.7.1 (edcfbbe)
O            2.49906605457476        0.38975250981894        3.93630874159605
C            2.44047799447802       -0.06104791942285        2.79733291836060
C            1.18775192534072       -0.69694011747242        2.30473135795485
C            1.20960590836130       -1.85469707432138        1.52822998516138
C            0.02533713547823       -2.44866923257454        1.13978756161751
C           -1.20037366874715       -1.88735558986716        1.49297893148898
C           -2.45492495229197       -2.57687845323915        1.08437763133405
O           -2.51933392036489       -3.80133836397828        1.08931224929333
C           -3.59375563275253       -1.73856786254930        0.69084194629266
C           -4.88519093366689       -2.27250173559162        0.77013298360385
C           -5.98412779546877       -1.53393394184767        0.40545819801178
C           -5.83227833699203       -0.22791530957781       -0.08244080754373
N           -6.93219431282625        0.52063870442370       -0.45547898540595
C           -8.09888370984992       -0.10382815528141       -0.93452564702020
C           -9.35198695732032        0.35160615058082       -0.52986592730848
C          -10.49844411347875       -0.25016056968570       -1.01385585590017
C          -10.41184827156748       -1.31344344211882       -1.89801970027699
C           -9.16719112225233       -1.76892092018576       -2.30252044349515
C           -8.01534595303189       -1.16769252332858       -1.83099605903674
C           -6.91756004685143        1.92416879776944       -0.36021809771632
C           -7.49305944844972        2.69904018208051       -1.36550797193286
C           -7.49688584308750        4.07745761393623       -1.26285746224213
C           -6.92352349600363        4.70026110272433       -0.16597090280477
C           -6.35060878661777        3.93310216928683        0.83569386017907
C           -6.34955878712744        2.55383410930603        0.74595674152037
C           -4.53670353293625        0.29735931182806       -0.19099366360352
C           -3.44126444680277       -0.44059833540909        0.19175822487056
C           -1.22249636087270       -0.74220564076886        2.28793499986839
C           -0.03824662022841       -0.16374038704293        2.69894080644233
C            3.58417886383523       -0.00476534914872        1.87888214946919
C            3.44283946966407       -0.04227978721343        0.48751714178137
C            4.54399484459279        0.03583262563992       -0.33246743638169
C            5.83446483874533        0.14935060541057        0.20399451685736
N            6.94103554122315        0.21401007724245       -0.62118794543603
C            8.09285106940732        0.91922409926272       -0.22503694008484
C            7.98249353328975        2.16154669260366        0.39691407266867
C            9.11950934813678        2.85431139580662        0.76815238995906
C           10.37558412667569        2.32538689093064        0.51771049328333
C           10.48874981550223        1.09282482807801       -0.10500366457901
C            9.35727275938286        0.38915523178561       -0.47296640063522
C            6.94392708990973       -0.41939397592688       -1.87694363658798
C            6.38418152366030       -1.68646632078340       -2.03242837504798
C            6.40032869301849       -2.30515664296289       -3.26826927007164
C            6.98177043146224       -1.67818285812977       -4.35866443932805
C            7.54692079770891       -0.42238561357233       -4.20581429840749
C            7.52784537430094        0.20802284376582       -2.97585447600481
C            5.97495472562053        0.20566117878674        1.59813335118855
C            4.87053689009595        0.14020355738925        2.41176055909230
H            2.15312917395770       -2.30360779736976        1.25654405265701
H            0.03026423022189       -3.35544669663207        0.55242322487469
H           -5.00064103230805       -3.27663457575315        1.15190837057730
H           -6.97381824267862       -1.95416483536922        0.50257316685625
H           -9.41932696031968        1.17611343442528        0.16478194148431
H          -11.46479004802918        0.10902044498325       -0.69181192280439
H          -11.30914728797257       -1.78356260104124       -2.27133325245615
H           -9.09105834575223       -2.59230253292846       -2.99743172185621
H           -7.04562999662696       -1.51539958060598       -2.15632686329354
H           -7.93508000081349        2.21411700729857       -2.22355489298679
H           -7.94398717163425        4.66843801375009       -2.04860362944198
H           -6.92557130260514        5.77720096296835       -0.09071783535819
H           -5.90909873766719        4.41038371953893        1.69830493531366
H           -5.91496312232645        1.95625000684559        1.53397906977905
H           -4.40135302838096        1.28905140544403       -0.59599778164175
H           -2.45266007556981       -0.02430853091860        0.06996077591295
H           -2.16671969685656       -0.32614568959159        2.60610613633868
H           -0.04279661885702        0.71421909009690        3.32863560183798
H            2.45827898787576       -0.09621316979749        0.04807540942635
H            4.41644073833829        0.02553783366293       -1.40456108135781
H            7.00356409105259        2.57930094836401        0.58212453171580
H            9.02277713207139        3.81727556632081        1.24776053171920
H           11.26119183037110        2.87152058775590        0.80568472735348
H           11.46425199911966        0.67234501752105       -0.30023992157271
H            9.44544522621345       -0.57387018313205       -0.95415340935203
H            5.94337761641287       -2.18185041448015       -1.17957671982583
H            5.96478653358591       -3.28756359771016       -3.37731794890594
H            6.99550245673072       -2.16657841626505       -5.32135073583277
H            8.00063436737306        0.07393081127944       -5.05104975350285
H            7.96350049933111        1.18940458684620       -2.85854057636185
H            6.96037608598141        0.28987922661626        2.03090587417128
H            4.97792874746846        0.17517444759084        3.48627541398074

          :  Hamiltonian                  GFN2-xTB          :
         :: gradient norm              0.000054191835 Eh/a0 ::
         :: HOMO-LUMO gap              1.698948089771 eV    ::
         :: SCC energy              -126.787664167057 Eh    ::
         :: -> dispersion             -0.105224658488 Eh    ::
         :: -> Gsolv                  -0.060038415522 Eh    ::
         :: repulsion energy           2.242778591718 Eh    ::

    * Orbital Energies and Occupations

         #    Occupation            Energy/Eh            Energy/eV
      -------------------------------------------------------------
         1        2.0000           -0.7052072             -19.1897
       ...           ...                  ...                  ...
       103        2.0000           -0.4172082             -11.3528
       104        2.0000           -0.4148809             -11.2895
       105        2.0000           -0.4146138             -11.2822
       106        2.0000           -0.4136153             -11.2550
       107        2.0000           -0.4135703             -11.2538
       108        2.0000           -0.4108384             -11.1795
       109        2.0000           -0.4108277             -11.1792
       110        2.0000           -0.4095069             -11.1432
       111        2.0000           -0.4094786             -11.1425
       112        2.0000           -0.3967074             -10.7950
       113        2.0000           -0.3893971             -10.5960
       114        2.0000           -0.3604994              -9.8097
       115        2.0000           -0.3600945              -9.7987 (HOMO)
       116                         -0.2976592              -8.0997 (LUMO)
       117                         -0.2781530              -7.5689
       118                         -0.2432033              -6.6179
       119                         -0.2396271              -6.5206
       120                         -0.2361978              -6.4273
       121                         -0.2360830              -6.4241
       122                         -0.2342766              -6.3750
       123                         -0.2338574              -6.3636
       124                         -0.2290669              -6.2332
       125                         -0.2289398              -6.2298
       126                         -0.2271236              -6.1803
       ...                                ...                  ...
       224                          0.6720240              18.2867
      -------------------------------------------------------------
                  HL-Gap            0.0624352 Eh            1.6989 eV

     #   Z          covCN         q      C6AA      α(0)
     1   8 O        0.858    -0.435    22.390     6.344
     2   6 C        2.829     0.223    23.313     7.912
     3   6 C        2.972    -0.007    28.189     8.709
     4   6 C        2.919    -0.025    28.640     8.776
     5   6 C        2.922    -0.018    28.452     8.747
     6   6 C        2.972    -0.007    28.188     8.709
     7   6 C        2.829     0.223    23.309     7.911
     8   8 O        0.858    -0.434    22.380     6.343
     9   6 C        2.970    -0.028    28.687     8.786
    10   6 C        2.923    -0.017    28.432     8.744
    11   6 C        2.919    -0.049    29.211     8.863
    12   6 C        2.922     0.075    26.334     8.415
    13   7 N        2.752    -0.062    22.445     7.036
    14   6 C        2.926     0.063    26.590     8.456
    15   6 C        2.922    -0.044    29.098     8.846
    16   6 C        2.919    -0.028    28.705     8.786
    17   6 C        2.919    -0.035    28.870     8.811
    18   6 C        2.919    -0.028    28.708     8.786
    19   6 C        2.922    -0.045    29.108     8.847
    20   6 C        2.925     0.063    26.591     8.457
    21   6 C        2.922    -0.044    29.101     8.846
    22   6 C        2.919    -0.028    28.704     8.786
    23   6 C        2.919    -0.035    28.876     8.812
    24   6 C        2.919    -0.028    28.710     8.787
    25   6 C        2.922    -0.045    29.119     8.849
    26   6 C        2.920    -0.049    29.220     8.864
    27   6 C        2.919    -0.026    28.662     8.779
    28   6 C        2.919    -0.025    28.637     8.775
    29   6 C        2.923    -0.018    28.449     8.747
    30   6 C        2.970    -0.028    28.686     8.785
    31   6 C        2.919    -0.027    28.665     8.780
    32   6 C        2.920    -0.049    29.218     8.864
    33   6 C        2.922     0.075    26.333     8.415
    34   7 N        2.752    -0.062    22.445     7.036
    35   6 C        2.926     0.063    26.589     8.456
    36   6 C        2.922    -0.045    29.106     8.847
    37   6 C        2.919    -0.028    28.707     8.786
    38   6 C        2.919    -0.035    28.869     8.811
    39   6 C        2.919    -0.028    28.705     8.786
    40   6 C        2.922    -0.044    29.095     8.846
    41   6 C        2.925     0.063    26.591     8.457
    42   6 C        2.922    -0.045    29.123     8.850
    43   6 C        2.919    -0.028    28.710     8.787
    44   6 C        2.919    -0.035    28.879     8.812
    45   6 C        2.919    -0.028    28.704     8.786
    46   6 C        2.922    -0.045    29.105     8.847
    47   6 C        2.919    -0.049    29.208     8.863
    48   6 C        2.923    -0.017    28.430     8.744
    49   1 H        0.926     0.050     2.316     2.380
    50   1 H        0.926     0.051     2.306     2.375
    51   1 H        0.926     0.047     2.362     2.403
    52   1 H        0.926     0.044     2.402     2.424
    53   1 H        0.926     0.037     2.493     2.469
    54   1 H        0.926     0.039     2.466     2.456
    55   1 H        0.926     0.037     2.486     2.465
    56   1 H        0.926     0.038     2.474     2.460
    57   1 H        0.926     0.036     2.503     2.474
    58   1 H        0.926     0.037     2.495     2.470
    59   1 H        0.926     0.039     2.468     2.457
    60   1 H        0.926     0.037     2.489     2.467
    61   1 H        0.926     0.038     2.474     2.460
    62   1 H        0.926     0.036     2.503     2.474
    63   1 H        0.926     0.045     2.382     2.413
    64   1 H        0.926     0.044     2.397     2.421
    65   1 H        0.926     0.050     2.322     2.383
    66   1 H        0.926     0.051     2.304     2.374
    67   1 H        0.926     0.044     2.391     2.418
    68   1 H        0.926     0.045     2.381     2.413
    69   1 H        0.926     0.036     2.504     2.475
    70   1 H        0.926     0.038     2.473     2.459
    71   1 H        0.926     0.037     2.485     2.465
    72   1 H        0.926     0.039     2.465     2.455
    73   1 H        0.926     0.037     2.491     2.468
    74   1 H        0.926     0.036     2.504     2.475
    75   1 H        0.926     0.038     2.475     2.460
    76   1 H        0.926     0.037     2.490     2.468
    77   1 H        0.926     0.038     2.470     2.457
    78   1 H        0.926     0.036     2.497     2.471
    79   1 H        0.926     0.043     2.403     2.424
    80   1 H        0.926     0.047     2.358     2.401

molecular dipole:
                 x           y           z       tot (Debye)
 q only:        0.013       1.696      -2.489
   full:        0.013       1.701      -2.496       7.677

 projected vibrational frequencies (cm⁻¹)
eigval :       -0.00    -0.00    -0.00    -0.00     0.00     0.00
eigval :        7.32     9.48    10.16    19.50    27.26    40.17
eigval :       42.31    45.66    48.41    51.83    52.39    59.97
eigval :       64.85    70.78    75.21    82.79    92.62   110.53
eigval :      113.81   123.13   144.11   148.34   166.54   190.09
eigval :      209.06   222.27   231.58   234.94   236.87   240.39
eigval :      263.55   275.90   284.36   309.44   311.31   333.63
eigval :      336.14   363.70   369.45   377.86   378.11   380.31
eigval :      381.65   387.86   392.79   399.22   403.57   405.19
eigval :      435.45   446.06   472.59   480.61   489.28   501.14
eigval :      504.45   505.93   551.44   557.86   582.77   583.77
eigval :      585.85   586.77   592.83   593.10   596.86   607.50
eigval :      610.92   617.83   638.57   643.41   657.80   661.40
eigval :      664.08   667.53   669.55   691.07   694.87   715.82
eigval :      727.60   741.03   757.14   758.95   760.00   762.93
eigval :      770.12   822.42   825.05   831.00   865.31   868.24
eigval :      874.45   875.41   876.17   877.28   881.51   886.41
eigval :      895.93   897.46   898.16   898.79   908.75   909.21
eigval :      910.74   916.51   920.75   925.55   927.90   928.22
eigval :      929.06   929.16   929.66   930.19   931.73   931.87
eigval :      933.15   935.26   936.54   938.65   958.56   985.49
eigval :      988.88  1004.64  1004.77  1011.44  1022.31  1030.80
eigval :     1081.03  1081.07  1082.23  1082.28  1119.36  1120.06
eigval :     1121.03  1121.67  1132.33  1142.01  1142.46  1169.73
eigval :     1176.78  1177.26  1177.90  1178.85  1178.97  1182.43
eigval :     1183.37  1186.04  1191.53  1192.82  1193.35  1202.48
eigval :     1211.01  1218.25  1259.61  1260.92  1266.08  1267.15
eigval :     1275.40  1275.72  1279.01  1280.03  1282.39  1299.24
eigval :     1299.47  1314.41  1314.61  1317.86  1322.12  1322.24
eigval :     1328.75  1329.21  1335.99  1336.16  1391.81  1419.67
eigval :     1419.75  1434.15  1434.27  1438.56  1438.60  1463.59
eigval :     1466.16  1466.20  1469.77  1469.83  1480.47  1480.94
eigval :     1539.66  1539.72  1557.30  1568.97  1569.45  1577.36
eigval :     1577.38  1581.49  1581.60  1582.89  1590.03  1590.04
eigval :     1595.64  1595.68  1632.22  1637.34  3074.61  3075.06
eigval :     3076.03  3076.05  3076.32  3076.42  3076.97  3077.30
eigval :     3079.95  3080.70  3082.29  3082.62  3083.63  3084.66
eigval :     3084.93  3084.95  3085.52  3085.70  3087.26  3087.48
eigval :     3088.38  3088.48  3090.25  3091.60  3094.39  3094.72
eigval :     3096.12  3096.41  3096.56  3096.69  3097.35  3097.52

   temp. (K)  partition function   enthalpy   heat capacity  entropy
                                   cal/mol     cal/K/mol   cal/K/mol   J/K/mol
 298.15  VIB  0.309E+20            23417.867    144.296    149.130
         ROT  0.139E+09              888.752      2.981     40.237
         INT  0.428E+28            24306.620    147.277    189.367
         TR   0.150E+29             1481.254      4.968     45.140
         TOT                       25787.8735   152.2450   234.5067   981.1758

       T/K    H(0)-H(T)+PV         H(T)/Eh          T*S/Eh         G(T)/Eh
   ------------------------------------------------------------------------
    298.15    0.410956E-01    0.657374E+00    0.111422E+00    0.545952E+00
   ------------------------------------------------------------------------

         :::::::::::::::::::::::::::::::::::::::::::::::::::::
         ::                  THERMODYNAMIC                  ::
         :::::::::::::::::::::::::::::::::::::::::::::::::::::
         :: total free energy        -123.998933545327 Eh   ::
         ::.................................................::
         :: total energy             -124.544885573634 Eh   ::
         :: zero point energy           0.616278113606 Eh   ::
         :: G(RRHO) w/o ZPVE           -0.070326085299 Eh   ::
         :: G(RRHO) contrib.            0.545952028307 Eh   ::
         :::::::::::::::::::::::::::::::::::::::::::::::::::::

           -------------------------------------------------
          | TOTAL ENERGY             -124.544885573634 Eh   |
          | TOTAL ENTHALPY           -123.887511867690 Eh   |
          | TOTAL FREE ENERGY        -123.998933545327 Eh   |
          | GRADIENT NORM               0.000054201285 Eh/α |
          | HOMO-LUMO GAP               1.698948797092 eV   |
           -------------------------------------------------

 * finished run on 2025/08/22 at 19:49:51.324
