   * xtb version 6.7.1 (edcfbbe) compiled by 'albert@albert-system' on 2024-07-22

   ID    Z sym.   atoms
    1    8 O      1, 8
    2    6 C      2-7, 9-12, 14-33, 35-48
    3    7 N      13, 34
    4    1 H      49-80

          program call               : xtb data2507/toluene/p-DTPACO/p-DTPACO.xyz --gfn 2 --gbsa toluene --ohess vtight --parallel 40 --molden --ceasefiles --namespace data2507/toluene/p-DTPACO/p-DTPACO_toluene_S0_preOpt
      * Solvation model:               GBSA
        Solvent                        toluene
        Solvent mass                       9.2140E+01 g/mol
          :  Hamiltonian                  GFN2-xTB          :
 * total energy  :  -124.5190125 Eh     change       -0.6280828E-08 Eh
 * total energy  :  -124.5329375 Eh     change       -0.1392501E-01 Eh
 * total energy  :  -124.5387128 Eh     change       -0.5775329E-02 Eh
 * total energy  :  -124.5404655 Eh     change       -0.1752707E-02 Eh
 * total energy  :  -124.5415304 Eh     change       -0.1064853E-02 Eh
 * total energy  :  -124.5420401 Eh     change       -0.5096940E-03 Eh
 * total energy  :  -124.5422893 Eh     change       -0.2492050E-03 Eh
 * total energy  :  -124.5424643 Eh     change       -0.1750512E-03 Eh
 * total energy  :  -124.5425752 Eh     change       -0.1108508E-03 Eh
 * total energy  :  -124.5426500 Eh     change       -0.7476252E-04 Eh
 * total energy  :  -124.5441733 Eh     change       -0.2851095E-06 Eh
 * total energy  :  -124.5441735 Eh     change       -0.2178107E-06 Eh
 * total energy  :  -124.5441737 Eh     change       -0.1931080E-06 Eh
 * total energy  :  -124.5441739 Eh     change       -0.1677047E-06 Eh
 * total energy  :  -124.5441740 Eh     change       -0.1487349E-06 Eh
 * total energy  :  -124.5441742 Eh     change       -0.1333359E-06 Eh
 * total energy  :  -124.5441743 Eh     change       -0.1357630E-06 Eh
 * total energy  :  -124.5441745 Eh     change       -0.1655805E-06 Eh
 * total energy  :  -124.5441745 Eh     change       -0.1225359E-08 Eh
   *** GEOMETRY OPTIMIZATION CONVERGED AFTER 122 ITERATIONS ***

 final structure:
================
80
 xtb: 6.7.1 (edcfbbe)
O            2.39271290191645       -3.19999187912215        2.63584626652945
C            2.38133364271832       -2.50887858279947        1.62337628707952
C            1.16284440221050       -2.44876320671718        0.76988651138072
C            1.24346316975857       -2.46010272330535       -0.62203442047002
C            0.08991605238851       -2.47278445898079       -1.38041750186263
C           -1.16284491452849       -2.44872967754831       -0.76993320892792
C           -2.38133395730881       -2.50881609505654       -1.62342474945492
O           -2.39271211909124       -3.19989618481293       -2.63591752369955
C           -3.55111282264616       -1.72738125547541       -1.20101151998097
C           -3.45056292377341       -0.58874589802481       -0.39517052643206
C           -4.57255913646512        0.12808135550119       -0.04934008865571
C           -5.84359679283992       -0.27036505212802       -0.48660669518564
N           -6.97189903178060        0.44284257636082       -0.12716080786614
C           -6.90644641010933        1.82746736472929        0.11347697086703
C           -6.14619412203786        2.65534504378259       -0.71079594660356
C           -6.09833130388304        4.01601035194789       -0.47264978820583
C           -6.81105996186158        4.56919694537605        0.57916414097332
C           -7.57539210084823        3.75037546411239        1.39463463056715
C           -7.62353908389923        2.38747461246475        1.16890598260210
C           -8.22005150602009       -0.19621816593591       -0.01042578447175
C           -8.32203466245560       -1.44275867808350        0.60468040686887
C           -9.55387357872546       -2.05822257647431        0.72373729097847
C          -10.69648557033416       -1.43884618822984        0.24308602049557
C          -10.59967010349163       -0.19588772749519       -0.36139090552857
C           -9.37111379398501        0.42408126418515       -0.49180726479462
C           -5.94316824263060       -1.40480917960454       -1.30450090237056
C           -4.81721212551955       -2.10549619025267       -1.66226313199199
C           -1.24346363580121       -2.46010436086116        0.62198734891390
C           -0.08991661443735       -2.47281967622484        1.38037009770051
C            3.55111282343135       -1.72743396426991        1.20098270699400
C            4.81721306624447       -2.10556223722746        1.66222092194949
C            5.94316850439435       -1.40486618877534        1.30447432373361
C            5.84359564252298       -0.27040058692278        0.48660995124556
N            6.97189752163232        0.44281308046003        0.12717629245777
C            8.22004834595281       -0.19624688677752        0.01041950818758
C            9.37111408538336        0.42404097755832        0.49180752138316
C           10.59966907030523       -0.19592588740753        0.36136898768731
C           10.69647959845483       -1.43887101303402       -0.24313611399501
C            9.55386407646059       -2.05823576993493       -0.72379400129598
C            8.32202647621716       -1.44277348492259       -0.60471558420980
C            6.90644700877586        1.82744280702756       -0.11343476718698
C            6.14620808120178        2.65530828669258        0.71086256090207
C            6.09835078095805        4.01597863604675        0.47274364925612
C            6.81107067268586        4.56918182665577       -0.57906750110805
C            7.57538793081507        3.75037186990542       -1.39456350527622
C            7.62353008487548        2.38746646476352       -1.16886154861354
C            4.57255689082771        0.12805981087884        0.04935934722279
C            3.45056142558954       -0.58877619896039        0.39517358885632
H            2.20831041961183       -2.49037060798984       -1.10582849546729
H            0.13988312833538       -2.49908601084662       -2.45934770005215
H           -2.48240483263816       -0.25445972715204       -0.05399513485066
H           -4.47826055177845        1.00308280896285        0.57608899821491
H           -5.60016114445717        2.22628210733138       -1.53837155733149
H           -5.50753100851243        4.64870505084177       -1.11873555719902
H           -6.77379570724422        5.63286454640870        0.75995190975435
H           -8.13318954190860        4.17401292688859        2.21678536762191
H           -8.21567290733818        1.74864077919572        1.80765783524917
H           -7.43314524077640       -1.92122734126195        0.98945944837323
H           -9.62226237384589       -3.02385666094548        1.20296388187707
H          -11.65697164473389       -1.92195027147399        0.34066480650058
H          -11.48535030885176        0.29204073617288       -0.74093548480517
H           -9.29437666235213        1.39039989039418       -0.96849345502834
H           -6.91106371482419       -1.71648659208096       -1.66734405860028
H           -4.89089571697450       -2.96976541162012       -2.30645547439919
H           -2.20831094824558       -2.49038245602801        1.10578028838131
H           -0.13988455296299       -2.49915651675366        2.45929931568109
H            4.89089808607983       -2.96984872652156        2.30638997550618
H            6.91106498509734       -1.71655445604513        1.66730538101231
H            9.29438053529592        1.39034890461963        0.96851595950647
H           11.48535199977609        0.29199300717577        0.74091955139635
H           11.65696466954843       -1.92197366427643       -0.34073189700259
H            9.62224917904777       -3.02385877510633       -1.20304341575535
H            7.43313416547856       -1.92123226921262       -0.98950025804883
H            5.60018155801177        2.22623216445903        1.53843561770687
H            5.50756123436271        4.64866422558292        1.11884815506481
H            6.77381067529906        5.63285328012680       -0.75983371310479
H            8.13317774180270        4.17402197254556       -2.21671292325072
H            8.21565268294396        1.74864151623704       -1.80763270716329
H            4.47825706760303        1.00307873390831       -0.57604500660292
H            2.48240198785025       -0.25447792688193        0.05401382012422

          :  Hamiltonian                  GFN2-xTB          :
         :: gradient norm              0.000028158300 Eh/a0 ::
         :: HOMO-LUMO gap              1.678834806328 eV    ::
         :: SCC energy              -126.786767460209 Eh    ::
         :: -> dispersion             -0.105049498100 Eh    ::
         :: -> Gsolv                  -0.059853509669 Eh    ::
         :: repulsion energy           2.242592990149 Eh    ::

    * Orbital Energies and Occupations

         #    Occupation            Energy/Eh            Energy/eV
      -------------------------------------------------------------
         1        2.0000           -0.7056981             -19.2030
       ...           ...                  ...                  ...
       103        2.0000           -0.4173795             -11.3575
       104        2.0000           -0.4152391             -11.2992
       105        2.0000           -0.4149180             -11.2905
       106        2.0000           -0.4135314             -11.2528
       107        2.0000           -0.4135225             -11.2525
       108        2.0000           -0.4107484             -11.1770
       109        2.0000           -0.4107359             -11.1767
       110        2.0000           -0.4093820             -11.1399
       111        2.0000           -0.4093609             -11.1393
       112        2.0000           -0.3970063             -10.8031
       113        2.0000           -0.3897549             -10.6058
       114        2.0000           -0.3601975              -9.8015
       115        2.0000           -0.3597489              -9.7893 (HOMO)
       116                         -0.2980529              -8.1104 (LUMO)
       117                         -0.2783604              -7.5746
       118                         -0.2432505              -6.6192
       119                         -0.2397239              -6.5232
       120                         -0.2360690              -6.4238
       121                         -0.2360401              -6.4230
       122                         -0.2342585              -6.3745
       123                         -0.2338397              -6.3631
       124                         -0.2290720              -6.2334
       125                         -0.2289335              -6.2296
       126                         -0.2270040              -6.1771
       ...                                ...                  ...
       224                          0.6719460              18.2846
      -------------------------------------------------------------
                  HL-Gap            0.0616960 Eh            1.6788 eV

     #   Z          covCN         q      C6AA      α(0)
     1   8 O        0.858    -0.433    22.355     6.339
     2   6 C        2.829     0.224    23.301     7.910
     3   6 C        2.972    -0.007    28.186     8.708
     4   6 C        2.919    -0.025    28.638     8.776
     5   6 C        2.923    -0.018    28.449     8.747
     6   6 C        2.972    -0.007    28.186     8.708
     7   6 C        2.829     0.224    23.301     7.910
     8   8 O        0.858    -0.433    22.355     6.339
     9   6 C        2.970    -0.027    28.684     8.785
    10   6 C        2.919    -0.027    28.664     8.780
    11   6 C        2.920    -0.049    29.225     8.865
    12   6 C        2.921     0.075    26.331     8.415
    13   7 N        2.752    -0.063    22.460     7.039
    14   6 C        2.925     0.063    26.588     8.456
    15   6 C        2.921    -0.045    29.120     8.849
    16   6 C        2.919    -0.028    28.711     8.787
    17   6 C        2.919    -0.035    28.878     8.812
    18   6 C        2.919    -0.028    28.706     8.786
    19   6 C        2.922    -0.044    29.101     8.846
    20   6 C        2.926     0.063    26.587     8.456
    21   6 C        2.922    -0.045    29.115     8.848
    22   6 C        2.919    -0.028    28.710     8.787
    23   6 C        2.919    -0.035    28.876     8.812
    24   6 C        2.919    -0.028    28.706     8.786
    25   6 C        2.922    -0.044    29.102     8.847
    26   6 C        2.919    -0.048    29.203     8.862
    27   6 C        2.923    -0.017    28.434     8.745
    28   6 C        2.919    -0.025    28.638     8.776
    29   6 C        2.923    -0.018    28.449     8.747
    30   6 C        2.970    -0.027    28.684     8.785
    31   6 C        2.923    -0.017    28.434     8.745
    32   6 C        2.919    -0.048    29.203     8.862
    33   6 C        2.921     0.075    26.331     8.415
    34   7 N        2.752    -0.063    22.460     7.039
    35   6 C        2.926     0.063    26.587     8.456
    36   6 C        2.922    -0.044    29.102     8.847
    37   6 C        2.919    -0.028    28.706     8.786
    38   6 C        2.919    -0.035    28.876     8.812
    39   6 C        2.919    -0.028    28.710     8.787
    40   6 C        2.922    -0.045    29.115     8.848
    41   6 C        2.925     0.063    26.588     8.456
    42   6 C        2.921    -0.045    29.120     8.849
    43   6 C        2.919    -0.028    28.711     8.787
    44   6 C        2.919    -0.035    28.878     8.812
    45   6 C        2.919    -0.028    28.706     8.786
    46   6 C        2.922    -0.044    29.101     8.846
    47   6 C        2.920    -0.049    29.225     8.865
    48   6 C        2.919    -0.027    28.664     8.780
    49   1 H        0.926     0.050     2.314     2.379
    50   1 H        0.926     0.051     2.303     2.373
    51   1 H        0.926     0.045     2.389     2.417
    52   1 H        0.926     0.045     2.382     2.413
    53   1 H        0.926     0.036     2.506     2.475
    54   1 H        0.926     0.038     2.474     2.460
    55   1 H        0.926     0.037     2.488     2.467
    56   1 H        0.926     0.038     2.469     2.457
    57   1 H        0.926     0.036     2.496     2.471
    58   1 H        0.926     0.036     2.507     2.476
    59   1 H        0.926     0.038     2.478     2.461
    60   1 H        0.926     0.037     2.489     2.467
    61   1 H        0.926     0.039     2.468     2.457
    62   1 H        0.926     0.036     2.496     2.471
    63   1 H        0.926     0.043     2.406     2.425
    64   1 H        0.926     0.047     2.360     2.402
    65   1 H        0.926     0.050     2.314     2.379
    66   1 H        0.926     0.051     2.303     2.373
    67   1 H        0.926     0.047     2.360     2.402
    68   1 H        0.926     0.043     2.406     2.425
    69   1 H        0.926     0.036     2.496     2.471
    70   1 H        0.926     0.039     2.468     2.457
    71   1 H        0.926     0.037     2.489     2.467
    72   1 H        0.926     0.038     2.478     2.461
    73   1 H        0.926     0.036     2.507     2.476
    74   1 H        0.926     0.036     2.506     2.475
    75   1 H        0.926     0.038     2.474     2.460
    76   1 H        0.926     0.037     2.488     2.467
    77   1 H        0.926     0.038     2.469     2.457
    78   1 H        0.926     0.036     2.496     2.471
    79   1 H        0.926     0.045     2.382     2.413
    80   1 H        0.926     0.045     2.389     2.417

molecular dipole:
                 x           y           z       tot (Debye)
 q only:        0.000       2.953       0.000
   full:        0.000       2.956       0.000       7.513

 projected vibrational frequencies (cm⁻¹)
eigval :       -0.00    -0.00    -0.00     0.00     0.00     0.00
eigval :        5.47     7.65    10.63    18.65    24.49    33.90
eigval :       37.66    44.22    48.72    48.76    54.18    60.78
eigval :       65.35    67.32    67.78    78.61    91.91   113.38
eigval :      113.49   126.25   143.35   143.97   164.59   190.53
eigval :      216.21   217.83   225.96   235.28   236.25   244.75
eigval :      260.22   265.17   290.87   309.84   311.57   330.51
eigval :      337.32   365.66   368.37   375.45   376.32   379.84
eigval :      381.70   384.54   389.25   390.97   402.03   406.80
eigval :      441.68   445.12   472.18   482.35   488.87   501.21
eigval :      502.61   505.14   551.68   558.95   582.99   583.70
eigval :      585.98   586.84   592.63   592.68   596.09   609.12
eigval :      612.20   620.47   636.18   643.87   656.52   661.25
eigval :      662.63   667.14   669.83   689.91   694.30   714.62
eigval :      727.72   738.92   757.44   759.17   760.00   762.70
eigval :      770.13   824.31   825.29   831.33   868.05   870.38
eigval :      875.15   875.53   876.67   877.81   878.02   886.45
eigval :      896.88   897.97   899.28   900.27   908.46   909.03
eigval :      910.95   917.33   921.76   925.51   925.56   927.97
eigval :      929.38   931.05   931.41   931.64   932.57   933.10
eigval :      933.17   935.15   936.04   936.45   958.53   985.54
eigval :      988.86  1004.49  1004.51  1011.44  1022.80  1030.37
eigval :     1081.05  1081.06  1082.53  1082.54  1119.96  1119.97
eigval :     1121.61  1121.62  1129.71  1143.43  1143.56  1169.12
eigval :     1175.72  1179.60  1179.62  1179.71  1179.71  1182.41
eigval :     1183.34  1185.00  1191.40  1192.92  1193.11  1202.35
eigval :     1210.64  1218.03  1259.27  1260.26  1265.90  1266.85
eigval :     1275.80  1275.82  1278.80  1280.15  1282.12  1299.16
eigval :     1299.31  1314.46  1314.66  1317.46  1322.06  1322.07
eigval :     1328.68  1329.08  1336.81  1336.81  1391.48  1418.91
eigval :     1418.94  1434.14  1434.16  1438.57  1438.59  1463.08
eigval :     1466.13  1466.16  1469.67  1469.71  1480.51  1480.54
eigval :     1541.03  1541.05  1556.97  1571.22  1571.54  1577.45
eigval :     1577.46  1581.52  1581.70  1582.64  1589.92  1589.92
eigval :     1595.68  1595.72  1632.81  1637.91  3075.50  3075.50
eigval :     3076.14  3076.15  3076.91  3076.91  3077.56  3077.56
eigval :     3079.84  3080.56  3082.96  3082.97  3084.73  3084.74
eigval :     3085.30  3085.33  3085.89  3085.90  3087.65  3087.65
eigval :     3088.61  3088.62  3090.43  3091.74  3095.18  3095.23
eigval :     3096.85  3096.87  3096.99  3097.01  3097.75  3097.76

   temp. (K)  partition function   enthalpy   heat capacity  entropy
                                   cal/mol     cal/K/mol   cal/K/mol   J/K/mol
 298.15  VIB  0.915E+20            23478.732    143.941    150.063
         ROT  0.682E+08              888.752      2.981     38.828
         INT  0.624E+28            24367.484    146.922    188.891
         TR   0.150E+29             1481.254      4.968     45.140
         TOT                       25848.7379   151.8903   234.0304   979.1831

       T/K    H(0)-H(T)+PV         H(T)/Eh          T*S/Eh         G(T)/Eh
   ------------------------------------------------------------------------
    298.15    0.411926E-01    0.657402E+00    0.111195E+00    0.546207E+00
   ------------------------------------------------------------------------

         :::::::::::::::::::::::::::::::::::::::::::::::::::::
         ::                  THERMODYNAMIC                  ::
         :::::::::::::::::::::::::::::::::::::::::::::::::::::
         :: total free energy        -123.997967496631 Eh   ::
         ::.................................................::
         :: total energy             -124.544174471852 Eh   ::
         :: zero point energy           0.616209768267 Eh   ::
         :: G(RRHO) w/o ZPVE           -0.070002793046 Eh   ::
         :: G(RRHO) contrib.            0.546206975221 Eh   ::
         :::::::::::::::::::::::::::::::::::::::::::::::::::::

           -------------------------------------------------
          | TOTAL ENERGY             -124.544174471852 Eh   |
          | TOTAL ENTHALPY           -123.886772117675 Eh   |
          | TOTAL FREE ENERGY        -123.997967496631 Eh   |
          | GRADIENT NORM               0.000028156888 Eh/α |
          | HOMO-LUMO GAP               1.678834935455 eV   |
           -------------------------------------------------

 * finished run on 2025/08/22 at 19:40:05.989
