   * xtb version 6.7.1 (edcfbbe) compiled by 'albert@albert-system' on 2024-07-22

   ID    Z sym.   atoms
    1    8 O      1, 8
    2    6 C      2-7, 9-12, 14-33, 35-48
    3    7 N      13, 34
    4    1 H      49-80

          program call               : xtb data2507/toluene/p-DTPACO/p-DTPACO_toluene_S0_finalOpt.xtbopt.xyz --gfn 2 --uhf 2 --gbsa toluene --ohess vtight --parallel 40 --molden --ceasefiles --namespace data2507/toluene/p-DTPACO/p-DTPACO_toluene_T1_preOpt
      * Solvation model:               GBSA
        Solvent                        toluene
        Solvent mass                       9.2140E+01 g/mol
          :  Hamiltonian                  GFN2-xTB          :
 * total energy  :  -124.4682230 Eh     change       -0.1390062E-07 Eh
 * total energy  :  -124.4708654 Eh     change       -0.2642477E-02 Eh
 * total energy  :  -124.4719277 Eh     change       -0.1062309E-02 Eh
 * total energy  :  -124.4722201 Eh     change       -0.2923323E-03 Eh
 * total energy  :  -124.4725841 Eh     change       -0.3640494E-03 Eh
 * total energy  :  -124.4728751 Eh     change       -0.2909735E-03 Eh
 * total energy  :  -124.4731220 Eh     change       -0.2469228E-03 Eh
 * total energy  :  -124.4732478 Eh     change       -0.1258206E-03 Eh
 * total energy  :  -124.4733159 Eh     change       -0.6808483E-04 Eh
 * total energy  :  -124.4733742 Eh     change       -0.5832424E-04 Eh
 * total energy  :  -124.4754017 Eh     change       -0.1639118E-05 Eh
 * total energy  :  -124.4754031 Eh     change       -0.1420480E-05 Eh
 * total energy  :  -124.4754044 Eh     change       -0.1256827E-05 Eh
 * total energy  :  -124.4754055 Eh     change       -0.1168051E-05 Eh
 * total energy  :  -124.4754067 Eh     change       -0.1202378E-05 Eh
 * total energy  :  -124.4754081 Eh     change       -0.1382137E-05 Eh
 * total energy  :  -124.4754098 Eh     change       -0.1650671E-05 Eh
 * total energy  :  -124.4754117 Eh     change       -0.1904651E-05 Eh
 * total energy  :  -124.4754117 Eh     change       -0.2928061E-08 Eh
   *** GEOMETRY OPTIMIZATION CONVERGED AFTER 94 ITERATIONS ***

 final structure:
================
80
 xtb: 6.7.1 (edcfbbe)
O            2.27451751454464        1.38774825428136        3.07169427734480
C            2.32585589926621        0.59753978809988        2.10109807987333
C            1.16703847610687       -0.11924458688482        1.62083135502686
C            1.25410969116519       -1.30022529615216        0.85386742947032
C            0.12536223389596       -1.94494942619734        0.43169384907604
C           -1.16247428603366       -1.44029291313266        0.71390771269383
C           -2.32066196349521       -2.14760154101740        0.21805079002010
O           -2.26749772309844       -3.33824721707918       -0.16758460103542
C           -3.61295221836535       -1.43384151519191        0.12917830011570
C           -4.80193703817626       -2.15376323865442        0.29861600691103
C           -6.02693512390086       -1.54261970210473        0.17020015412028
C           -6.10540581607903       -0.18531294644565       -0.16543863233341
N           -7.34343130469628        0.44183917878007       -0.31001732417158
C           -8.41332798514790       -0.25054296872103       -0.88004761879239
C           -9.71656687238914       -0.04117364620434       -0.41956036170059
C          -10.77059193005001       -0.72898489053200       -0.98699231672800
C          -10.54715393492774       -1.63270289157463       -2.01531484112287
C           -9.25578267963412       -1.84525692404027       -2.47482669504357
C           -8.19357779778901       -1.16213525919129       -1.91682203623113
C           -7.50369191092356        1.76667861201494        0.10204279744946
C           -8.31211309188622        2.64282306549758       -0.62750669299883
C           -8.46404862259592        3.95138794803700       -0.21389280392605
C           -7.81615386789089        4.40778429738381        0.92439153393340
C           -7.01113119932514        3.54263023658780        1.65083483261362
C           -6.85287058604759        2.23143503661421        1.24834800136055
C           -4.92071243050712        0.53110382702396       -0.37620346052295
C           -3.69840766704179       -0.08588822727820       -0.23884937493741
C           -1.24963771096375       -0.30253094725374        1.54347035525089
C           -0.12076916922437        0.32308626578636        1.99356324073476
C            3.61794841351596        0.41846084643896        1.40371523312108
C            3.70324329885393        0.27485911147532        0.01383098186780
C            4.92529511264802        0.16925912565601       -0.60993646299520
C            6.10952614148469        0.22090199657684        0.13547109536653
N            7.34734161564704        0.11242348714997       -0.50049638820482
C            8.42123241557188        0.89375356860518       -0.07052868923706
C            8.20663185634049        2.19704814897231        0.38734260613537
C            9.27199389663762        2.96643598458559        0.81079817859451
C           10.56147458231599        2.45599136124277        0.78454712581851
C           10.77958583409441        1.16283109951474        0.33248283720492
C            9.72232275385850        0.38283206661290       -0.09168769873800
C            7.50090687841181       -0.76738535936197       -1.57390046656387
C            6.83410589418963       -1.99592741764157       -1.57819206842953
C            6.98666189133012       -2.86306701775486       -2.64165601678202
C            7.80194104605736       -2.52526879375243       -3.71193152065592
C            8.46443769765047       -1.30672481763518       -3.71332437500420
C            8.31800926243803       -0.43010255489974       -2.65661298758616
C            6.03178173395716        0.40238495268599        1.52168848145410
C            4.80697551897815        0.51217726407501        2.13715589327466
H            2.22429093342399       -1.71907319345818        0.62797137739980
H            0.19091812396632       -2.85636431029637       -0.14661612550006
H           -4.73222970780954       -3.20101527611458        0.55407159759057
H           -6.93421125981706       -2.10228939715636        0.34329987719760
H           -9.88860594572743        0.64792639601744        0.39366997649079
H          -11.77215112329246       -0.56584713151939       -0.61844443587640
H          -11.37369237174696       -2.16890659961470       -2.45572283038068
H           -9.07506492198659       -2.54185791738364       -3.27970422277225
H           -7.19065729409096       -1.31555967839542       -2.28651670818003
H           -8.80062334991779        2.29304299347223       -1.52464057030587
H           -9.08455423443739        4.62242151369264       -0.78867075592672
H           -7.93660179103466        5.43171002740440        1.24344759425064
H           -6.50918524275453        3.88937075373182        2.54167978489125
H           -6.23882609698556        1.55330217861248        1.82216185818768
H           -4.97262526697003        1.56771615791797       -0.67503252698023
H           -2.79493460461201        0.46841420880061       -0.44410124891203
H           -2.21984598826273        0.05694782290238        1.85523345087393
H           -0.18617525249197        1.18888291178292        2.63824185584755
H            2.80031093240148        0.27368948887355       -0.57799431885618
H            4.97737989692209        0.07169402277233       -1.68435717900630
H            7.20505650830397        2.60080791621826        0.39115004601210
H            9.09537444850362        3.97437656503110        1.15522151278533
H           11.39068661224761        3.06257052606752        1.11490651874612
H           11.77968636478528        0.75624321331202        0.31879861680444
H            9.89023295201825       -0.63024561816468       -0.42526290367496
H            6.21227350266158       -2.26608404050366       -0.73771073070508
H            6.47217769625877       -3.81226116488462       -2.63106430209863
H            7.91861826769361       -3.20746214993068       -4.53994790826128
H            9.09253831130762       -1.03356719876438       -4.54782987086172
H            8.81809170905058        0.52673400290175       -2.66758619623873
H            6.93910302472049        0.43696472590287        2.10638882273533
H            4.73748027242689        0.65326852710433        3.20587509517435

          :  Hamiltonian                  GFN2-xTB          :
         :: gradient norm              0.000076838378 Eh/a0 ::
         :: HOMO-LUMO gap              0.674315825354 eV    ::
         :: SCC energy              -126.702767827273 Eh    ::
         :: -> dispersion             -0.105304236600 Eh    ::
         :: -> Gsolv                  -0.075958045086 Eh    ::
         :: repulsion energy           2.227356139531 Eh    ::

    * Orbital Energies and Occupations

         #    Occupation            Energy/Eh            Energy/eV
      -------------------------------------------------------------
         1        2.0000           -0.6863515             -18.6766
       ...           ...                  ...                  ...
       104        2.0000           -0.4189578             -11.4004
       105        2.0000           -0.4175969             -11.3634
       106        2.0000           -0.4165807             -11.3357
       107        2.0000           -0.4151870             -11.2978
       108        2.0000           -0.4151001             -11.2954
       109        2.0000           -0.4092364             -11.1359
       110        2.0000           -0.3989575             -10.8562
       111        2.0000           -0.3918058             -10.6616
       112        1.9988           -0.3736149             -10.1666
       113        1.9701           -0.3705378             -10.0828
       114        1.5552           -0.3674413              -9.9986
       115        1.4759           -0.3671393              -9.9904
       116        1.0000           -0.2892407              -7.8706 (HOMO)
       117        0.0000           -0.2644603              -7.1963 (LUMO)
       118                         -0.2462165              -6.6999
       119                         -0.2461943              -6.6993
       120                         -0.2422489              -6.5919
       121                         -0.2400480              -6.5320
       122                         -0.2400104              -6.5310
       123                         -0.2351458              -6.3986
       124                         -0.2350478              -6.3960
       125                         -0.2323590              -6.3228
       126                         -0.2322532              -6.3199
       127                         -0.2236282              -6.0852
       ...                                ...                  ...
       224                          0.6816463              18.5485
      -------------------------------------------------------------
                  HL-Gap            0.0247804 Eh            0.6743 eV

     #   Z          covCN         q      C6AA      α(0)
     1   8 O        0.858    -0.505    23.903     6.555
     2   6 C        2.831     0.188    23.987     8.026
     3   6 C        2.969    -0.031    28.766     8.797
     4   6 C        2.915    -0.041    29.009     8.832
     5   6 C        2.920    -0.029    28.736     8.791
     6   6 C        2.969    -0.031    28.764     8.797
     7   6 C        2.831     0.188    23.986     8.026
     8   8 O        0.858    -0.505    23.902     6.555
     9   6 C        2.970    -0.008    28.226     8.715
    10   6 C        2.922    -0.021    28.527     8.759
    11   6 C        2.917    -0.041    29.022     8.834
    12   6 C        2.926     0.060    26.657     8.467
    13   7 N        2.753    -0.024    21.720     6.922
    14   6 C        2.925     0.064    26.565     8.452
    15   6 C        2.921    -0.040    28.992     8.830
    16   6 C        2.918    -0.024    28.615     8.772
    17   6 C        2.919    -0.028    28.690     8.784
    18   6 C        2.918    -0.024    28.607     8.771
    19   6 C        2.921    -0.039    28.971     8.827
    20   6 C        2.926     0.064    26.570     8.453
    21   6 C        2.921    -0.040    28.991     8.830
    22   6 C        2.918    -0.024    28.615     8.772
    23   6 C        2.919    -0.028    28.691     8.784
    24   6 C        2.918    -0.024    28.606     8.771
    25   6 C        2.921    -0.039    28.972     8.827
    26   6 C        2.918    -0.041    29.021     8.834
    27   6 C        2.919    -0.030    28.748     8.792
    28   6 C        2.915    -0.041    29.007     8.832
    29   6 C        2.920    -0.029    28.736     8.791
    30   6 C        2.970    -0.008    28.224     8.714
    31   6 C        2.919    -0.030    28.748     8.792
    32   6 C        2.918    -0.041    29.019     8.834
    33   6 C        2.926     0.060    26.660     8.467
    34   7 N        2.753    -0.025    21.722     6.922
    35   6 C        2.925     0.064    26.564     8.452
    36   6 C        2.921    -0.039    28.972     8.827
    37   6 C        2.918    -0.024    28.606     8.771
    38   6 C        2.919    -0.028    28.690     8.784
    39   6 C        2.918    -0.024    28.615     8.772
    40   6 C        2.921    -0.040    28.992     8.830
    41   6 C        2.926     0.064    26.568     8.453
    42   6 C        2.921    -0.039    28.974     8.827
    43   6 C        2.918    -0.024    28.606     8.771
    44   6 C        2.919    -0.028    28.691     8.784
    45   6 C        2.918    -0.025    28.616     8.772
    46   6 C        2.921    -0.040    28.993     8.830
    47   6 C        2.917    -0.041    29.019     8.834
    48   6 C        2.922    -0.021    28.528     8.759
    49   1 H        0.926     0.027     2.630     2.536
    50   1 H        0.925     0.029     2.594     2.519
    51   1 H        0.926     0.044     2.394     2.420
    52   1 H        0.926     0.048     2.342     2.393
    53   1 H        0.926     0.048     2.347     2.395
    54   1 H        0.926     0.049     2.334     2.389
    55   1 H        0.926     0.047     2.358     2.401
    56   1 H        0.926     0.046     2.364     2.405
    57   1 H        0.926     0.044     2.402     2.424
    58   1 H        0.926     0.048     2.345     2.395
    59   1 H        0.926     0.049     2.334     2.389
    60   1 H        0.926     0.047     2.361     2.403
    61   1 H        0.926     0.046     2.369     2.407
    62   1 H        0.926     0.043     2.408     2.427
    63   1 H        0.926     0.048     2.344     2.394
    64   1 H        0.926     0.044     2.400     2.422
    65   1 H        0.926     0.027     2.631     2.536
    66   1 H        0.925     0.029     2.594     2.519
    67   1 H        0.926     0.044     2.399     2.422
    68   1 H        0.926     0.048     2.344     2.394
    69   1 H        0.926     0.043     2.403     2.424
    70   1 H        0.926     0.046     2.365     2.405
    71   1 H        0.926     0.047     2.358     2.401
    72   1 H        0.926     0.049     2.334     2.389
    73   1 H        0.926     0.048     2.346     2.395
    74   1 H        0.926     0.043     2.410     2.428
    75   1 H        0.926     0.046     2.370     2.408
    76   1 H        0.926     0.047     2.362     2.403
    77   1 H        0.926     0.049     2.334     2.389
    78   1 H        0.926     0.048     2.344     2.394
    79   1 H        0.926     0.048     2.342     2.393
    80   1 H        0.926     0.044     2.394     2.420

molecular dipole:
                 x           y           z       tot (Debye)
 q only:       -0.010       1.977      -2.931
   full:       -0.011       1.955      -2.898       8.886

 projected vibrational frequencies (cm⁻¹)
eigval :       -0.00    -0.00    -0.00     0.00     0.00     0.00
eigval :        4.53     8.63    11.10    18.22    21.52    37.67
eigval :       38.53    44.52    46.45    52.18    54.77    61.04
eigval :       65.51    70.78    75.54    86.48    87.42   109.18
eigval :      111.43   147.77   151.55   155.83   164.09   195.92
eigval :      210.99   217.49   229.05   230.89   234.87   240.64
eigval :      261.04   280.66   288.67   310.90   314.20   325.35
eigval :      337.73   370.59   373.10   374.56   376.26   377.25
eigval :      382.76   383.65   392.48   395.05   396.48   412.26
eigval :      421.56   432.36   454.93   475.46   485.35   487.07
eigval :      509.43   517.78   545.22   549.34   574.83   580.15
eigval :      583.51   584.52   588.46   590.58   595.55   597.20
eigval :      603.84   608.79   609.55   636.85   637.96   656.54
eigval :      657.77   660.41   662.55   678.87   691.09   693.56
eigval :      703.42   725.29   750.05   752.89   757.29   758.57
eigval :      766.13   813.41   814.99   819.91   850.80   860.53
eigval :      863.21   864.17   866.49   869.57   871.39   880.60
eigval :      892.94   895.14   898.55   899.95   906.19   907.55
eigval :      907.82   910.69   912.22   917.34   919.50   921.23
eigval :      923.15   925.30   925.75   927.22   928.64   930.17
eigval :      930.80   931.39   937.78   938.82   949.95   981.02
eigval :      983.67   999.81  1000.11  1000.62  1016.57  1018.27
eigval :     1077.36  1078.23  1079.00  1079.14  1118.87  1120.08
eigval :     1121.26  1123.27  1134.10  1135.42  1138.89  1159.70
eigval :     1164.48  1172.12  1172.65  1174.59  1175.14  1178.53
eigval :     1178.68  1180.83  1187.88  1189.11  1190.96  1198.05
eigval :     1211.39  1218.37  1256.13  1259.36  1260.99  1267.40
eigval :     1269.95  1271.02  1271.77  1274.83  1275.61  1294.86
eigval :     1295.13  1303.08  1303.63  1315.27  1315.62  1324.01
eigval :     1324.18  1325.66  1327.35  1336.39  1394.99  1407.88
eigval :     1410.60  1428.53  1429.46  1435.47  1436.19  1443.00
eigval :     1448.91  1449.07  1449.88  1450.25  1451.50  1455.26
eigval :     1455.65  1477.35  1515.18  1517.73  1523.82  1554.46
eigval :     1556.87  1560.56  1561.11  1564.57  1565.05  1574.49
eigval :     1574.70  1581.59  1582.39  1588.35  3062.65  3065.15
eigval :     3074.00  3077.09  3080.50  3080.68  3081.53  3081.86
eigval :     3082.35  3082.64  3082.80  3083.05  3083.54  3083.55
eigval :     3084.19  3084.41  3090.62  3090.85  3091.18  3091.69
eigval :     3091.92  3091.93  3093.38  3093.76  3094.30  3094.44
eigval :     3095.35  3095.41  3101.28  3101.66  3101.69  3102.28

   temp. (K)  partition function   enthalpy   heat capacity  entropy
                                   cal/mol     cal/K/mol   cal/K/mol   J/K/mol
 298.15  VIB  0.728E+20            23552.611    145.339    150.103
         ROT  0.685E+08              888.752      2.981     38.837
         INT  0.499E+28            24441.363    148.320    188.940
         TR   0.150E+29             1481.254      4.968     45.140
         TOT                       25922.6173   153.2878   234.0792   979.3875

       T/K    H(0)-H(T)+PV         H(T)/Eh          T*S/Eh         G(T)/Eh
   ------------------------------------------------------------------------
    298.15    0.413103E-01    0.654371E+00    0.111219E+00    0.543152E+00
   ------------------------------------------------------------------------

         :::::::::::::::::::::::::::::::::::::::::::::::::::::
         ::                  THERMODYNAMIC                  ::
         :::::::::::::::::::::::::::::::::::::::::::::::::::::
         :: total free energy        -123.932259474659 Eh   ::
         ::.................................................::
         :: total energy             -124.475411686163 Eh   ::
         :: zero point energy           0.613060490186 Eh   ::
         :: G(RRHO) w/o ZPVE           -0.069908278683 Eh   ::
         :: G(RRHO) contrib.            0.543152211504 Eh   ::
         :::::::::::::::::::::::::::::::::::::::::::::::::::::

           -------------------------------------------------
          | TOTAL ENERGY             -124.475411686163 Eh   |
          | TOTAL ENTHALPY           -123.821040875719 Eh   |
          | TOTAL FREE ENERGY        -123.932259474659 Eh   |
          | GRADIENT NORM               0.000075067712 Eh/α |
          | HOMO-LUMO GAP               0.674309293597 eV   |
           -------------------------------------------------

 * finished run on 2025/08/22 at 19:50:03.905
