   * xtb version 6.7.1 (edcfbbe) compiled by 'albert@albert-system' on 2024-07-22

   ID    Z sym.   atoms
    1    8 O      1, 8
    2    6 C      2-7, 9-12, 14-33, 35-48
    3    7 N      13, 34
    4    1 H      49-80

          program call               : xtb data2507/toluene/p-DTPACO/p-DTPACO_toluene_T1_crest.xyz --gfn 2 --uhf 2 --gbsa toluene --ohess vtight --parallel 40 --molden --ceasefiles --namespace data2507/toluene/p-DTPACO/p-DTPACO_toluene_T1_finalOpt
      * Solvation model:               GBSA
        Solvent                        toluene
        Solvent mass                       9.2140E+01 g/mol
          :  Hamiltonian                  GFN2-xTB          :
 * total energy  :  -124.4752558 Eh     change       -0.5066227E-08 Eh
 * total energy  :  -124.4754645 Eh     change       -0.2087059E-03 Eh
 * total energy  :  -124.4755136 Eh     change       -0.4911624E-04 Eh
 * total energy  :  -124.4755243 Eh     change       -0.1071258E-04 Eh
 * total energy  :  -124.4755323 Eh     change       -0.8022311E-05 Eh
 * total energy  :  -124.4755388 Eh     change       -0.6461734E-05 Eh
 * total energy  :  -124.4755419 Eh     change       -0.3125671E-05 Eh
 * total energy  :  -124.4755439 Eh     change       -0.1933755E-05 Eh
 * total energy  :  -124.4755458 Eh     change       -0.1968906E-05 Eh
 * total energy  :  -124.4755478 Eh     change       -0.1932186E-05 Eh
 * total energy  :  -124.4755750 Eh     change       -0.9238072E-06 Eh
 * total energy  :  -124.4755760 Eh     change       -0.9895406E-06 Eh
 * total energy  :  -124.4755767 Eh     change       -0.7462155E-06 Eh
 * total energy  :  -124.4755773 Eh     change       -0.5974518E-06 Eh
 * total energy  :  -124.4755779 Eh     change       -0.6110241E-06 Eh
 * total energy  :  -124.4755786 Eh     change       -0.7057385E-06 Eh
 * total energy  :  -124.4755794 Eh     change       -0.7365156E-06 Eh
 * total energy  :  -124.4755800 Eh     change       -0.6056155E-06 Eh
 * total energy  :  -124.4755800 Eh     change       -0.2766711E-08 Eh
   *** GEOMETRY OPTIMIZATION CONVERGED AFTER 44 ITERATIONS ***

 final structure:
================
80
 xtb: 6.7.1 (edcfbbe)
O            2.18720467486818        2.89909988132233        1.51812360377377
C            2.28175573484283        1.69659912118411        1.17914039745330
C            1.14620584745891        0.80724803181666        1.14417200039238
C            1.26363192324991       -0.59936706500925        1.15637288287445
C            0.15253218514714       -1.39419458931096        1.15901951950971
C           -1.14967537727605       -0.84772756642738        1.12172537680417
C           -2.28593898765196       -1.73682757282741        1.13194474453374
O           -2.19357009189155       -2.94797702865581        1.43862525306895
C           -3.61627740381187       -1.20761569986497        0.75371142651442
C           -4.75446897548248       -1.70246930678775        1.40015272308339
C           -6.01253205259932       -1.26666196192280        1.05537382131716
C           -6.17746347497722       -0.33727716073072        0.02104779240525
N           -7.44898522287406        0.11225519459487       -0.33683964892052
C           -8.53512175901889       -0.76444159873410       -0.30440952401682
C           -9.79950002928868       -0.31020756910942        0.08209183180030
C          -10.86940392108704       -1.18225812621612        0.11265846100060
C          -10.70021893615035       -2.51405944643994       -0.23625228369580
C           -9.44733825774964       -2.97033884820332       -0.61845065669332
C           -8.37020658252387       -2.10734056585086       -0.65580777956554
C           -7.63123089445461        1.44064314867004       -0.72941260026761
C           -8.53637723239310        1.76158472743849       -1.74474630315396
C           -8.71192590692851        3.07720907651824       -2.12551584404773
C           -7.99192223015941        4.08907244235555       -1.50795525249772
C           -7.09013984017607        3.77541383509077       -0.50171498915407
C           -6.90760265207069        2.46390229892199       -0.11075276923379
C           -5.04570576776049        0.12498052349221       -0.66200392653137
C           -3.78922250939074       -0.30849390866333       -0.30435629249204
C           -1.26711774975049        0.55806517724697        1.17141124628958
C           -0.15607386752152        1.35250699111938        1.19558708199871
C            3.61350388913427        1.18038775477243        0.78874303255164
C            3.79074782507288        0.30615523125688       -0.28936073320394
C            5.04932796899091       -0.11353877161875       -0.65613090044381
C            6.17879492038584        0.33829793159058        0.03757105885442
N            7.45259263059958       -0.09693751236049       -0.32990251780130
C            8.53355416575694        0.78527216344747       -0.27928751672746
C            8.36038971280893        2.13391252848222       -0.60370695318858
C            9.43205458327932        3.00272597118454       -0.54820202945671
C           10.68749142950174        2.54661172519330       -0.17426040481740
C           10.86483505245469        1.20912298020618        0.14780662724837
C            9.80045901852078        0.33110930032568        0.09888330899132
C            7.64217842054882       -1.41569236685016       -0.75000846269258
C            6.92354585713843       -2.45552658069975       -0.15354971889121
C            7.11328260910377       -3.75753037372016       -0.57190304847354
C            8.01728766107184       -4.04518935031695       -1.58391665756373
C            8.73242090139420       -3.01677188707720       -2.17943073204821
C            8.54981401708807       -1.71042538030304       -1.77108021428725
C            6.00959271146360        1.24372711115752        1.09228468952416
C            4.74952350290071        1.66569755166363        1.44643696295558
H            2.24343876540927       -1.05276191651307        1.20110074785943
H            0.24205424383045       -2.47164639875289        1.18209796550834
H           -4.61922280812649       -2.42017834851229        2.19604858355726
H           -6.87730203949751       -1.62525854083334        1.59364062297981
H           -9.92762337614023        0.72146630241562        0.37354367353564
H          -11.83985726286194       -0.82274328536803        0.42019954319509
H          -11.53890988389280       -3.19270841835638       -0.20985472902509
H           -9.30933060626112       -4.00395256952094       -0.89826818898513
H           -7.39878666256126       -2.45898118940849       -0.97009048647786
H           -9.08282649306989        0.97238706291793       -2.23905402247789
H           -9.40802693475334        3.31383531669120       -2.91614277468217
H           -8.13151585415584        5.11593564395721       -1.80917337703086
H           -6.53081212269332        4.55852461247948       -0.01210782247404
H           -6.21836801014628        2.22127373744412        0.68437277800835
H           -5.16616824542860        0.80914819215585       -1.48895994020806
H           -2.92851463346857        0.02899932113559       -0.86214400974914
H           -2.24696824225674        1.01007127145897        1.22776970263062
H           -0.24558850224238        2.42897469980151        1.24717350471957
H            2.93194087085552       -0.02193442324245       -0.85557973438339
H            5.17332125450948       -0.77782869922090       -1.49867144143683
H            7.38694390099947        2.48565448536929       -0.91152804478719
H            9.28767838786790        4.04100901374716       -0.80671647489727
H           11.52183123678285        3.22987931981484       -0.13331303174674
H           11.83734526781135        0.84964053540714        0.44881478467665
H            9.93486065636831       -0.70538616460036        0.36964464006882
H            6.23259901668715       -2.23333637956966        0.64604779402855
H            6.55783930888869       -4.55368245497788       -0.09918751647198
H            8.16238669329764       -5.06473152138306       -1.90663212163846
H            9.43029520615099       -3.23302483403515       -2.97430832520298
H            9.09248673876980       -0.90805450816598       -2.24809435170747
H            6.87273873522109        1.59425190436807        1.63846147957984
H            4.61060589850727        2.36503243414027        2.25789070854998

          :  Hamiltonian                  GFN2-xTB          :
         :: gradient norm              0.000044019553 Eh/a0 ::
         :: HOMO-LUMO gap              0.712891307571 eV    ::
         :: SCC energy              -126.703046253696 Eh    ::
         :: -> dispersion             -0.105297353031 Eh    ::
         :: -> Gsolv                  -0.076015669895 Eh    ::
         :: repulsion energy           2.227466259914 Eh    ::

    * Orbital Energies and Occupations

         #    Occupation            Energy/Eh            Energy/eV
      -------------------------------------------------------------
         1        2.0000           -0.6863431             -18.6763
       ...           ...                  ...                  ...
       104        2.0000           -0.4189452             -11.4001
       105        2.0000           -0.4176618             -11.3652
       106        2.0000           -0.4166510             -11.3376
       107        2.0000           -0.4152806             -11.3004
       108        2.0000           -0.4151893             -11.2979
       109        2.0000           -0.4085399             -11.1169
       110        2.0000           -0.3987553             -10.8507
       111        2.0000           -0.3915856             -10.6556
       112        1.9986           -0.3733904             -10.1605
       113        1.9712           -0.3705038             -10.0819
       114        1.5545           -0.3673704              -9.9967
       115        1.4758           -0.3670705              -9.9885
       116        1.0000           -0.2895331              -7.8786 (HOMO)
       117        0.0000           -0.2633350              -7.1657 (LUMO)
       118                         -0.2462009              -6.6995
       119                         -0.2461957              -6.6993
       120                         -0.2425637              -6.6005
       121                         -0.2400920              -6.5332
       122                         -0.2400808              -6.5329
       123                         -0.2351402              -6.3985
       124                         -0.2350452              -6.3959
       125                         -0.2325795              -6.3288
       126                         -0.2324899              -6.3264
       127                         -0.2238254              -6.0906
       ...                                ...                  ...
       224                          0.6820667              18.5600
      -------------------------------------------------------------
                  HL-Gap            0.0261982 Eh            0.7129 eV

     #   Z          covCN         q      C6AA      α(0)
     1   8 O        0.858    -0.506    23.909     6.556
     2   6 C        2.831     0.188    23.989     8.026
     3   6 C        2.968    -0.032    28.787     8.801
     4   6 C        2.915    -0.041    29.019     8.834
     5   6 C        2.920    -0.030    28.738     8.791
     6   6 C        2.968    -0.032    28.789     8.801
     7   6 C        2.831     0.188    23.986     8.025
     8   8 O        0.858    -0.505    23.905     6.555
     9   6 C        2.970    -0.007    28.201     8.711
    10   6 C        2.922    -0.021    28.524     8.758
    11   6 C        2.918    -0.041    29.024     8.834
    12   6 C        2.926     0.060    26.648     8.466
    13   7 N        2.753    -0.025    21.724     6.922
    14   6 C        2.925     0.064    26.565     8.452
    15   6 C        2.921    -0.040    28.992     8.830
    16   6 C        2.918    -0.024    28.615     8.772
    17   6 C        2.919    -0.028    28.690     8.784
    18   6 C        2.918    -0.024    28.607     8.771
    19   6 C        2.921    -0.039    28.973     8.827
    20   6 C        2.926     0.064    26.571     8.453
    21   6 C        2.921    -0.040    28.989     8.829
    22   6 C        2.918    -0.024    28.615     8.772
    23   6 C        2.919    -0.028    28.690     8.784
    24   6 C        2.918    -0.024    28.606     8.771
    25   6 C        2.921    -0.039    28.971     8.827
    26   6 C        2.918    -0.041    29.021     8.834
    27   6 C        2.919    -0.030    28.737     8.791
    28   6 C        2.915    -0.041    29.018     8.833
    29   6 C        2.920    -0.030    28.738     8.791
    30   6 C        2.970    -0.007    28.201     8.711
    31   6 C        2.919    -0.030    28.739     8.791
    32   6 C        2.918    -0.041    29.021     8.834
    33   6 C        2.926     0.060    26.649     8.466
    34   7 N        2.753    -0.025    21.724     6.922
    35   6 C        2.925     0.064    26.565     8.452
    36   6 C        2.921    -0.039    28.972     8.827
    37   6 C        2.918    -0.024    28.607     8.771
    38   6 C        2.919    -0.028    28.690     8.784
    39   6 C        2.918    -0.024    28.615     8.772
    40   6 C        2.921    -0.040    28.992     8.830
    41   6 C        2.926     0.064    26.570     8.453
    42   6 C        2.921    -0.039    28.972     8.827
    43   6 C        2.918    -0.024    28.605     8.771
    44   6 C        2.919    -0.028    28.690     8.784
    45   6 C        2.918    -0.024    28.615     8.772
    46   6 C        2.921    -0.040    28.990     8.829
    47   6 C        2.918    -0.041    29.023     8.834
    48   6 C        2.922    -0.021    28.524     8.758
    49   1 H        0.926     0.027     2.634     2.538
    50   1 H        0.925     0.029     2.596     2.520
    51   1 H        0.926     0.044     2.400     2.423
    52   1 H        0.926     0.049     2.338     2.391
    53   1 H        0.926     0.048     2.348     2.396
    54   1 H        0.926     0.049     2.334     2.389
    55   1 H        0.926     0.047     2.358     2.401
    56   1 H        0.926     0.047     2.364     2.404
    57   1 H        0.926     0.044     2.400     2.423
    58   1 H        0.926     0.048     2.344     2.394
    59   1 H        0.926     0.049     2.333     2.389
    60   1 H        0.926     0.047     2.361     2.403
    61   1 H        0.926     0.046     2.370     2.407
    62   1 H        0.926     0.043     2.411     2.428
    63   1 H        0.926     0.048     2.340     2.392
    64   1 H        0.926     0.044     2.398     2.422
    65   1 H        0.926     0.027     2.636     2.539
    66   1 H        0.925     0.029     2.596     2.519
    67   1 H        0.926     0.044     2.398     2.421
    68   1 H        0.926     0.048     2.340     2.392
    69   1 H        0.926     0.044     2.400     2.423
    70   1 H        0.926     0.047     2.364     2.404
    71   1 H        0.926     0.047     2.358     2.401
    72   1 H        0.926     0.049     2.334     2.389
    73   1 H        0.926     0.048     2.348     2.396
    74   1 H        0.926     0.043     2.411     2.428
    75   1 H        0.926     0.046     2.370     2.407
    76   1 H        0.926     0.047     2.361     2.403
    77   1 H        0.926     0.049     2.333     2.389
    78   1 H        0.926     0.048     2.344     2.394
    79   1 H        0.926     0.049     2.338     2.391
    80   1 H        0.926     0.044     2.399     2.422

molecular dipole:
                 x           y           z       tot (Debye)
 q only:        0.006       0.050      -2.858
   full:        0.006       0.050      -2.824       7.179

 projected vibrational frequencies (cm⁻¹)
eigval :       -0.00    -0.00     0.00     0.00     0.00     0.00
eigval :        6.20     6.51     8.80    18.43    19.33    38.16
eigval :       40.17    44.90    46.05    51.60    53.64    60.64
eigval :       63.86    72.13    76.89    82.07    85.99   107.72
eigval :      108.61   145.48   151.48   154.74   164.27   197.49
eigval :      211.21   216.04   226.77   231.36   234.21   241.14
eigval :      260.33   278.85   290.15   310.74   313.93   324.82
eigval :      337.54   370.32   372.27   373.54   376.09   377.65
eigval :      381.85   382.49   389.75   392.66   394.46   411.87
eigval :      421.43   429.54   454.02   476.23   484.98   489.63
eigval :      509.61   518.98   545.11   549.89   575.48   580.32
eigval :      583.07   584.05   588.30   590.50   595.91   596.19
eigval :      602.87   609.21   609.62   636.87   637.30   657.00
eigval :      657.75   660.87   662.71   678.83   691.08   694.15
eigval :      703.13   725.82   754.79   756.73   757.60   760.76
eigval :      766.57   811.99   814.53   818.71   848.73   858.71
eigval :      863.15   868.06   868.82   871.06   874.69   880.41
eigval :      897.23   898.43   899.67   902.05   906.81   907.94
eigval :      908.22   909.75   913.50   918.23   921.33   925.06
eigval :      926.65   927.80   929.29   930.09   930.59   930.61
eigval :      931.03   934.83   934.90   936.80   949.76   980.82
eigval :      983.55   999.39  1000.12  1000.24  1016.72  1018.20
eigval :     1078.16  1078.52  1079.24  1079.52  1119.75  1120.12
eigval :     1121.96  1122.20  1135.14  1136.69  1139.52  1161.66
eigval :     1165.32  1172.62  1172.83  1174.95  1175.34  1176.90
eigval :     1178.18  1181.24  1189.42  1190.04  1191.56  1199.08
eigval :     1212.02  1218.54  1257.96  1258.86  1261.07  1266.90
eigval :     1271.52  1271.90  1272.04  1275.51  1276.78  1294.60
eigval :     1295.09  1303.38  1303.56  1314.93  1315.26  1323.86
eigval :     1323.94  1324.98  1326.76  1336.08  1395.70  1407.30
eigval :     1409.96  1428.72  1428.94  1435.49  1435.86  1446.16
eigval :     1448.35  1449.46  1450.58  1450.84  1451.87  1455.70
eigval :     1456.00  1475.13  1516.63  1519.28  1523.48  1554.76
eigval :     1557.51  1560.88  1560.93  1564.98  1565.07  1574.96
eigval :     1575.14  1582.22  1582.91  1589.47  3063.93  3065.02
eigval :     3074.44  3077.10  3081.15  3081.59  3082.26  3082.30
eigval :     3082.44  3082.67  3083.16  3083.34  3083.40  3083.46
eigval :     3083.95  3083.97  3090.66  3090.74  3091.48  3091.53
eigval :     3092.07  3092.26  3093.64  3093.89  3093.98  3094.06
eigval :     3094.85  3094.91  3101.33  3101.65  3101.78  3102.28

   temp. (K)  partition function   enthalpy   heat capacity  entropy
                                   cal/mol     cal/K/mol   cal/K/mol   J/K/mol
 298.15  VIB  0.106E+21            23576.673    145.260    150.618
         ROT  0.677E+08              888.752      2.981     38.812
         INT  0.716E+28            24465.425    148.241    189.430
         TR   0.150E+29             1481.254      4.968     45.140
         TOT                       25946.6788   153.2090   234.5695   981.4389

       T/K    H(0)-H(T)+PV         H(T)/Eh          T*S/Eh         G(T)/Eh
   ------------------------------------------------------------------------
    298.15    0.413487E-01    0.654508E+00    0.111452E+00    0.543056E+00
   ------------------------------------------------------------------------

         :::::::::::::::::::::::::::::::::::::::::::::::::::::
         ::                  THERMODYNAMIC                  ::
         :::::::::::::::::::::::::::::::::::::::::::::::::::::
         :: total free energy        -123.932523886398 Eh   ::
         ::.................................................::
         :: total energy             -124.475579989859 Eh   ::
         :: zero point energy           0.613158984904 Eh   ::
         :: G(RRHO) w/o ZPVE           -0.070102881443 Eh   ::
         :: G(RRHO) contrib.            0.543056103461 Eh   ::
         :::::::::::::::::::::::::::::::::::::::::::::::::::::

           -------------------------------------------------
          | TOTAL ENERGY             -124.475579989859 Eh   |
          | TOTAL ENTHALPY           -123.821072340280 Eh   |
          | TOTAL FREE ENERGY        -123.932523886398 Eh   |
          | GRADIENT NORM               0.000042872933 Eh/α |
          | HOMO-LUMO GAP               0.712888172371 eV   |
           -------------------------------------------------

 * finished run on 2025/08/22 at 20:00:57.037
