   * xtb version 6.7.1 (edcfbbe) compiled by 'albert@albert-system' on 2024-07-22

   ID    Z sym.   atoms
    1    6 C      1-25, 28-39, 42
    2    7 N      26, 27, 40, 41
    3    1 H      43-66

          program call               : xtb data2507/gas/BPy-TP2/BPy-TP2.xyz --gfn 2 --ohess vtight --parallel 40 --molden --ceasefiles --namespace data2507/gas/BPy-TP2/BPy-TP2_gas_S0_preOpt
          :  Hamiltonian                  GFN2-xTB          :
 * total energy  :  -105.2873590 Eh     change       -0.2366676E-08 Eh
 * total energy  :  -105.3022648 Eh     change       -0.1490584E-01 Eh
 * total energy  :  -105.3063196 Eh     change       -0.4054705E-02 Eh
 * total energy  :  -105.3075738 Eh     change       -0.1254230E-02 Eh
 * total energy  :  -105.3087591 Eh     change       -0.1185309E-02 Eh
 * total energy  :  -105.3091145 Eh     change       -0.3554495E-03 Eh
 * total energy  :  -105.3092510 Eh     change       -0.1364121E-03 Eh
 * total energy  :  -105.3093935 Eh     change       -0.1425710E-03 Eh
 * total energy  :  -105.3095469 Eh     change       -0.1533984E-03 Eh
 * total energy  :  -105.3097328 Eh     change       -0.1858425E-03 Eh
 * total energy  :  -105.3102733 Eh     change       -0.5004784E-06 Eh
 * total energy  :  -105.3102735 Eh     change       -0.1481600E-06 Eh
 * total energy  :  -105.3102737 Eh     change       -0.2706690E-06 Eh
 * total energy  :  -105.3102744 Eh     change       -0.6563040E-06 Eh
 * total energy  :  -105.3102747 Eh     change       -0.2787669E-06 Eh
 * total energy  :  -105.3102749 Eh     change       -0.1976086E-06 Eh
 * total energy  :  -105.3102751 Eh     change       -0.2697424E-06 Eh
 * total energy  :  -105.3102754 Eh     change       -0.2516770E-06 Eh
 * total energy  :  -105.3102754 Eh     change       -0.4735523E-07 Eh
   *** GEOMETRY OPTIMIZATION CONVERGED AFTER 51 ITERATIONS ***

 final structure:
================
66
 xtb: 6.7.1 (edcfbbe)
C           11.92025894215656        0.47108027336897       -0.15350220094011
C           11.21496289549944       -0.51655074101089       -0.82538106475564
C            9.83343579937274       -0.48353354308100       -0.80032304692677
C            9.19961855983169        0.54389508991879       -0.09847895092934
C            7.73534857799730        0.62046590663519       -0.04439774974225
C            7.09566377821695        1.64912482718942        0.65017376715291
C            5.71666447997653        1.67512467071523        0.68193063074381
C            4.99520481488666        0.67973982547727        0.02092472681986
C            3.53053927342447        0.65618230108532        0.02066448154918
C            2.79576733392301        1.83900186098925       -0.10085422631648
C            1.42500847564632        1.79972883501426       -0.11209224635469
C            0.71248288771505        0.59680501420895        0.00448961232673
C           -0.73581208708790        0.56469720846917       -0.01310994508146
C           -1.49825277522065        1.73592203970615       -0.13749540065638
C           -2.86924273910547        1.71432812618771       -0.16407445582513
C           -3.55275758211360        0.49829901734753       -0.07637070823576
C           -5.01652178148526        0.45455180074719       -0.11468128295362
C           -5.70705601502000       -0.53795199962345       -0.81215450570174
C           -7.08650885005595       -0.53072634727653       -0.81577330214319
C           -7.75759168834971        0.47698447802641       -0.12007722598390
C           -9.22372369246347        0.53240578240067       -0.10406994579586
C           -9.89149289288131        1.53579226150039        0.60093376130518
C          -11.27355773387091        1.54941879044376        0.58728021401342
C          -11.94564268684456        0.56697559267953       -0.12500832508681
C          -11.19070490302679       -0.38721022612949       -0.79219553764807
N           -9.87288980921544       -0.41004067091262       -0.78644804187816
N           -7.10413839265427        1.42415301880962        0.55228925346222
C           -5.78967942641871        1.40856984360008        0.55229284390657
C           -2.81518333830695       -0.66468849801268        0.05078606205101
C           -1.41697118145239       -0.66795406669839        0.09184945011098
C           -0.66545364946717       -1.90255211036946        0.23954989539684
C           -1.30759761161561       -3.14268669388567        0.36354890201862
C           -0.60353613009082       -4.31418888764162        0.50599485698846
C            0.78450158169738       -4.28241760101967        0.53102824015921
C            1.43903824506475       -3.07995635878884        0.41214773726895
C            0.74563311126212       -1.87050751139668        0.26366620802626
C            1.44504305944629       -0.60354972698476        0.13520957135353
C            2.84234239549962       -0.53802199113758        0.13554492245744
C            5.73855700162308       -0.29389269997072       -0.65185157844161
N            7.05210858649901       -0.32803357147856       -0.68456844889663
N            9.88056047933081        1.49065122474530        0.54576371728862
C           11.19761689451749        1.44922567305389        0.51475785567333
H           12.99916988862264        0.48338104520589       -0.14740936005987
H           11.73678388791484       -1.29816075667564       -1.35932631461322
H            9.23096048048281       -1.22199918725900       -1.30338840204432
H            7.69408664850283        2.39312909161998        1.14999455853661
H            5.19511769696977        2.44630800986019        1.23130556513636
H            3.30974459267689        2.78250019706839       -0.21109103850752
H            0.89758120864008        2.73341182926957       -0.21869696988168
H           -1.01052106976300        2.69343114493932       -0.21835724909255
H           -3.42289696171327        2.63442147394867       -0.27804602681655
H           -5.16104099761041       -1.29117534364637       -1.36299082311971
H           -7.66189585298157       -1.27279430014193       -1.34469896746147
H           -9.31402710474171        2.27158036368766        1.13622862248200
H          -11.82129551994737        2.31240744731276        1.12219589546380
H          -13.02365830971958        0.54054816141659       -0.16269762450274
H          -11.66562183493093       -1.17602500862048       -1.36231551671649
H           -5.31697099594353        2.19119994261705        1.13279096834766
H           -3.36043846962672       -1.58979441704834        0.14152111145381
H           -2.38357146689426       -3.20116940142080        0.35217311928551
H           -1.12841099775255       -5.25336183575080        0.59943720371388
H            1.34798308842223       -5.19666030287328        0.64439626022127
H            2.51626465440703       -3.08899977687255        0.43856732891310
H            3.42606417176091       -1.43656469230761        0.24891485421277
H            5.24121822700308       -1.07706183805605       -1.21093063032915
H           11.69933082938280        2.24278993682673        1.05450391559605

          :  Hamiltonian                  GFN2-xTB          :
         :: gradient norm              0.000106290794 Eh/a0 ::
         :: HOMO-LUMO gap              2.175819943220 eV    ::
         :: SCC energy              -107.255812801762 Eh    ::
         :: -> dispersion             -0.086456856487 Eh    ::
         :: repulsion energy           1.945537356097 Eh    ::

    * Orbital Energies and Occupations

         #    Occupation            Energy/Eh            Energy/eV
      -------------------------------------------------------------
         1        2.0000           -0.6632744             -18.0486
       ...           ...                  ...                  ...
        86        2.0000           -0.4256770             -11.5833
        87        2.0000           -0.4219838             -11.4828
        88        2.0000           -0.4110788             -11.1860
        89        2.0000           -0.4095608             -11.1447
        90        2.0000           -0.4041946             -10.9987
        91        2.0000           -0.3957480             -10.7689
        92        2.0000           -0.3933702             -10.7041
        93        2.0000           -0.3851879             -10.4815
        94        2.0000           -0.3787498             -10.3063
        95        2.0000           -0.3736662             -10.1680
        96        2.0000           -0.3723629             -10.1325
        97        2.0000           -0.3620597              -9.8521
        98        2.0000           -0.3614962              -9.8368 (HOMO)
        99                         -0.2815363              -7.6610 (LUMO)
       100                         -0.2734216              -7.4402
       101                         -0.2604121              -7.0862
       102                         -0.2554988              -6.9525
       103                         -0.2439754              -6.6389
       104                         -0.2439618              -6.6385
       105                         -0.2425383              -6.5998
       106                         -0.2398735              -6.5273
       107                         -0.2377669              -6.4700
       108                         -0.2166632              -5.8957
       109                         -0.2053723              -5.5885
       ...                                ...                  ...
       192                          0.7236753              19.6922
      -------------------------------------------------------------
                  HL-Gap            0.0799599 Eh            2.1758 eV

     #   Z          covCN         q      C6AA      α(0)
     1   6 C        2.914    -0.040    28.989     8.829
     2   6 C        2.927    -0.011    28.292     8.723
     3   6 C        2.919    -0.038    28.935     8.821
     4   6 C        2.968     0.090    25.996     8.363
     5   6 C        2.968     0.087    26.061     8.374
     6   6 C        2.916    -0.038    28.954     8.824
     7   6 C        2.931    -0.017    28.438     8.746
     8   6 C        2.973    -0.000    28.035     8.685
     9   6 C        2.974     0.006    27.874     8.660
    10   6 C        2.921    -0.035    28.880     8.813
    11   6 C        2.921    -0.036    28.894     8.815
    12   6 C        2.979     0.006    27.890     8.663
    13   6 C        2.979     0.006    27.890     8.663
    14   6 C        2.921    -0.035    28.883     8.813
    15   6 C        2.921    -0.036    28.899     8.816
    16   6 C        2.974     0.006    27.873     8.660
    17   6 C        2.973    -0.000    28.035     8.685
    18   6 C        2.931    -0.018    28.449     8.747
    19   6 C        2.916    -0.038    28.956     8.824
    20   6 C        2.968     0.087    26.061     8.374
    21   6 C        2.968     0.090    25.996     8.363
    22   6 C        2.919    -0.038    28.934     8.821
    23   6 C        2.927    -0.011    28.292     8.723
    24   6 C        2.914    -0.040    28.989     8.829
    25   6 C        2.907     0.061    26.639     8.463
    26   7 N        1.843    -0.233    26.944     7.693
    27   7 N        1.841    -0.233    26.954     7.694
    28   6 C        2.910     0.056    26.734     8.478
    29   6 C        2.929    -0.040    29.005     8.832
    30   6 C        2.978     0.007    27.870     8.660
    31   6 C        2.979     0.007    27.869     8.660
    32   6 C        2.923    -0.035    28.873     8.812
    33   6 C        2.917    -0.031    28.764     8.795
    34   6 C        2.917    -0.031    28.762     8.794
    35   6 C        2.923    -0.035    28.871     8.811
    36   6 C        2.979     0.007    27.868     8.659
    37   6 C        2.978     0.007    27.861     8.658
    38   6 C        2.929    -0.041    29.025     8.835
    39   6 C        2.910     0.056    26.744     8.480
    40   7 N        1.842    -0.233    26.958     7.695
    41   7 N        1.842    -0.233    26.943     7.693
    42   6 C        2.907     0.061    26.639     8.463
    43   1 H        0.926     0.035     2.515     2.480
    44   1 H        0.926     0.036     2.505     2.475
    45   1 H        0.926     0.060     2.203     2.321
    46   1 H        0.926     0.060     2.200     2.320
    47   1 H        0.926     0.037     2.492     2.469
    48   1 H        0.926     0.032     2.555     2.500
    49   1 H        0.926     0.035     2.512     2.479
    50   1 H        0.926     0.035     2.509     2.477
    51   1 H        0.926     0.033     2.550     2.497
    52   1 H        0.926     0.036     2.500     2.473
    53   1 H        0.926     0.060     2.200     2.320
    54   1 H        0.926     0.060     2.203     2.321
    55   1 H        0.926     0.036     2.505     2.475
    56   1 H        0.926     0.035     2.515     2.480
    57   1 H        0.925     0.036     2.498     2.471
    58   1 H        0.925     0.037     2.484     2.465
    59   1 H        0.926     0.036     2.498     2.472
    60   1 H        0.926     0.033     2.539     2.492
    61   1 H        0.926     0.031     2.574     2.509
    62   1 H        0.926     0.031     2.571     2.507
    63   1 H        0.926     0.034     2.528     2.487
    64   1 H        0.926     0.037     2.496     2.470
    65   1 H        0.925     0.037     2.492     2.469
    66   1 H        0.925     0.036     2.497     2.471

molecular dipole:
                 x           y           z       tot (Debye)
 q only:        0.003      -0.070       0.016
   full:        0.003      -0.061       0.014       0.159

 projected vibrational frequencies (cm⁻¹)
eigval :       -0.00     0.00     0.00     0.00     0.00     0.00
eigval :        4.32    16.09    17.70    22.55    25.93    33.84
eigval :       36.36    44.23    59.80    61.24    77.83    84.04
eigval :      101.58   102.97   113.90   130.04   135.44   165.37
eigval :      173.73   199.67   236.94   245.24   251.42   256.53
eigval :      312.12   336.15   341.21   362.40   365.59   370.48
eigval :      371.82   373.64   382.59   384.13   386.99   408.36
eigval :      408.46   416.08   423.98   448.88   455.33   465.08
eigval :      483.52   514.54   529.35   531.48   539.42   560.69
eigval :      594.11   594.33   594.69   596.16   599.57   604.77
eigval :      609.91   621.84   623.87   660.28   678.29   688.23
eigval :      691.14   700.85   702.41   706.67   723.37   723.56
eigval :      748.17   763.23   766.53   768.97   775.20   775.30
eigval :      809.66   816.57   838.86   842.30   842.80   848.45
eigval :      857.58   860.47   867.08   894.75   894.81   899.88
eigval :      903.00   908.02   908.56   916.69   917.17   917.19
eigval :      925.06   931.58   932.02   936.77   936.79   960.30
eigval :      990.34   993.71  1010.77  1015.77  1030.15  1035.31
eigval :     1086.14  1086.16  1090.07  1090.15  1094.13  1097.68
eigval :     1120.50  1121.49  1124.53  1139.41  1140.82  1148.06
eigval :     1160.15  1160.22  1167.80  1174.94  1195.92  1228.66
eigval :     1239.70  1240.10  1246.36  1247.89  1257.60  1261.69
eigval :     1270.23  1278.41  1279.31  1286.14  1288.95  1294.57
eigval :     1295.37  1311.07  1311.61  1325.10  1327.81  1333.45
eigval :     1343.00  1364.30  1378.44  1382.87  1395.67  1408.62
eigval :     1410.81  1418.25  1421.18  1429.49  1440.23  1441.35
eigval :     1461.35  1463.25  1487.33  1496.20  1531.21  1537.14
eigval :     1541.95  1554.01  1560.61  1561.00  1565.53  1567.48
eigval :     1568.73  1580.51  1582.01  1589.53  1594.47  1605.31
eigval :     3045.65  3047.81  3048.62  3048.69  3067.46  3069.18
eigval :     3069.28  3069.62  3077.72  3082.02  3084.74  3087.58
eigval :     3093.81  3093.84  3102.91  3103.97  3104.97  3113.84
eigval :     3114.03  3115.06  3115.09  3116.86  3117.08  3118.65

   temp. (K)  partition function   enthalpy   heat capacity  entropy
                                   cal/mol     cal/K/mol   cal/K/mol   J/K/mol
 298.15  VIB  0.496E+16            18753.360    117.312    118.141
         ROT  0.765E+08              888.752      2.981     39.054
         INT  0.379E+24            19642.113    120.293    157.195
         TR   0.120E+29             1481.254      4.968     44.706
         TOT                       21123.3666   125.2610   201.9012   844.7548

       T/K    H(0)-H(T)+PV         H(T)/Eh          T*S/Eh         G(T)/Eh
   ------------------------------------------------------------------------
    298.15    0.336622E-01    0.532206E+00    0.959298E-01    0.436276E+00
   ------------------------------------------------------------------------

         :::::::::::::::::::::::::::::::::::::::::::::::::::::
         ::                  THERMODYNAMIC                  ::
         :::::::::::::::::::::::::::::::::::::::::::::::::::::
         :: total free energy        -104.873999322995 Eh   ::
         ::.................................................::
         :: total energy             -105.310275451301 Eh   ::
         :: zero point energy           0.498543699532 Eh   ::
         :: G(RRHO) w/o ZPVE           -0.062267571226 Eh   ::
         :: G(RRHO) contrib.            0.436276128306 Eh   ::
         :::::::::::::::::::::::::::::::::::::::::::::::::::::

           -------------------------------------------------
          | TOTAL ENERGY             -105.310275451301 Eh   |
          | TOTAL ENTHALPY           -104.778069524478 Eh   |
          | TOTAL FREE ENERGY        -104.873999322995 Eh   |
          | GRADIENT NORM               0.002879790868 Eh/α |
          | HOMO-LUMO GAP               2.175819770836 eV   |
           -------------------------------------------------

 * finished run on 2025/08/26 at 12:28:40.992
