   * xtb version 6.7.1 (edcfbbe) compiled by 'albert@albert-system' on 2024-07-22

   ID    Z sym.   atoms
    1    6 C      1-25, 28-39, 42
    2    7 N      26, 27, 40, 41
    3    1 H      43-66

          program call               : xtb data2507/gas/BPy-TP2/BPy-TP2_gas_T1_crest.xyz --gfn 2 --spinpol --tblite --uhf 2 --ohess vtight --parallel 40 --molden --ceasefiles --namespace data2507/gas/BPy-TP2/BPy-TP2_gas_T1_finalOpt
 * total energy  :  -105.2328909 Eh     change       -0.1368477E-08 Eh
 * total energy  :  -105.2329086 Eh     change       -0.1764324E-04 Eh
 * total energy  :  -105.2329221 Eh     change       -0.1347762E-04 Eh
 * total energy  :  -105.2329235 Eh     change       -0.1396338E-05 Eh
 * total energy  :  -105.2329242 Eh     change       -0.7124605E-06 Eh
 * total energy  :  -105.2329251 Eh     change       -0.8921307E-06 Eh
 * total energy  :  -105.2329259 Eh     change       -0.8175306E-06 Eh
 * total energy  :  -105.2329263 Eh     change       -0.4642936E-06 Eh
 * total energy  :  -105.2329269 Eh     change       -0.5199707E-06 Eh
 * total energy  :  -105.2329271 Eh     change       -0.2691776E-06 Eh
 * total energy  :  -105.2329273 Eh     change       -0.1871857E-06 Eh
 * total energy  :  -105.2329276 Eh     change       -0.2498059E-06 Eh
 * total energy  :  -105.2329277 Eh     change       -0.9584376E-07 Eh
   *** GEOMETRY OPTIMIZATION CONVERGED AFTER 13 ITERATIONS ***

 final structure:
================
66
 xtb: 6.7.1 (edcfbbe)
C           11.91867056318228        0.40850673156756       -0.45196719587554
C           11.16890821812452       -0.62558654291816       -1.01139746458535
C            9.79763780831104       -0.58754204846071       -0.92141829742445
C            9.18617015704303        0.49533970533631       -0.26401984717489
C            7.75022842104902        0.58015478616673       -0.15660992159448
C            7.12513590834299        1.66940861288482        0.48202565237072
C            5.76267398138797        1.68796927718122        0.60220518158220
C            4.98208778973004        0.63493125037779        0.07513873306583
C            3.54078400059012        0.61323257231601        0.14910740068797
C            2.79350504748493        1.80726173272836        0.18117451091100
C            1.43095757447004        1.77394867480766        0.22679548238276
C            0.70359025845306        0.56198594998351        0.25574986261539
C           -0.72346429370782        0.53238965649508        0.23398175414967
C           -1.49828604963046        1.71394098569160        0.18204994314352
C           -2.86008296389537        1.69202328309521        0.11159704578270
C           -3.55736011238457        0.46885048025377        0.06664480798679
C           -4.99601688144561        0.42617072233372       -0.04398252907412
C           -5.69113815166203       -0.63637242362309       -0.66343302503079
C           -7.05812892775437       -0.63374836386812       -0.71611881928158
C           -7.77135020980498        0.44863924775677       -0.16470941938662
C           -9.21058611920717        0.51550027962634       -0.23935191744090
C           -9.91319719875442        1.59411273052651        0.32734351125909
C          -11.28525308769726        1.61534077039891        0.24215534165238
C          -11.94547371741754        0.56867871143803       -0.40033843615022
C          -11.17275865567241       -0.45381690581369       -0.92984909656504
N           -9.86141040480324       -0.47703966212879       -0.85517279309956
N           -7.10746589701710        1.44170394780115        0.43938579642072
C           -5.80661272944039        1.44001900227694        0.50095663633736
C           -2.80318196535890       -0.70431772340034        0.13765856995141
C           -1.41805051551246       -0.70995175919247        0.23454938768237
C           -0.66623424264900       -1.95015063159704        0.34863821120976
C           -1.30915944200287       -3.18968857438531        0.45913233536248
C           -0.60626833458668       -4.36632561693614        0.58304380565691
C            0.77995050700895       -4.33635948320996        0.61217159133870
C            1.43585490593186       -3.13059489553263        0.51304536754720
C            0.74488100934506       -1.92048624559447        0.37172846549533
C            1.44798468274387       -0.65108101784829        0.27139670972125
C            2.83298258494149       -0.58966781542832        0.19397376184213
C            5.70497290106803       -0.38443503237487       -0.57360662197871
N            7.00292838925359       -0.40130790903644       -0.67637911452381
N            9.92266647821743        1.47531130607186        0.27004471799417
C           11.23245853167443        1.43606435483919        0.17747518366554
H           12.99570146188768        0.41234986322320       -0.49944559816122
H           11.66346577762202       -1.44636006315799       -1.51123717683921
H            9.16412671739890       -1.35226344671759       -1.34246558324257
H            7.75624803727068        2.44478364166581        0.88723970460058
H            5.27887837707974        2.49293680147152        1.13568551342947
H            3.30321280842047        2.75815049383695        0.13715616766302
H            0.90423785385233        2.71427190895662        0.23372679561242
H           -1.00962837783080        2.67452811527588        0.19042902489692
H           -3.40659016311079        2.62133103627108        0.05080559930104
H           -5.13506876266412       -1.43513417591775       -1.13215612579509
H           -7.62396013083207       -1.41697378935514       -1.19585484114904
H           -9.34750402220003        2.36947125473683        0.81951072431005
H          -11.84898535655449        2.43271746770993        0.66900994899084
H          -13.01968987841052        0.55147483856902       -0.49005738514954
H          -11.62743398407802       -1.29136502232580       -1.44371398930807
H           -5.36506130389650        2.26187767264954        1.04917732415738
H           -3.34262181061372       -1.63681852371922        0.13348379050081
H           -2.38554509146468       -3.24510374813548        0.46000885482556
H           -1.13353065338419       -5.30529273719976        0.66543237790356
H            1.34331906329250       -5.25155078659187        0.71920594978492
H            2.51263544813170       -3.13808584746929        0.56092637408332
H            3.40888456121734       -1.50022352089723        0.19108655990357
H            5.18817542539651       -1.19616740479262       -1.06891947784712
H           11.75928984922109        2.26424150750657        0.63445136379908

 projected vibrational frequencies (cm⁻¹)
eigval :       -0.00    -0.00    -0.00    -0.00     0.00     0.00
eigval :        0.91    16.96    18.85    21.98    29.83    38.39
eigval :       40.98    48.47    68.39    70.25    72.96    89.26
eigval :       99.83   101.94   113.59   124.37   132.69   160.17
eigval :      170.17   195.66   236.63   244.95   246.15   251.78
eigval :      284.46   330.29   334.34   359.53   371.20   374.51
eigval :      375.77   376.87   379.32   384.86   386.21   395.46
eigval :      404.18   409.78   417.15   431.44   436.49   449.45
eigval :      470.44   497.29   506.60   512.45   518.83   530.39
eigval :      558.72   573.23   582.01   585.29   588.09   592.27
eigval :      600.65   607.61   609.74   648.49   666.27   669.07
eigval :      671.25   677.12   685.35   692.73   696.23   700.39
eigval :      739.32   741.52   755.61   755.83   759.30   767.49
eigval :      773.14   798.89   803.54   817.15   826.21   830.32
eigval :      834.59   839.49   843.49   858.92   861.74   869.38
eigval :      870.80   895.05   900.69   902.49   903.02   904.00
eigval :      905.44   906.04   910.89   918.84   919.06   922.74
eigval :      941.48   946.59   964.57   986.23  1016.08  1020.20
eigval :     1026.17  1074.20  1075.94  1076.47  1078.10  1079.41
eigval :     1081.32  1115.06  1118.21  1119.35  1129.11  1132.19
eigval :     1142.07  1151.13  1155.82  1164.94  1178.13  1188.65
eigval :     1202.66  1224.05  1227.60  1232.16  1240.63  1244.29
eigval :     1257.75  1272.96  1279.26  1287.78  1290.54  1296.45
eigval :     1304.40  1305.26  1315.22  1317.98  1325.78  1339.73
eigval :     1349.01  1353.63  1360.68  1379.02  1389.45  1398.99
eigval :     1401.32  1412.91  1417.74  1423.82  1426.46  1434.85
eigval :     1435.92  1438.89  1444.05  1447.03  1468.25  1480.28
eigval :     1485.02  1495.23  1497.88  1504.56  1508.26  1525.15
eigval :     1552.03  1558.96  1563.79  1568.67  1585.00  1594.49
eigval :     3048.84  3048.90  3049.73  3052.20  3069.12  3069.20
eigval :     3073.28  3074.66  3075.79  3081.60  3083.32  3085.63
eigval :     3097.08  3097.62  3099.62  3099.86  3101.09  3101.25
eigval :     3101.68  3102.12  3103.26  3113.89  3115.88  3117.16

   temp. (K)  partition function   enthalpy   heat capacity  entropy
                                   cal/mol     cal/K/mol   cal/K/mol   J/K/mol
 298.15  VIB  0.747E+14            18519.756    119.691    113.919
         ROT  0.774E+08              888.752      2.981     39.079
         INT  0.578E+22            19408.508    122.672    152.999
         TR   0.120E+29             1481.254      4.968     44.706
         TOT                       20889.7618   127.6403   197.7044   827.1952

       T/K    H(0)-H(T)+PV         H(T)/Eh          T*S/Eh         G(T)/Eh
   ------------------------------------------------------------------------
    298.15    0.332900E-01    0.525741E+00    0.939357E-01    0.431806E+00
   ------------------------------------------------------------------------

         :::::::::::::::::::::::::::::::::::::::::::::::::::::
         ::                  THERMODYNAMIC                  ::
         :::::::::::::::::::::::::::::::::::::::::::::::::::::
         :: total free energy        -104.801122145478 Eh   ::
         ::.................................................::
         :: total energy             -105.232927670961 Eh   ::
         :: zero point energy           0.492451313521 Eh   ::
         :: G(RRHO) w/o ZPVE           -0.060645788038 Eh   ::
         :: G(RRHO) contrib.            0.431805525483 Eh   ::
         :::::::::::::::::::::::::::::::::::::::::::::::::::::

           -------------------------------------------------
          | TOTAL ENERGY             -105.232927670961 Eh   |
          | TOTAL ENTHALPY           -104.707186402939 Eh   |
          | TOTAL FREE ENERGY        -104.801122145478 Eh   |
          | GRADIENT NORM               0.000139559478 Eh/α |
           -------------------------------------------------

 * finished run on 2025/08/26 at 12:36:15.088
