   * xtb version 6.7.1 (edcfbbe) compiled by 'albert@albert-system' on 2024-07-22

   ID    Z sym.   atoms
    1    6 C      1-25, 28-39, 42
    2    7 N      26, 27, 40, 41
    3    1 H      43-66

          program call               : xtb data2507/gas/BPy-TP2/BPy-TP2_gas_S0_finalOpt.xtbopt.xyz --gfn 2 --spinpol --tblite --uhf 2 --ohess vtight --parallel 40 --molden --ceasefiles --namespace data2507/gas/BPy-TP2/BPy-TP2_gas_T1_preOpt
 * total energy  :  -105.2277742 Eh     change        0.8427578E-07 Eh
 * total energy  :  -105.2309627 Eh     change       -0.3188501E-02 Eh
 * total energy  :  -105.2321089 Eh     change       -0.1146166E-02 Eh
 * total energy  :  -105.2322323 Eh     change       -0.1233929E-03 Eh
 * total energy  :  -105.2324161 Eh     change       -0.1837946E-03 Eh
 * total energy  :  -105.2325280 Eh     change       -0.1119903E-03 Eh
 * total energy  :  -105.2326386 Eh     change       -0.1105110E-03 Eh
 * total energy  :  -105.2326990 Eh     change       -0.6042279E-04 Eh
 * total energy  :  -105.2327189 Eh     change       -0.1995239E-04 Eh
 * total energy  :  -105.2327443 Eh     change       -0.2536073E-04 Eh
 * total energy  :  -105.2328985 Eh     change       -0.3447715E-06 Eh
 * total energy  :  -105.2328989 Eh     change       -0.3885913E-06 Eh
 * total energy  :  -105.2328992 Eh     change       -0.3116227E-06 Eh
 * total energy  :  -105.2328994 Eh     change       -0.1845565E-06 Eh
 * total energy  :  -105.2328996 Eh     change       -0.2209820E-06 Eh
 * total energy  :  -105.2328998 Eh     change       -0.2306480E-06 Eh
 * total energy  :  -105.2329001 Eh     change       -0.2354959E-06 Eh
 * total energy  :  -105.2329003 Eh     change       -0.2482713E-06 Eh
 * total energy  :  -105.2329004 Eh     change       -0.4337970E-07 Eh
   *** GEOMETRY OPTIMIZATION CONVERGED AFTER 40 ITERATIONS ***

 final structure:
================
66
 xtb: 6.7.1 (edcfbbe)
C           11.94118064282454        0.42292849089030       -0.00631146672948
C           11.23624442123405       -0.65697577705069       -0.53631490741241
C            9.86189444107195       -0.62073838320798       -0.55243114689035
C            9.20261799054014        0.50652453854134       -0.03036355816521
C            7.76200722334290        0.58952867561945       -0.03485802871075
C            7.09099546893412        1.71959794222017        0.47194516215343
C            5.72314364911459        1.73693093868213        0.49322543444112
C            4.98497731834262        0.64070476774957       -0.00518124507246
C            3.54158307251733        0.61288965237050       -0.02710758247734
C            2.79060408017860        1.79943211593578       -0.13844070876018
C            1.42754461841801        1.76015593289297       -0.15390352730398
C            0.70291933548797        0.54998591927721       -0.05870475194913
C           -0.72448922980205        0.51851357304154       -0.07460196056684
C           -1.49956028319494        1.69642815788371       -0.18012154535978
C           -2.86310092666149        1.67668371603632       -0.18094407648300
C           -3.56373954196365        0.45839759856220       -0.08525047157342
C           -5.00645464643147        0.41735938618979       -0.09472727727470
C           -5.74504479077979       -0.68467161492895       -0.58144028738736
C           -7.11211755686445       -0.67639528756918       -0.54065849047138
C           -7.78432276624531        0.45041915392804       -0.02714844161473
C           -9.22445749009372        0.52104485973512       -0.00801159039239
C           -9.88516934840233        1.64548909708179        0.51943510936696
C          -11.25955837672701        1.66899828245096        0.52798026902464
C          -11.96442866157041        0.57950090731190        0.01700562075754
C          -11.23166752819714       -0.48631014051287       -0.48287481866886
N           -9.91842887576231       -0.51197772594112       -0.49757761719122
N           -7.07773307918071        1.48208498459452        0.45111839676794
C           -5.77597070698111        1.47618602051410        0.42375435411768
C           -2.80812322662997       -0.71118877115936        0.02002473336980
C           -1.41931552319955       -0.71952010965638        0.02358235080930
C           -0.66437868037982       -1.95849574291768        0.13205135501700
C           -1.30463093940356       -3.20183973854999        0.21347098858440
C           -0.60065022790786       -4.37906377519367        0.32273986109280
C            0.78537976482149       -4.34706676739413        0.35583775920356
C            1.43904684609753       -3.13908511301134        0.27287556176542
C            0.74696393660269       -1.92672802933357        0.15567714988320
C            1.44914982650184       -0.65663463005506        0.05444524812348
C            2.83646835560644       -0.58867523814220        0.06087585237492
C            5.75424112071871       -0.41877267528568       -0.52237431758069
N            7.05653018437959       -0.43402237960750       -0.53079367311643
N            9.89604139795676        1.53075907583666        0.47731481376197
C           11.20918546276761        1.49280451257850        0.48614372659168
H           13.01874836604229        0.42995556554922        0.02684746831477
H           11.76733778158435       -1.51160371319004       -0.93082393397698
H            9.26233589688891       -1.42076582063252       -0.95723587912111
H            7.68972782387827        2.52869470586613        0.85995486097888
H            5.20048198115570        2.57666835893362        0.92718682737197
H            3.29921477196732        2.74692490248433       -0.23625916472609
H            0.89860235412935        2.69463888835631       -0.24629449793897
H           -1.01017510014351        2.65273523574052       -0.26658527156405
H           -3.41076002919102        2.60137620255546       -0.28600260363150
H           -5.22418959666790       -1.52089611380878       -1.02448395755274
H           -7.71133403432936       -1.48982509193253       -0.91893017668812
H           -9.28550711964099        2.45302693642304        0.90899905364051
H          -11.79134501558094        2.52095537451819        0.92728275427578
H          -13.04227879254792        0.56249270079602        0.00358624166031
H          -11.72189129954310       -1.35847336674507       -0.89672294060978
H           -5.29621489516010        2.33449123359315        0.87554994930462
H           -3.34896444865636       -1.63657793089990        0.12741660119536
H           -2.38043089785385       -3.26160312519265        0.19050063800641
H           -1.12653682401863       -5.32048038430215        0.38279827013450
H            1.35054754365216       -5.26309873628823        0.44457920321236
H            2.51630756192026       -3.14895432861335        0.30285652303338
H            3.41591751557328       -1.49044995511262        0.16827690251832
H            5.27596940049921       -1.26955396120976       -0.99007796615386
H           11.69980977512113        2.35813749584972        0.91361320572355

 projected vibrational frequencies (cm⁻¹)
eigval :       -0.00    -0.00     0.00     0.00     0.00     0.00
eigval :       -1.98    16.52    18.57    22.25    28.35    37.16
eigval :       38.84    48.00    67.08    69.74    73.37    88.41
eigval :      100.35   103.19   114.45   121.02   130.19   163.85
eigval :      171.86   194.95   236.52   240.99   245.26   252.55
eigval :      283.94   331.28   333.71   358.97   370.88   375.52
eigval :      376.12   377.83   379.35   385.41   387.64   395.04
eigval :      403.85   407.70   416.50   430.51   436.71   449.25
eigval :      470.49   496.74   506.09   512.26   517.26   530.26
eigval :      558.35   573.43   581.98   585.48   588.08   592.44
eigval :      601.28   607.41   609.84   648.33   665.89   668.69
eigval :      671.32   677.26   685.14   692.60   696.28   700.09
eigval :      739.05   740.22   755.46   755.85   758.37   766.88
eigval :      772.73   798.66   803.18   817.29   825.80   829.79
eigval :      833.41   838.46   841.86   858.32   861.57   868.83
eigval :      871.08   894.37   900.67   901.91   903.13   903.84
eigval :      905.06   906.21   911.41   918.42   919.15   922.58
eigval :      941.14   946.42   962.89   985.80  1014.62  1019.95
eigval :     1024.69  1074.43  1075.49  1076.38  1078.09  1079.07
eigval :     1081.41  1115.24  1117.11  1119.44  1129.38  1131.85
eigval :     1142.04  1151.19  1156.10  1164.90  1178.25  1188.93
eigval :     1202.90  1223.73  1227.71  1232.24  1240.76  1244.58
eigval :     1257.71  1273.14  1279.44  1288.53  1290.42  1297.05
eigval :     1304.49  1305.47  1315.90  1318.53  1325.99  1339.66
eigval :     1349.47  1353.91  1361.33  1379.23  1389.63  1399.01
eigval :     1402.21  1412.79  1417.55  1423.71  1426.49  1434.62
eigval :     1436.77  1438.73  1444.02  1447.84  1468.74  1480.96
eigval :     1485.37  1495.34  1497.88  1504.35  1507.68  1525.28
eigval :     1552.12  1559.10  1563.74  1568.75  1585.36  1594.85
eigval :     3048.96  3049.13  3050.07  3052.28  3069.40  3069.50
eigval :     3073.70  3074.83  3076.18  3081.77  3083.39  3086.19
eigval :     3097.08  3098.48  3099.83  3100.22  3101.75  3102.15
eigval :     3102.31  3103.21  3104.44  3114.81  3118.09  3118.73

   temp. (K)  partition function   enthalpy   heat capacity  entropy
                                   cal/mol     cal/K/mol   cal/K/mol   J/K/mol
 298.15  VIB  0.956E+16            19126.732    120.610    120.805
         ROT  0.768E+08              888.752      2.981     39.063
         INT  0.734E+24            20015.484    123.591    159.867
         TR   0.120E+29             1481.254      4.968     44.706
         TOT                       21496.7379   128.5591   204.5733   855.9347

       T/K    H(0)-H(T)+PV         H(T)/Eh          T*S/Eh         G(T)/Eh
   ------------------------------------------------------------------------
    298.15    0.342572E-01    0.526689E+00    0.971994E-01    0.429490E+00
   ------------------------------------------------------------------------

         :::::::::::::::::::::::::::::::::::::::::::::::::::::
         ::                  THERMODYNAMIC                  ::
         :::::::::::::::::::::::::::::::::::::::::::::::::::::
         :: total free energy        -104.803410692493 Eh   ::
         ::.................................................::
         :: total energy             -105.232900443045 Eh   ::
         :: zero point energy           0.492431896546 Eh   ::
         :: G(RRHO) w/o ZPVE           -0.062942145994 Eh   ::
         :: G(RRHO) contrib.            0.429489750552 Eh   ::
         :::::::::::::::::::::::::::::::::::::::::::::::::::::

           -------------------------------------------------
          | TOTAL ENERGY             -105.232900443045 Eh   |
          | TOTAL ENTHALPY           -104.706211314056 Eh   |
          | TOTAL FREE ENERGY        -104.803410692493 Eh   |
          | GRADIENT NORM               0.000083248198 Eh/α |
           -------------------------------------------------

 * finished run on 2025/08/26 at 12:31:31.725
