   * xtb version 6.7.1 (edcfbbe) compiled by 'albert@albert-system' on 2024-07-22

   ID    Z sym.   atoms
    1    6 C      1-25, 28-39, 42
    2    7 N      26, 27, 40, 41
    3    1 H      43-66

          program call               : xtb data2507/gas/BPy-TP2/BPy-TP2_gas_S0_crest.xyz --gfn 2 --ohess vtight --parallel 40 --molden --ceasefiles --namespace data2507/gas/BPy-TP2/BPy-TP2_gas_S0_finalOpt
          :  Hamiltonian                  GFN2-xTB          :
 * total energy  :  -105.3102612 Eh     change       -0.1696009E-08 Eh
 * total energy  :  -105.3102625 Eh     change       -0.1221749E-05 Eh
 * total energy  :  -105.3102655 Eh     change       -0.3038158E-05 Eh
 * total energy  :  -105.3102675 Eh     change       -0.1984714E-05 Eh
 * total energy  :  -105.3102683 Eh     change       -0.8646480E-06 Eh
 * total energy  :  -105.3102691 Eh     change       -0.7920567E-06 Eh
 * total energy  :  -105.3102700 Eh     change       -0.9074718E-06 Eh
 * total energy  :  -105.3102710 Eh     change       -0.9678861E-06 Eh
 * total energy  :  -105.3102721 Eh     change       -0.1129436E-05 Eh
 * total energy  :  -105.3102731 Eh     change       -0.9840556E-06 Eh
 * total energy  :  -105.3102739 Eh     change       -0.7639486E-06 Eh
 * total energy  :  -105.3102746 Eh     change       -0.7199581E-06 Eh
 * total energy  :  -105.3102752 Eh     change       -0.5655907E-06 Eh
 * total energy  :  -105.3102755 Eh     change       -0.3704261E-06 Eh
 * total energy  :  -105.3102759 Eh     change       -0.3419367E-06 Eh
 * total energy  :  -105.3102762 Eh     change       -0.3489857E-06 Eh
 * total energy  :  -105.3102765 Eh     change       -0.2259828E-06 Eh
 * total energy  :  -105.3102766 Eh     change       -0.1422839E-06 Eh
 * total energy  :  -105.3102766 Eh     change       -0.4262928E-07 Eh
   *** GEOMETRY OPTIMIZATION CONVERGED AFTER 19 ITERATIONS ***

 final structure:
================
66
 xtb: 6.7.1 (edcfbbe)
C           11.92290137656583        0.44142218710983        0.02085678568824
C           11.24386438896727       -0.57930795580399       -0.62814707721708
C            9.86208553001691       -0.55198011866201       -0.65110538202792
C            9.20157254017614        0.50350489947113       -0.01912964005236
C            7.73607987453315        0.57612476161211       -0.01610185223928
C            7.07283838436586        1.63914080426971        0.60032615999932
C            5.69355748506787        1.66151364182536        0.58805010409321
C            4.99513990301244        0.62811691194295       -0.03851879727256
C            3.53115678275758        0.59952981429190       -0.08108389801906
C            2.79882166095049        1.77163667346946       -0.29008344883074
C            1.42861103929371        1.73004345163487       -0.32692110623797
C            0.71413802063601        0.53469473356174       -0.15672888985275
C           -0.73417541940951        0.50382326358911       -0.17523708010382
C           -1.49438684275485        1.66553645160585       -0.37795652621166
C           -2.86565092150802        1.64971361678342       -0.37411203506789
C           -3.55250921507349        0.44977803336242       -0.16829677267270
C           -5.01693138280029        0.41553812254421       -0.15349734733229
C           -5.73841780295849       -0.62717873489929       -0.73714939693398
C           -7.11703027518368       -0.60841990312565       -0.69107793879865
C           -7.75660207814439        0.46136981998294       -0.06154232514413
C           -9.22077791461036        0.52923969623529        0.00539722048079
C           -9.85668588455774        1.59841850232056        0.63957276221655
C          -11.23815317667471        1.61983335928508        0.67996569897439
C          -11.94128881394472        0.57970978815617        0.09007391729198
C          -11.21662698463413       -0.43695973663971       -0.51556097236477
N           -9.89975246364472       -0.46782885208322       -0.56042897050529
N           -7.07352331344336        1.45796591728032        0.50096731835779
C           -5.76010074179173        1.43070702145795        0.45499287327742
C           -2.81687883747992       -0.70545690810857        0.02455686082489
C           -1.41803281107380       -0.71560687298259        0.02397386362130
C           -0.66833836677550       -1.94546017495689        0.21440066247101
C           -1.31226452732136       -3.17931548427135        0.38348340094553
C           -0.60964655980259       -4.34851096161588        0.55011166347037
C            0.77872988611407       -4.32151628838981        0.54881701326801
C            1.43503911108195       -3.12526917327069        0.38531015852476
C            0.74303380084106       -1.91729992837219        0.21951870341986
C            1.44444047866886       -0.65655523058416        0.04848414567827
C            2.84123240557191       -0.58793913453770        0.08283792705514
C            5.76112704408479       -0.37824706353092       -0.63315181438743
N            7.07525007565856       -0.40892606656372       -0.62371401150813
N            9.85748443315358        1.48240624290596        0.60279415951559
C           11.17486263445832        1.44596487381695        0.61829739781467
H           13.00093789444558        0.45910732828637        0.06292996268788
H           11.78603090603373       -1.38212818843003       -1.10757118741117
H            9.27970640343101       -1.31601807814328       -1.13946457953243
H            7.65400021850406        2.41183786146827        1.07638438698882
H            5.15352769057780        2.45992080952344        1.07737812810940
H            3.31488165139900        2.70813760497980       -0.44234625709918
H            0.90310958670924        2.65618953538378       -0.49254274212001
H           -1.00457102705056        2.61050437755828       -0.54639649064886
H           -3.41764144176615        2.56083660135593       -0.55085867791434
H           -5.21783980245838       -1.43006494658221       -1.24036951356676
H           -7.71560987208172       -1.38870553993897       -1.13194122824590
H           -9.25612057766350        2.37709309158465        1.08048384526344
H          -11.76164536429945        2.43272075850169        1.16315492132833
H          -13.02000369418649        0.55661461400158        0.09885144892864
H          -11.71650313491615       -1.27188050894182       -0.99085751708775
H           -5.26226233239654        2.25667860075134        0.94779823338455
H           -3.36307078113606       -1.61690768754943        0.20431013991733
H           -2.38843793227565       -3.23517523097044        0.38372244752980
H           -1.13589099805184       -5.28285983433315        0.67796809165369
H            1.34108799446684       -5.23492196471139        0.67386501633837
H            2.51255490438803       -3.13857574334883        0.38401864343268
H            3.42209914080636       -1.47621668388453        0.26897186441494
H            5.28287604783610       -1.19332931804872       -1.16249008011699
H           11.65535249829529        2.26618952037386        1.13714798665753

          :  Hamiltonian                  GFN2-xTB          :
         :: gradient norm              0.000097758482 Eh/a0 ::
         :: HOMO-LUMO gap              2.175184969889 eV    ::
         :: SCC energy              -107.255708699052 Eh    ::
         :: -> dispersion             -0.086469100337 Eh    ::
         :: repulsion energy           1.945432051463 Eh    ::

    * Orbital Energies and Occupations

         #    Occupation            Energy/Eh            Energy/eV
      -------------------------------------------------------------
         1        2.0000           -0.6632670             -18.0484
       ...           ...                  ...                  ...
        86        2.0000           -0.4256817             -11.5834
        87        2.0000           -0.4219832             -11.4827
        88        2.0000           -0.4110930             -11.1864
        89        2.0000           -0.4095114             -11.1434
        90        2.0000           -0.4042819             -11.0011
        91        2.0000           -0.3957357             -10.7685
        92        2.0000           -0.3933709             -10.7042
        93        2.0000           -0.3851774             -10.4812
        94        2.0000           -0.3787200             -10.3055
        95        2.0000           -0.3736712             -10.1681
        96        2.0000           -0.3723755             -10.1329
        97        2.0000           -0.3620655              -9.8523
        98        2.0000           -0.3615017              -9.8370 (HOMO)
        99                         -0.2815652              -7.6618 (LUMO)
       100                         -0.2734481              -7.4409
       101                         -0.2604142              -7.0862
       102                         -0.2554973              -6.9524
       103                         -0.2439889              -6.6393
       104                         -0.2439579              -6.6384
       105                         -0.2425415              -6.5999
       106                         -0.2398824              -6.5275
       107                         -0.2377769              -6.4702
       108                         -0.2167187              -5.8972
       109                         -0.2054232              -5.5898
       ...                                ...                  ...
       192                          0.7235397              19.6885
      -------------------------------------------------------------
                  HL-Gap            0.0799366 Eh            2.1752 eV

     #   Z          covCN         q      C6AA      α(0)
     1   6 C        2.914    -0.040    28.989     8.829
     2   6 C        2.927    -0.011    28.292     8.723
     3   6 C        2.919    -0.038    28.934     8.821
     4   6 C        2.968     0.090    25.996     8.363
     5   6 C        2.968     0.087    26.060     8.374
     6   6 C        2.916    -0.038    28.955     8.824
     7   6 C        2.931    -0.017    28.438     8.746
     8   6 C        2.973    -0.000    28.035     8.685
     9   6 C        2.974     0.006    27.873     8.660
    10   6 C        2.921    -0.035    28.880     8.813
    11   6 C        2.921    -0.036    28.894     8.815
    12   6 C        2.979     0.006    27.890     8.663
    13   6 C        2.979     0.006    27.890     8.663
    14   6 C        2.921    -0.036    28.884     8.813
    15   6 C        2.921    -0.036    28.900     8.816
    16   6 C        2.974     0.006    27.873     8.660
    17   6 C        2.973    -0.000    28.035     8.685
    18   6 C        2.931    -0.018    28.449     8.747
    19   6 C        2.916    -0.038    28.957     8.824
    20   6 C        2.968     0.087    26.061     8.374
    21   6 C        2.968     0.090    25.996     8.363
    22   6 C        2.919    -0.038    28.934     8.821
    23   6 C        2.927    -0.011    28.292     8.723
    24   6 C        2.914    -0.040    28.989     8.829
    25   6 C        2.907     0.061    26.639     8.463
    26   7 N        1.843    -0.233    26.944     7.693
    27   7 N        1.841    -0.233    26.954     7.694
    28   6 C        2.910     0.056    26.734     8.478
    29   6 C        2.929    -0.040    29.004     8.832
    30   6 C        2.978     0.007    27.870     8.660
    31   6 C        2.979     0.007    27.869     8.660
    32   6 C        2.923    -0.035    28.873     8.812
    33   6 C        2.917    -0.031    28.764     8.795
    34   6 C        2.917    -0.031    28.762     8.794
    35   6 C        2.923    -0.035    28.870     8.811
    36   6 C        2.979     0.007    27.868     8.659
    37   6 C        2.978     0.007    27.861     8.658
    38   6 C        2.929    -0.041    29.024     8.835
    39   6 C        2.910     0.056    26.743     8.480
    40   7 N        1.841    -0.233    26.958     7.695
    41   7 N        1.843    -0.233    26.943     7.693
    42   6 C        2.907     0.061    26.638     8.463
    43   1 H        0.926     0.035     2.515     2.480
    44   1 H        0.926     0.036     2.505     2.475
    45   1 H        0.926     0.060     2.204     2.322
    46   1 H        0.926     0.060     2.199     2.319
    47   1 H        0.926     0.037     2.492     2.469
    48   1 H        0.926     0.032     2.555     2.500
    49   1 H        0.926     0.035     2.512     2.479
    50   1 H        0.926     0.035     2.509     2.477
    51   1 H        0.926     0.033     2.550     2.497
    52   1 H        0.926     0.036     2.502     2.473
    53   1 H        0.926     0.060     2.200     2.320
    54   1 H        0.926     0.060     2.203     2.321
    55   1 H        0.926     0.036     2.505     2.475
    56   1 H        0.926     0.035     2.515     2.480
    57   1 H        0.925     0.036     2.498     2.472
    58   1 H        0.925     0.037     2.484     2.465
    59   1 H        0.926     0.036     2.497     2.471
    60   1 H        0.926     0.033     2.540     2.492
    61   1 H        0.926     0.031     2.574     2.509
    62   1 H        0.926     0.031     2.571     2.507
    63   1 H        0.926     0.034     2.528     2.487
    64   1 H        0.926     0.037     2.496     2.470
    65   1 H        0.925     0.037     2.494     2.470
    66   1 H        0.925     0.036     2.497     2.471

molecular dipole:
                 x           y           z       tot (Debye)
 q only:        0.006      -0.066       0.006
   full:        0.007      -0.055       0.005       0.140

 projected vibrational frequencies (cm⁻¹)
eigval :       -0.00    -0.00    -0.00     0.00     0.00     0.00
eigval :        4.63    16.19    17.96    22.60    25.74    34.12
eigval :       36.42    44.75    59.94    61.40    78.17    84.16
eigval :      101.92   103.78   114.25   129.16   134.62   166.93
eigval :      174.58   199.32   233.91   241.93   254.22   259.02
eigval :      312.18   336.03   341.73   362.60   365.63   370.52
eigval :      371.85   373.64   383.19   384.12   387.76   407.40
eigval :      408.14   416.27   424.06   448.66   455.09   465.34
eigval :      483.62   514.55   529.18   531.36   539.56   560.66
eigval :      594.23   594.38   594.65   596.15   599.67   604.84
eigval :      609.99   621.81   623.77   660.28   678.29   688.25
eigval :      691.02   700.92   702.42   706.69   723.41   723.54
eigval :      748.16   763.23   766.51   768.97   775.24   775.32
eigval :      809.83   816.64   838.70   842.72   843.12   848.25
eigval :      857.96   860.32   866.99   894.79   894.81   899.84
eigval :      902.93   908.00   908.66   916.81   917.24   917.26
eigval :      925.04   931.64   931.90   936.78   936.80   960.28
eigval :      990.33   993.69  1010.76  1015.75  1030.16  1035.26
eigval :     1086.13  1086.18  1090.11  1090.12  1094.09  1097.59
eigval :     1120.48  1121.48  1124.49  1139.51  1140.85  1148.08
eigval :     1160.17  1160.24  1167.82  1174.97  1195.90  1228.75
eigval :     1239.76  1240.15  1246.45  1247.85  1257.63  1261.69
eigval :     1269.96  1278.31  1279.31  1286.00  1288.87  1294.58
eigval :     1295.36  1310.96  1311.39  1324.93  1327.69  1333.39
eigval :     1342.99  1364.25  1378.30  1382.75  1395.66  1408.69
eigval :     1410.84  1418.24  1421.17  1429.43  1440.13  1441.26
eigval :     1461.34  1463.23  1487.17  1496.18  1531.07  1537.09
eigval :     1541.84  1553.89  1560.57  1561.00  1565.48  1567.44
eigval :     1568.67  1580.49  1581.99  1589.50  1594.44  1605.27
eigval :     3045.71  3047.93  3048.32  3048.42  3067.66  3069.17
eigval :     3069.28  3069.70  3077.70  3081.92  3084.79  3087.56
eigval :     3093.77  3093.82  3102.83  3103.89  3104.71  3113.81
eigval :     3114.16  3114.96  3114.96  3116.76  3116.97  3118.24

   temp. (K)  partition function   enthalpy   heat capacity  entropy
                                   cal/mol     cal/K/mol   cal/K/mol   J/K/mol
 298.15  VIB  0.439E+16            18748.738    117.333    118.022
         ROT  0.765E+08              888.752      2.981     39.056
         INT  0.336E+24            19637.491    120.314    157.078
         TR   0.120E+29             1481.254      4.968     44.706
         TOT                       21118.7445   125.2825   201.7840   844.2642

       T/K    H(0)-H(T)+PV         H(T)/Eh          T*S/Eh         G(T)/Eh
   ------------------------------------------------------------------------
    298.15    0.336549E-01    0.532201E+00    0.958741E-01    0.436327E+00
   ------------------------------------------------------------------------

         :::::::::::::::::::::::::::::::::::::::::::::::::::::
         ::                  THERMODYNAMIC                  ::
         :::::::::::::::::::::::::::::::::::::::::::::::::::::
         :: total free energy        -104.873949780213 Eh   ::
         ::.................................................::
         :: total energy             -105.310276647588 Eh   ::
         :: zero point energy           0.498546085741 Eh   ::
         :: G(RRHO) w/o ZPVE           -0.062219218367 Eh   ::
         :: G(RRHO) contrib.            0.436326867375 Eh   ::
         :::::::::::::::::::::::::::::::::::::::::::::::::::::

           -------------------------------------------------
          | TOTAL ENERGY             -105.310276647588 Eh   |
          | TOTAL ENTHALPY           -104.778075700242 Eh   |
          | TOTAL FREE ENERGY        -104.873949780213 Eh   |
          | GRADIENT NORM               0.000097762718 Eh/α |
          | HOMO-LUMO GAP               2.175185087924 eV   |
           -------------------------------------------------

 * finished run on 2025/08/26 at 12:31:22.473
