   * xtb version 6.7.1 (edcfbbe) compiled by 'albert@albert-system' on 2024-07-22

   ID    Z sym.   atoms
    1    7 N      1, 7, 17, 32
    2    6 C      2-6, 8-16, 18-31, 33-47
    3    1 H      48-75

          program call               : xtb data2507/gas/CNTPA-CZ/CNTPA-CZ_gas_S0_crest.xyz --gfn 2 --ohess vtight --parallel 40 --molden --ceasefiles --namespace data2507/gas/CNTPA-CZ/CNTPA-CZ_gas_S0_finalOpt
          :  Hamiltonian                  GFN2-xTB          :
 * total energy  :  -118.0952889 Eh     change       -0.1144741E-08 Eh
 * total energy  :  -118.0952896 Eh     change       -0.6830212E-06 Eh
 * total energy  :  -118.0952894 Eh     change        0.1645405E-06 Eh
 * total energy  :  -118.0952912 Eh     change       -0.1799368E-05 Eh
 * total energy  :  -118.0952918 Eh     change       -0.5338647E-06 Eh
 * total energy  :  -118.0952918 Eh     change        0.2144607E-07 Eh
 * total energy  :  -118.0952923 Eh     change       -0.4942817E-06 Eh
 * total energy  :  -118.0952928 Eh     change       -0.5668030E-06 Eh
 * total energy  :  -118.0952934 Eh     change       -0.6076026E-06 Eh
 * total energy  :  -118.0952940 Eh     change       -0.6143347E-06 Eh
 * total energy  :  -118.0952960 Eh     change        0.6537732E-08 Eh
 * total energy  :  -118.0952959 Eh     change        0.4122583E-07 Eh
 * total energy  :  -118.0952958 Eh     change        0.1340545E-06 Eh
 * total energy  :  -118.0952955 Eh     change        0.2410667E-06 Eh
 * total energy  :  -118.0952952 Eh     change        0.3496541E-06 Eh
 * total energy  :  -118.0952954 Eh     change       -0.1874317E-06 Eh
 * total energy  :  -118.0952952 Eh     change        0.1587767E-06 Eh
 * total energy  :  -118.0952957 Eh     change       -0.4895152E-06 Eh
 * total energy  :  -118.0952958 Eh     change       -0.9167545E-07 Eh
   *** GEOMETRY OPTIMIZATION CONVERGED AFTER 25 ITERATIONS ***

 final structure:
================
75
 xtb: 6.7.1 (edcfbbe)
N           -7.46209460967370        2.85416758254257        2.02998812971210
C           -6.38712224070966        2.77577184402385        1.63671860630148
C           -5.06489201303824        2.67947016274536        1.15560660597307
C           -4.14326982696721        1.84814021309290        1.79684311911806
C           -2.85376344053653        1.75639651523236        1.32623487410659
C           -2.45142965555232        2.48218986818465        0.19929475013377
N           -1.15394175676237        2.36798755403747       -0.27931208893296
C           -0.50920649408658        3.45280409562394       -0.89640428430191
C            0.29559929972150        3.23931149132276       -2.01376766743774
C            0.95669364265748        4.29820235376379       -2.60566056081103
C            0.81518572098091        5.58053847021903       -2.10148138797613
C            0.00704381603808        5.79799593046014       -0.99770587430232
C           -0.64914602475970        4.74343218851594       -0.39188433133210
C           -0.45992103194360        1.15647317517057       -0.16007892987139
C           -1.10900276501319       -0.05078222690291       -0.40017051345727
C           -0.41376046710795       -1.24871589860173       -0.28318239385868
N           -1.07281647196683       -2.45918250982635       -0.51573855535918
C           -2.29628087446829       -2.82773163549970        0.01523491244742
C           -3.11887623537384       -2.15030739363922        0.90342790769254
C           -4.29188234090153       -2.76548534947134        1.29758231697910
C           -4.64091936560912       -4.03122004806070        0.83351071288910
C           -3.81435420278364       -4.72185602841654       -0.02996741449968
C           -2.63190157778815       -4.12199573235789       -0.44213258789915
C           -1.55904843962670       -4.54508032714269       -1.29846474045551
C           -1.33353096611415       -5.69408454413783       -2.04459068369485
C           -0.18367505890088       -5.77417438240079       -2.80423841130442
C            0.72493593198557       -4.71933986577406       -2.83890855884182
C            0.52195300463200       -3.56630433507459       -2.10445455964952
C           -0.61730079835252       -3.49153316897661       -1.31633031569760
C            0.93963461349593       -1.24210911020184        0.04029547033729
C            1.59165923092494       -0.03307517881202        0.26171053967299
N            2.95258929523154       -0.01644908395929        0.57941168062227
C            3.90395383086442        0.80212855911952       -0.00292218002588
C            3.76894927259251        1.73515371554031       -1.02087808035650
C            4.90307525524522        2.40619617505335       -1.43699289454137
C            6.14881673116333        2.15344587947454       -0.86809802291396
C            6.29412638161899        1.20806582496008        0.12736628754052
C            5.16815992642602        0.52283038026150        0.56378594433922
C            4.96030104760862       -0.50866200234917        1.54160865392620
C            5.80604612231498       -1.16994966348816        2.42211130473589
C            5.26762483043616       -2.11492027971126        3.27225294188716
C            3.90229298232360       -2.38945416439590        3.26307278349597
C            3.04130488253099       -1.74430833235305        2.39560353039107
C            3.58065340331907       -0.81415850198641        1.51888289129555
C            0.88912127596432        1.16322915513517        0.17994431370006
C           -3.37688846107699        3.31911179180079       -0.43296763716106
C           -4.66602196044483        3.41820963880952        0.03891546637792
H           -4.44672330943561        1.28849796415839        2.66932407486936
H           -2.13425190007618        1.13321990319525        1.83682751611345
H            0.39066315362336        2.24050107363896       -2.41535933989577
H            1.57873658336037        4.12170989136035       -3.47062842756339
H            1.33087658537591        6.40625373059015       -2.56700660852483
H           -0.10592457656238        6.79462120334052       -0.59791441844845
H           -1.26769434440965        4.91163952802378        0.47760822198144
H           -2.14573241225712       -0.05624918476820       -0.69927681244209
H           -2.85497184702580       -1.17669318032409        1.28590314945435
H           -4.95113836858659       -2.25336936426186        1.98276180880482
H           -5.56723701344282       -4.47720657215632        1.16303600044591
H           -4.07555235769344       -5.70959781572205       -0.37828243072640
H           -2.04857448644986       -6.50261165692324       -2.03158020874707
H            0.01288920458839       -6.65975707585998       -3.38979719507891
H            1.60693124241921       -4.80149793259067       -3.45671703591699
H            1.22433359345410       -2.74839543320257       -2.15891786429678
H            1.48160818047537       -2.17089623453598        0.11606260472304
H            2.81450190367387        1.93265136674467       -1.48378593372247
H            4.81994602912206        3.14182751138090       -2.22335452149074
H            7.01084198477658        2.70054646247684       -1.21942240581361
H            7.26146520408111        0.99940275182576        0.55856380404512
H            6.86099138870211       -0.94201956286506        2.44103873868200
H            5.90764889361035       -2.64306736273426        3.96304289210873
H            3.50553491805878       -3.12041153140204        3.95197528914944
H            1.98223198441153       -1.95205012213692        2.41538943640220
H            1.38507763747688        2.09698704455479        0.39438939042719
H           -3.07533743577969        3.88119513865011       -1.30413616301385
H           -5.37923659090892        4.05912608319064       -0.45786970741813

          :  Hamiltonian                  GFN2-xTB          :
         :: gradient norm              0.000065711450 Eh/a0 ::
         :: HOMO-LUMO gap              2.594429166159 eV    ::
         :: SCC energy              -120.354146144919 Eh    ::
         :: -> dispersion             -0.109099386587 Eh    ::
         :: repulsion energy           2.258850346242 Eh    ::

    * Orbital Energies and Occupations

         #    Occupation            Energy/Eh            Energy/eV
      -------------------------------------------------------------
         1        2.0000           -0.6867559             -18.6876
       ...           ...                  ...                  ...
        98        2.0000           -0.4226472             -11.5008
        99        2.0000           -0.4225202             -11.4974
       100        2.0000           -0.4209319             -11.4541
       101        2.0000           -0.4204256             -11.4404
       102        2.0000           -0.4190951             -11.4042
       103        2.0000           -0.4174260             -11.3587
       104        2.0000           -0.4095128             -11.1434
       105        2.0000           -0.4088359             -11.1250
       106        2.0000           -0.3829190             -10.4198
       107        2.0000           -0.3822134             -10.4006
       108        2.0000           -0.3722696             -10.1300
       109        2.0000           -0.3684934             -10.0272
       110        2.0000           -0.3674454              -9.9987 (HOMO)
       111                         -0.2721019              -7.4043 (LUMO)
       112                         -0.2543856              -6.9222
       113                         -0.2521289              -6.8608
       114                         -0.2471425              -6.7251
       115                         -0.2458389              -6.6896
       116                         -0.2431687              -6.6170
       117                         -0.2382625              -6.4835
       118                         -0.2261582              -6.1541
       119                         -0.2256874              -6.1413
       120                         -0.2254162              -6.1339
       121                         -0.2021942              -5.5020
       ...                                ...                  ...
       216                          1.1753961              31.9842
      -------------------------------------------------------------
                  HL-Gap            0.0953434 Eh            2.5944 eV

     #   Z          covCN         q      C6AA      α(0)
     1   7 N        0.911    -0.242    26.308     7.418
     2   6 C        1.911     0.110    28.382     8.604
     3   6 C        2.973     0.009    27.821     8.652
     4   6 C        2.925    -0.020    28.502     8.755
     5   6 C        2.922    -0.046    29.151     8.854
     6   6 C        2.922     0.072    26.399     8.426
     7   7 N        2.754    -0.070    22.591     7.059
     8   6 C        2.926     0.063    26.581     8.455
     9   6 C        2.923    -0.045    29.107     8.847
    10   6 C        2.920    -0.027    28.669     8.780
    11   6 C        2.919    -0.034    28.856     8.809
    12   6 C        2.920    -0.027    28.681     8.782
    13   6 C        2.922    -0.045    29.120     8.849
    14   6 C        2.926     0.067    26.511     8.444
    15   6 C        2.925    -0.068    29.705     8.938
    16   6 C        2.911     0.067    26.490     8.440
    17   7 N        2.803    -0.043    22.075     6.978
    18   6 C        3.071     0.046    26.892     8.503
    19   6 C        2.910    -0.052    29.280     8.873
    20   6 C        2.924    -0.033    28.813     8.803
    21   6 C        2.920    -0.039    28.981     8.828
    22   6 C        2.913    -0.032    28.800     8.800
    23   6 C        3.067    -0.016    28.336     8.729
    24   6 C        3.068    -0.016    28.334     8.728
    25   6 C        2.913    -0.032    28.803     8.800
    26   6 C        2.920    -0.040    28.988     8.829
    27   6 C        2.924    -0.033    28.818     8.803
    28   6 C        2.910    -0.051    29.262     8.870
    29   6 C        3.071     0.046    26.887     8.502
    30   6 C        2.925    -0.068    29.705     8.938
    31   6 C        2.911     0.067    26.490     8.440
    32   7 N        2.803    -0.043    22.067     6.977
    33   6 C        3.072     0.046    26.890     8.502
    34   6 C        2.910    -0.052    29.284     8.874
    35   6 C        2.924    -0.033    28.825     8.804
    36   6 C        2.920    -0.040    28.995     8.830
    37   6 C        2.913    -0.032    28.806     8.801
    38   6 C        3.067    -0.016    28.335     8.728
    39   6 C        3.068    -0.016    28.338     8.729
    40   6 C        2.913    -0.032    28.803     8.801
    41   6 C        2.920    -0.040    28.988     8.829
    42   6 C        2.924    -0.033    28.814     8.803
    43   6 C        2.910    -0.051    29.258     8.870
    44   6 C        3.071     0.046    26.885     8.502
    45   6 C        2.926    -0.068    29.701     8.937
    46   6 C        2.921    -0.047    29.163     8.856
    47   6 C        2.925    -0.020    28.511     8.756
    48   1 H        0.926     0.043     2.413     2.429
    49   1 H        0.926     0.035     2.517     2.481
    50   1 H        0.926     0.031     2.569     2.507
    51   1 H        0.926     0.037     2.495     2.470
    52   1 H        0.926     0.036     2.498     2.472
    53   1 H        0.926     0.037     2.486     2.466
    54   1 H        0.926     0.034     2.526     2.485
    55   1 H        0.926     0.046     2.376     2.410
    56   1 H        0.926     0.026     2.650     2.546
    57   1 H        0.926     0.031     2.578     2.511
    58   1 H        0.926     0.031     2.574     2.509
    59   1 H        0.926     0.033     2.545     2.495
    60   1 H        0.926     0.033     2.548     2.496
    61   1 H        0.926     0.030     2.589     2.516
    62   1 H        0.926     0.030     2.579     2.512
    63   1 H        0.926     0.027     2.627     2.535
    64   1 H        0.926     0.053     2.277     2.359
    65   1 H        0.926     0.027     2.624     2.533
    66   1 H        0.926     0.029     2.599     2.521
    67   1 H        0.926     0.030     2.593     2.518
    68   1 H        0.926     0.033     2.549     2.497
    69   1 H        0.926     0.033     2.551     2.497
    70   1 H        0.926     0.030     2.587     2.515
    71   1 H        0.926     0.031     2.573     2.509
    72   1 H        0.926     0.028     2.620     2.531
    73   1 H        0.926     0.046     2.365     2.405
    74   1 H        0.926     0.039     2.462     2.454
    75   1 H        0.926     0.043     2.409     2.427

molecular dipole:
                 x           y           z       tot (Debye)
 q only:        1.374       0.231      -0.610
   full:        1.757       0.287      -0.777       4.937

 projected vibrational frequencies (cm⁻¹)
eigval :       -0.00    -0.00    -0.00     0.00     0.00     0.00
eigval :       14.03    17.34    20.72    21.35    24.37    25.72
eigval :       43.71    56.03    59.73    71.66    73.82    90.80
eigval :       96.06    98.96   110.75   130.80   138.87   141.69
eigval :      146.15   149.29   175.69   208.49   223.89   237.31
eigval :      245.61   253.09   262.73   264.76   272.70   274.78
eigval :      299.45   307.51   325.91   359.15   365.31   376.71
eigval :      383.24   384.22   395.15   396.30   422.84   423.09
eigval :      437.16   438.20   442.75   460.68   469.60   512.67
eigval :      516.60   518.24   520.63   532.33   532.55   539.17
eigval :      540.97   541.12   545.59   573.51   584.38   588.40
eigval :      589.65   593.85   616.71   621.35   631.52   638.51
eigval :      654.82   661.28   669.55   673.94   675.59   678.19
eigval :      708.38   708.48   718.74   750.17   755.77   764.09
eigval :      768.54   769.49   770.87   780.24   780.99   794.34
eigval :      817.63   840.10   864.77   865.78   867.43   873.80
eigval :      877.58   878.29   890.85   891.09   894.58   897.17
eigval :      898.68   898.94   903.98   904.32   906.52   909.46
eigval :      916.45   921.86   922.90   923.17   923.43   926.09
eigval :      926.32   930.65   931.44   987.31   995.51  1010.63
eigval :     1012.01  1017.72  1037.64  1056.82  1072.08  1072.30
eigval :     1075.26  1075.66  1082.84  1121.69  1123.39  1123.80
eigval :     1137.35  1153.12  1153.45  1164.47  1166.08  1180.02
eigval :     1180.87  1181.06  1181.21  1182.60  1186.94  1193.56
eigval :     1210.23  1228.80  1235.69  1236.17  1237.13  1238.02
eigval :     1252.74  1264.93  1278.44  1289.29  1296.68  1300.97
eigval :     1302.41  1306.44  1315.85  1326.00  1326.93  1331.37
eigval :     1342.24  1358.00  1358.12  1361.41  1362.83  1395.87
eigval :     1412.29  1419.47  1426.14  1427.69  1434.88  1443.11
eigval :     1460.98  1461.76  1472.90  1476.81  1477.68  1484.64
eigval :     1487.80  1487.89  1543.77  1564.90  1567.29  1575.94
eigval :     1576.70  1582.08  1588.94  1589.22  1589.96  1597.61
eigval :     1599.51  1599.96  1614.53  1615.44  2368.36  3075.71
eigval :     3078.10  3078.16  3078.54  3079.71  3080.40  3081.87
eigval :     3083.41  3083.48  3085.10  3085.95  3086.49  3087.30
eigval :     3090.66  3090.83  3091.21  3094.28  3094.33  3095.53
eigval :     3097.75  3097.90  3098.23  3099.84  3101.30  3101.67
eigval :     3104.35  3106.73  3115.67

   temp. (K)  partition function   enthalpy   heat capacity  entropy
                                   cal/mol     cal/K/mol   cal/K/mol   J/K/mol
 298.15  VIB  0.237E+17            21330.518    136.207    131.647
         ROT  0.695E+08              888.752      2.981     38.864
         INT  0.165E+25            22219.271    139.188    170.511
         TR   0.142E+29             1481.254      4.968     45.042
         TOT                       23700.5247   144.1562   215.5531   901.8743

       T/K    H(0)-H(T)+PV         H(T)/Eh          T*S/Eh         G(T)/Eh
   ------------------------------------------------------------------------
    298.15    0.377692E-01    0.610130E+00    0.102416E+00    0.507714E+00
   ------------------------------------------------------------------------

         :::::::::::::::::::::::::::::::::::::::::::::::::::::
         ::                  THERMODYNAMIC                  ::
         :::::::::::::::::::::::::::::::::::::::::::::::::::::
         :: total free energy        -117.587582010676 Eh   ::
         ::.................................................::
         :: total energy             -118.095295798681 Eh   ::
         :: zero point energy           0.572360846324 Eh   ::
         :: G(RRHO) w/o ZPVE           -0.064647058319 Eh   ::
         :: G(RRHO) contrib.            0.507713788005 Eh   ::
         :::::::::::::::::::::::::::::::::::::::::::::::::::::

           -------------------------------------------------
          | TOTAL ENERGY             -118.095295798681 Eh   |
          | TOTAL ENTHALPY           -117.485165762174 Eh   |
          | TOTAL FREE ENERGY        -117.587582010676 Eh   |
          | GRADIENT NORM               0.000065897914 Eh/α |
          | HOMO-LUMO GAP               2.594427282343 eV   |
           -------------------------------------------------

 * finished run on 2025/09/14 at 09:57:33.100
