   * xtb version 6.7.1 (edcfbbe) compiled by 'albert@albert-system' on 2024-07-22

   ID    Z sym.   atoms
    1    7 N      1, 7, 17, 32
    2    6 C      2-6, 8-16, 18-31, 33-47
    3    1 H      48-75

          program call               : xtb data2507/gas/CNTPA-CZ/CNTPA-CZ.xyz --gfn 2 --ohess vtight --parallel 40 --molden --ceasefiles --namespace data2507/gas/CNTPA-CZ/CNTPA-CZ_gas_S0_preOpt
          :  Hamiltonian                  GFN2-xTB          :
 * total energy  :  -118.0708392 Eh     change       -0.1876913E-08 Eh
 * total energy  :  -118.0868394 Eh     change       -0.1600020E-01 Eh
 * total energy  :  -118.0919843 Eh     change       -0.5144857E-02 Eh
 * total energy  :  -118.0934134 Eh     change       -0.1429121E-02 Eh
 * total energy  :  -118.0940665 Eh     change       -0.6531593E-03 Eh
 * total energy  :  -118.0941205 Eh     change       -0.5400187E-04 Eh
 * total energy  :  -118.0944440 Eh     change       -0.3234111E-03 Eh
 * total energy  :  -118.0945771 Eh     change       -0.1331684E-03 Eh
 * total energy  :  -118.0947692 Eh     change       -0.1921223E-03 Eh
 * total energy  :  -118.0948953 Eh     change       -0.1260515E-03 Eh
 * total energy  :  -118.0952879 Eh     change       -0.2075166E-05 Eh
 * total energy  :  -118.0952897 Eh     change       -0.1760921E-05 Eh
 * total energy  :  -118.0952915 Eh     change       -0.1754282E-05 Eh
 * total energy  :  -118.0952931 Eh     change       -0.1636794E-05 Eh
 * total energy  :  -118.0952942 Eh     change       -0.1053445E-05 Eh
 * total energy  :  -118.0952946 Eh     change       -0.4073422E-06 Eh
 * total energy  :  -118.0952947 Eh     change       -0.1695496E-06 Eh
 * total energy  :  -118.0952949 Eh     change       -0.1210116E-06 Eh
 * total energy  :  -118.0952949 Eh     change       -0.4960657E-07 Eh
   *** GEOMETRY OPTIMIZATION CONVERGED AFTER 43 ITERATIONS ***

 final structure:
================
75
 xtb: 6.7.1 (edcfbbe)
N           -6.84495346567232        4.26607317962316        2.33196393063338
C           -5.81160508883972        3.98457127667684        1.92046991340909
C           -4.54069577235895        3.63802570627549        1.41677627937992
C           -3.81509060394397        2.59550907267077        1.99841317366516
C           -2.57455924525208        2.26087114753035        1.50666413384584
C           -2.02880211518126        2.94884774980040        0.41690272447472
N           -0.78471590462642        2.59205861932184       -0.08320163258745
C            0.07365626749323        3.54922839399448       -0.64920324527220
C            0.81677640431861        3.23122567611166       -1.78431219904880
C            1.68649969480948        4.15750252286542       -2.32671101575900
C            1.81744762929581        5.41219794967132       -1.75471136879995
C            1.07191587677546        5.73551147104480       -0.63294272902840
C            0.20784814901182        4.81168752336794       -0.07646905051140
C           -0.35830398500304        1.25799304746359       -0.03415290797218
C           -1.24315682979004        0.22652888413033       -0.33309625551097
C           -0.81240786200280       -1.09422413282468       -0.28520962649057
N           -1.70749886407086       -2.12683681999228       -0.57874561006280
C           -1.47294882992600       -3.18502263202174       -1.43868823152136
C           -0.36979509914924       -3.45177216062781       -2.23651037302384
C           -0.40777011672478       -4.57873712105232       -3.03565399071097
C           -1.51686450950941       -5.42075612407226       -3.05480445324490
C           -2.62915361956959       -5.14492442521826       -2.28514455922041
C           -2.61413010516754       -4.01783436257820       -1.47443637627975
C           -3.58006285874164       -3.42856069007480       -0.58951914937555
C           -4.86435475184565       -3.79004361836589       -0.20502545952062
C           -5.53362665168010       -2.99132302032189        0.70045677561923
C           -4.93058061711157       -1.85457999787863        1.23283295273520
C           -3.65247915058487       -1.47710395205375        0.86714683290815
C           -2.98419865359972       -2.26069299970266       -0.06228829893120
C            0.51142972687669       -1.38632715554369        0.02888275997948
C            1.39968637581357       -0.35254443896356        0.30838870979132
N            2.73362262710233       -0.63473005857325        0.61570547059295
C            3.83509145296744       -0.00198663797738        0.06753973896063
C            3.89834410823193        0.98734088470281       -0.90312252378443
C            5.14768941878756        1.43006795295282       -1.29401133402231
C            6.31279842126651        0.89900935291375       -0.74635536854255
C            6.25709585146451       -0.10323268634018        0.20140419883544
C            5.01274175772913       -0.56264310342973        0.61173350247934
C            4.59350555001236       -1.57550210100630        1.54002776023866
C            5.28165973680861       -2.43833656365687        2.38253963222935
C            4.55700155453322       -3.29222143887079        3.18962463174406
C            3.16442770526201       -3.27961548743477        3.17545115595188
C            2.45792877148244       -2.43017015096507        2.34519671797009
C            3.18059636064022       -1.58930663696934        1.51133050889420
C            0.96154005772321        0.96621922724197        0.29487669578564
C           -2.75752729460600        3.99639471059485       -0.15615165031427
C           -3.99605546813343        4.33811343348719        0.33736675817404
H           -4.22907533500129        2.06343609122402        2.84223563844884
H           -2.00256146967700        1.47189931150815        1.97258172224689
H            0.70016010172696        2.25751340981658       -2.23843259177950
H            2.25877545385182        3.90035222329392       -3.20570515639477
H            2.49603767448331        6.13460090216893       -2.18145300075505
H            1.17070257347182        6.71088669151757       -0.18045890842219
H           -0.36224939839061        5.05956131390481        0.80696296256538
H           -2.25729692352199        0.45252647249933       -0.62423697501180
H            0.48820972773589       -2.79683606085945       -2.24920671267222
H            0.44124254420279       -4.80852672000373       -3.66233806393441
H           -1.50611662653547       -6.29363016453686       -3.69021951425684
H           -3.49737621299864       -5.78568036571787       -2.31330002623628
H           -5.32420917896142       -4.68011393003798       -0.60689412064011
H           -6.53481246040648       -3.25143427561857        1.00952090701215
H           -5.47242805731810       -1.25519759115699        1.94941986187644
H           -3.19324008467019       -0.60316407677452        1.30214395190008
H            0.84812074946320       -2.41017422003167        0.05223187748042
H            3.00642712620052        1.39934043014366       -1.34926250494915
H            5.22040255924000        2.20431616329997       -2.04346595973940
H            7.27014738997319        1.27342207839101       -1.07671038180078
H            7.15931966435064       -0.52702198846939        0.61566144687947
H            6.36084827338446       -2.43342851417908        2.40602413091824
H            5.07201988320887       -3.97322245863477        3.85050431233929
H            2.62321108525326       -3.94583046864758        3.83084221171362
H            1.37868246140849       -2.41652326187267        2.36089563880311
H            1.64038167108515        1.76373063064913        0.55380311882593
H           -2.34506049833735        4.53088737895425       -0.99875336175430
H           -4.55823072853565        5.14236373324726       -0.11362105143031

          :  Hamiltonian                  GFN2-xTB          :
         :: gradient norm              0.000070454771 Eh/a0 ::
         :: HOMO-LUMO gap              2.597402398491 eV    ::
         :: SCC energy              -120.354152178463 Eh    ::
         :: -> dispersion             -0.109087548337 Eh    ::
         :: repulsion energy           2.258857278336 Eh    ::

    * Orbital Energies and Occupations

         #    Occupation            Energy/Eh            Energy/eV
      -------------------------------------------------------------
         1        2.0000           -0.6867958             -18.6887
       ...           ...                  ...                  ...
        98        2.0000           -0.4226492             -11.5009
        99        2.0000           -0.4225256             -11.4975
       100        2.0000           -0.4209684             -11.4551
       101        2.0000           -0.4204396             -11.4407
       102        2.0000           -0.4191140             -11.4047
       103        2.0000           -0.4173748             -11.3573
       104        2.0000           -0.4095186             -11.1436
       105        2.0000           -0.4088744             -11.1260
       106        2.0000           -0.3829238             -10.4199
       107        2.0000           -0.3822520             -10.4016
       108        2.0000           -0.3722781             -10.1302
       109        2.0000           -0.3685173             -10.0279
       110        2.0000           -0.3674842              -9.9998 (HOMO)
       111                         -0.2720314              -7.4024 (LUMO)
       112                         -0.2544210              -6.9231
       113                         -0.2521833              -6.8623
       114                         -0.2471668              -6.7257
       115                         -0.2458223              -6.6892
       116                         -0.2431911              -6.6176
       117                         -0.2382596              -6.4834
       118                         -0.2261575              -6.1541
       119                         -0.2257188              -6.1421
       120                         -0.2254571              -6.1350
       121                         -0.2021407              -5.5005
       ...                                ...                  ...
       216                          1.1754487              31.9856
      -------------------------------------------------------------
                  HL-Gap            0.0954528 Eh            2.5974 eV

     #   Z          covCN         q      C6AA      α(0)
     1   7 N        0.911    -0.242    26.310     7.418
     2   6 C        1.911     0.110    28.382     8.604
     3   6 C        2.973     0.009    27.822     8.652
     4   6 C        2.925    -0.020    28.502     8.755
     5   6 C        2.922    -0.046    29.153     8.854
     6   6 C        2.922     0.072    26.399     8.426
     7   7 N        2.754    -0.070    22.590     7.059
     8   6 C        2.926     0.063    26.581     8.455
     9   6 C        2.923    -0.045    29.107     8.847
    10   6 C        2.920    -0.027    28.668     8.780
    11   6 C        2.919    -0.034    28.856     8.809
    12   6 C        2.920    -0.027    28.681     8.782
    13   6 C        2.922    -0.045    29.120     8.849
    14   6 C        2.926     0.067    26.510     8.444
    15   6 C        2.925    -0.068    29.703     8.938
    16   6 C        2.911     0.067    26.489     8.440
    17   7 N        2.803    -0.043    22.075     6.978
    18   6 C        3.071     0.046    26.887     8.502
    19   6 C        2.910    -0.051    29.262     8.870
    20   6 C        2.924    -0.033    28.818     8.803
    21   6 C        2.920    -0.040    28.988     8.829
    22   6 C        2.913    -0.032    28.803     8.800
    23   6 C        3.068    -0.016    28.333     8.728
    24   6 C        3.067    -0.016    28.336     8.729
    25   6 C        2.913    -0.032    28.799     8.800
    26   6 C        2.920    -0.039    28.981     8.828
    27   6 C        2.924    -0.033    28.813     8.803
    28   6 C        2.910    -0.052    29.279     8.873
    29   6 C        3.071     0.046    26.892     8.503
    30   6 C        2.925    -0.068    29.703     8.938
    31   6 C        2.911     0.067    26.490     8.440
    32   7 N        2.803    -0.043    22.068     6.977
    33   6 C        3.072     0.046    26.889     8.502
    34   6 C        2.910    -0.052    29.284     8.874
    35   6 C        2.924    -0.033    28.825     8.804
    36   6 C        2.920    -0.040    28.995     8.830
    37   6 C        2.913    -0.032    28.806     8.801
    38   6 C        3.067    -0.016    28.335     8.728
    39   6 C        3.068    -0.016    28.338     8.729
    40   6 C        2.913    -0.032    28.803     8.800
    41   6 C        2.920    -0.040    28.988     8.829
    42   6 C        2.924    -0.033    28.814     8.803
    43   6 C        2.910    -0.051    29.258     8.870
    44   6 C        3.071     0.046    26.885     8.502
    45   6 C        2.926    -0.068    29.699     8.937
    46   6 C        2.921    -0.047    29.165     8.856
    47   6 C        2.925    -0.020    28.511     8.756
    48   1 H        0.926     0.043     2.413     2.429
    49   1 H        0.926     0.035     2.518     2.481
    50   1 H        0.926     0.031     2.570     2.507
    51   1 H        0.926     0.037     2.495     2.470
    52   1 H        0.926     0.036     2.498     2.472
    53   1 H        0.926     0.037     2.486     2.466
    54   1 H        0.926     0.034     2.526     2.485
    55   1 H        0.926     0.046     2.374     2.410
    56   1 H        0.926     0.027     2.627     2.535
    57   1 H        0.926     0.030     2.579     2.511
    58   1 H        0.926     0.030     2.588     2.516
    59   1 H        0.926     0.033     2.547     2.496
    60   1 H        0.926     0.033     2.545     2.495
    61   1 H        0.926     0.031     2.574     2.509
    62   1 H        0.926     0.031     2.578     2.511
    63   1 H        0.926     0.026     2.650     2.546
    64   1 H        0.926     0.054     2.276     2.359
    65   1 H        0.926     0.027     2.625     2.533
    66   1 H        0.926     0.029     2.599     2.521
    67   1 H        0.926     0.030     2.593     2.518
    68   1 H        0.926     0.033     2.549     2.497
    69   1 H        0.926     0.033     2.551     2.497
    70   1 H        0.926     0.030     2.587     2.515
    71   1 H        0.926     0.031     2.573     2.509
    72   1 H        0.926     0.028     2.621     2.532
    73   1 H        0.926     0.046     2.365     2.405
    74   1 H        0.926     0.039     2.462     2.454
    75   1 H        0.926     0.043     2.409     2.427

molecular dipole:
                 x           y           z       tot (Debye)
 q only:        1.392      -0.033      -0.617
   full:        1.777      -0.050      -0.786       4.940

 projected vibrational frequencies (cm⁻¹)
eigval :       -0.00    -0.00     0.00     0.00     0.00     0.00
eigval :       14.01    17.26    20.68    21.29    24.40    25.65
eigval :       43.69    56.04    59.70    71.57    73.73    90.84
eigval :       96.03    98.95   110.73   130.84   138.81   141.71
eigval :      146.27   149.24   175.74   208.49   223.98   237.44
eigval :      245.62   253.01   262.59   264.69   272.66   274.68
eigval :      299.38   307.58   325.76   359.04   365.45   376.68
eigval :      383.29   384.12   395.15   396.28   422.84   423.08
eigval :      437.14   438.15   442.74   460.72   469.56   512.62
eigval :      516.57   518.24   520.62   532.35   532.56   539.14
eigval :      540.97   541.12   545.52   573.52   584.38   588.38
eigval :      589.65   593.83   616.73   621.37   631.62   638.59
eigval :      654.84   661.28   669.57   673.92   675.56   678.10
eigval :      708.37   708.46   718.78   750.16   755.74   764.10
eigval :      768.56   769.48   770.85   780.25   780.98   794.36
eigval :      817.60   840.07   864.81   865.83   867.40   873.75
eigval :      877.58   878.27   890.86   891.09   894.54   897.22
eigval :      898.69   898.94   903.95   904.33   906.51   909.35
eigval :      916.44   921.85   922.92   923.16   923.41   925.99
eigval :      926.27   930.70   931.43   987.35   995.52  1010.64
eigval :     1012.04  1017.72  1037.51  1056.89  1072.07  1072.24
eigval :     1075.24  1075.62  1082.92  1121.69  1123.13  1123.72
eigval :     1137.45  1153.07  1153.39  1164.26  1166.08  1179.96
eigval :     1180.90  1181.10  1181.22  1182.59  1186.98  1193.68
eigval :     1210.07  1228.75  1235.70  1236.11  1237.14  1237.97
eigval :     1252.68  1264.98  1278.47  1289.32  1296.74  1301.04
eigval :     1302.50  1306.46  1315.84  1326.03  1326.96  1331.45
eigval :     1342.42  1358.00  1358.09  1361.41  1362.84  1395.85
eigval :     1412.36  1419.48  1426.11  1427.65  1434.88  1443.11
eigval :     1460.97  1461.81  1472.84  1476.82  1477.64  1484.73
eigval :     1487.84  1487.93  1543.72  1564.96  1567.31  1575.95
eigval :     1576.69  1582.08  1589.00  1589.27  1589.98  1597.59
eigval :     1599.53  1599.96  1614.51  1615.42  2368.35  3075.68
eigval :     3078.09  3078.16  3078.53  3079.71  3080.41  3081.90
eigval :     3083.41  3083.45  3085.07  3085.91  3086.51  3087.34
eigval :     3090.67  3090.78  3091.22  3094.25  3094.29  3095.47
eigval :     3097.72  3097.87  3098.28  3099.74  3101.16  3101.68
eigval :     3104.29  3106.59  3115.46

   temp. (K)  partition function   enthalpy   heat capacity  entropy
                                   cal/mol     cal/K/mol   cal/K/mol   J/K/mol
 298.15  VIB  0.241E+17            21331.440    136.206    131.662
         ROT  0.695E+08              888.752      2.981     38.864
         INT  0.167E+25            22220.192    139.187    170.526
         TR   0.142E+29             1481.254      4.968     45.042
         TOT                       23701.4460   144.1548   215.5679   901.9362

       T/K    H(0)-H(T)+PV         H(T)/Eh          T*S/Eh         G(T)/Eh
   ------------------------------------------------------------------------
    298.15    0.377707E-01    0.610127E+00    0.102423E+00    0.507704E+00
   ------------------------------------------------------------------------

         :::::::::::::::::::::::::::::::::::::::::::::::::::::
         ::                  THERMODYNAMIC                  ::
         :::::::::::::::::::::::::::::::::::::::::::::::::::::
         :: total free energy        -117.587591256012 Eh   ::
         ::.................................................::
         :: total energy             -118.095294900115 Eh   ::
         :: zero point energy           0.572356262109 Eh   ::
         :: G(RRHO) w/o ZPVE           -0.064652618006 Eh   ::
         :: G(RRHO) contrib.            0.507703644103 Eh   ::
         :::::::::::::::::::::::::::::::::::::::::::::::::::::

           -------------------------------------------------
          | TOTAL ENERGY             -118.095294900115 Eh   |
          | TOTAL ENTHALPY           -117.485167979539 Eh   |
          | TOTAL FREE ENERGY        -117.587591256012 Eh   |
          | GRADIENT NORM               0.000070446810 Eh/α |
          | HOMO-LUMO GAP               2.597404057437 eV   |
           -------------------------------------------------

 * finished run on 2025/09/14 at 09:52:59.448
