   * xtb version 6.7.1 (edcfbbe) compiled by 'albert@albert-system' on 2024-07-22

   ID    Z sym.   atoms
    1    7 N      1, 7, 17, 32
    2    6 C      2-6, 8-16, 18-31, 33-47
    3    1 H      48-75

          program call               : xtb data2507/gas/CNTPA-CZ/CNTPA-CZ_gas_T1_crest.xyz --gfn 2 --spinpol --tblite --uhf 2 --ohess vtight --parallel 40 --molden --ceasefiles --namespace data2507/gas/CNTPA-CZ/CNTPA-CZ_gas_T1_finalOpt
 * total energy  :  -117.9966852 Eh     change       -0.2107943E-07 Eh
 * total energy  :  -117.9967971 Eh     change       -0.1119155E-03 Eh
 * total energy  :  -117.9968479 Eh     change       -0.5078405E-04 Eh
 * total energy  :  -117.9968516 Eh     change       -0.3721991E-05 Eh
 * total energy  :  -117.9968529 Eh     change       -0.1209907E-05 Eh
 * total energy  :  -117.9968531 Eh     change       -0.2819964E-06 Eh
 * total energy  :  -117.9968545 Eh     change       -0.1313831E-05 Eh
 * total energy  :  -117.9968554 Eh     change       -0.9904586E-06 Eh
 * total energy  :  -117.9968563 Eh     change       -0.8756578E-06 Eh
 * total energy  :  -117.9968572 Eh     change       -0.9058909E-06 Eh
 * total energy  :  -117.9968583 Eh     change       -0.1066080E-05 Eh
 * total energy  :  -117.9968595 Eh     change       -0.1179069E-05 Eh
 * total energy  :  -117.9968606 Eh     change       -0.1121750E-05 Eh
 * total energy  :  -117.9968614 Eh     change       -0.8262894E-06 Eh
 * total energy  :  -117.9968619 Eh     change       -0.4715460E-06 Eh
 * total energy  :  -117.9968624 Eh     change       -0.4697223E-06 Eh
 * total energy  :  -117.9968627 Eh     change       -0.3087999E-06 Eh
 * total energy  :  -117.9968629 Eh     change       -0.1898222E-06 Eh
 * total energy  :  -117.9968629 Eh     change       -0.8389212E-07 Eh
   *** GEOMETRY OPTIMIZATION CONVERGED AFTER 19 ITERATIONS ***

 final structure:
================
75
 xtb: 6.7.1 (edcfbbe)
N           -7.36587088254044        2.69145720991344        2.03606163739557
C           -6.27055929267932        2.66630321386593        1.64559634240157
C           -4.97489903060699        2.63261955503935        1.18623322848144
C           -3.98246882638833        1.81416419713395        1.83667836075407
C           -2.71600305252831        1.76713553138422        1.37015795505495
C           -2.31856936887662        2.54534358168301        0.23089882925228
N           -1.03956446052280        2.44510967126907       -0.26511276605749
C           -0.39996230585050        3.55035943843179       -0.82093910749375
C            0.46229295345534        3.39076580598111       -1.91233979255088
C            1.08580810326222        4.48766916308088       -2.46662388646271
C            0.85738506753273        5.75832873409485       -1.95466613695858
C           -0.00506764365349        5.92299920850186       -0.87940178545147
C           -0.63181693015590        4.83350596465598       -0.31240422134699
C           -0.38125982054059        1.22020851501187       -0.20469815797493
C           -1.09417328493508        0.03419299720821       -0.42507750370256
C           -0.45508669909230       -1.18955583649963       -0.31149608391149
N           -1.16135645677698       -2.37174837211089       -0.54316277644862
C           -2.40994435283353       -2.68568124313793       -0.03198226584772
C           -3.22205629713324       -1.96738167211373        0.83348016346015
C           -4.42688447915678       -2.53148020356073        1.20848264600569
C           -4.81695588168266       -3.78653817099620        0.74857998479105
C           -4.00128054975316       -4.51822841618667       -0.09188495258903
C           -2.78820815291185       -3.96951063483400       -0.48495867425351
C           -1.71815696379770       -4.44292126167254       -1.31906342693673
C           -1.52718407436139       -5.60562069368793       -2.05253207090751
C           -0.36948892165188       -5.73751325627427       -2.79395656134836
C            0.58019868088391       -4.71971131921423       -2.82321990972188
C            0.41143509167723       -3.55324357278817       -2.10091657715236
C           -0.73494696977671       -3.42771472513210       -1.32949172499042
C            0.90247292777116       -1.24376075530048        0.01725181863872
C            1.61585967284490       -0.05918567202498        0.22637829993760
N            2.97437823883853       -0.11435934056324        0.54785169818253
C            3.97458950117052        0.63904311071829       -0.04055133526254
C            3.89959611801274        1.56069785719034       -1.07466127598224
C            5.07293932975940        2.15718714246400       -1.49592300980031
C            6.29860799031410        1.84279026926359       -0.91449979166202
C            6.38340165556264        0.90826606568458        0.09839855715413
C            5.21748814722024        0.29698266585418        0.53908074491150
C            4.94487833029097       -0.70441557113872        1.53246569866838
C            5.74562163829474       -1.39850536248455        2.42934970163834
C            5.14800187595072       -2.29650639088906        3.29123619058825
C            3.76919907467410       -2.49212346941962        3.27727172894416
C            2.95203605571128       -1.81237199797515        2.39382114776875
C            3.55006057808944       -0.93030684902305        1.50554163388765
C            0.97922828420070        1.16597078288933        0.12428313524611
C           -3.29446213231744        3.38907527225172       -0.39727004019836
C           -4.56874099147040        3.42305614929234        0.04980687203418
H           -4.27568804376490        1.25991460684237        2.71548609866623
H           -1.95557452547772        1.19570680402778        1.88392330425548
H            0.61035821703655        2.40444769821738       -2.32762699786165
H            1.74670754935576        4.35669090638696       -3.31024986649130
H            1.34665039167753        6.61412934208984       -2.39272533637190
H           -0.18143899267106        6.90843360982985       -0.47564424430587
H           -1.28371564447281        4.95312842330486        0.54000677557039
H           -2.12820448583743        0.08393926489178       -0.72814715485055
H           -2.93059538993749       -1.00037422805794        1.21192839507825
H           -5.07899802859049       -1.98491741816477        1.87305404928202
H           -5.76722439965064       -4.19166608218255        1.06186627549702
H           -4.29480263445328       -5.49780326338751       -0.43737341921358
H           -2.27395266213560       -6.38487052514186       -2.04503856276721
H           -0.19984416052590       -6.63475683981045       -3.36996386491717
H            1.46694837671033       -4.84094785547247       -3.42751191001166
H            1.14539138685432       -2.76336699461441       -2.15354058169930
H            1.39966297718540       -2.19545343799412        0.10643293985131
H            2.96027595828040        1.80386697385146       -1.54657724323527
H            5.03751357631399        2.88159331245716       -2.29611731679489
H            7.19277710229052        2.33254883273135       -1.26977115719341
H            7.33463358167360        0.65166534822245        0.53922004842367
H            6.81181470966077       -1.23181839188961        2.45196546672840
H            5.75227006961064       -2.84854516222193        3.99529041858962
H            3.32678157942909       -3.18686956572879        3.97558093918182
H            1.88244046505570       -1.95697320763065        2.41038732959283
H            1.51660362892494        2.07766236962064        0.33424686370070
H           -2.99872646501082        3.95182941393065       -1.27078515241792
H           -5.31493448785351        4.03016816745709       -0.43956132287118

 projected vibrational frequencies (cm⁻¹)
eigval :       -0.00    -0.00    -0.00     0.00     0.00     0.00
eigval :       14.91    16.50    19.98    21.47    24.75    26.69
eigval :       39.43    57.42    62.13    72.51    75.69    91.71
eigval :       95.10    98.24   106.42   128.35   138.59   140.81
eigval :      141.47   148.42   172.79   205.13   222.64   225.92
eigval :      240.97   249.80   258.78   262.81   271.81   273.72
eigval :      288.66   300.83   307.70   328.82   358.69   366.22
eigval :      376.04   384.70   393.82   395.63   401.56   421.00
eigval :      422.34   422.80   436.59   437.69   451.71   467.03
eigval :      510.20   517.42   519.49   520.16   528.57   531.78
eigval :      540.01   540.46   542.49   568.28   573.61   585.96
eigval :      587.03   587.61   598.07   604.55   616.78   623.60
eigval :      632.19   651.28   654.01   659.32   673.66   674.05
eigval :      706.88   708.27   710.85   749.54   752.54   754.39
eigval :      761.53   767.87   769.01   769.69   776.07   779.51
eigval :      780.43   791.46   821.18   856.34   858.71   865.98
eigval :      873.20   874.54   876.22   880.97   883.50   885.32
eigval :      890.59   892.55   893.64   895.59   899.06   903.30
eigval :      904.13   905.54   906.31   921.55   922.71   923.73
eigval :      924.21   924.38   925.80   936.91   967.94   979.26
eigval :     1009.53  1011.99  1035.69  1039.97  1071.73  1072.47
eigval :     1074.04  1074.89  1075.50  1119.23  1120.55  1120.84
eigval :     1122.87  1140.00  1151.68  1152.15  1157.37  1164.43
eigval :     1170.51  1176.66  1179.11  1179.79  1180.17  1181.34
eigval :     1183.45  1203.90  1225.21  1234.65  1234.72  1236.25
eigval :     1241.81  1256.08  1265.53  1275.33  1292.79  1294.67
eigval :     1296.40  1299.24  1300.00  1308.77  1326.03  1330.20
eigval :     1336.91  1345.72  1357.21  1357.46  1357.85  1360.85
eigval :     1372.54  1393.27  1399.90  1410.22  1424.27  1425.14
eigval :     1426.29  1435.79  1442.58  1445.89  1472.27  1474.44
eigval :     1479.14  1483.41  1486.68  1487.50  1525.83  1529.36
eigval :     1558.75  1573.43  1574.43  1586.57  1587.96  1595.26
eigval :     1597.12  1607.59  1610.12  1611.78  2159.41  3065.02
eigval :     3074.57  3078.42  3078.54  3078.93  3079.55  3082.72
eigval :     3084.07  3084.16  3085.56  3086.03  3088.29  3090.32
eigval :     3091.02  3091.24  3091.85  3094.83  3095.25  3095.92
eigval :     3097.03  3098.03  3098.64  3099.92  3103.49  3104.24
eigval :     3105.15  3106.58  3119.96

   temp. (K)  partition function   enthalpy   heat capacity  entropy
                                   cal/mol     cal/K/mol   cal/K/mol   J/K/mol
 298.15  VIB  0.368E+17            21679.159    138.285    133.638
         ROT  0.690E+08              888.752      2.981     38.851
         INT  0.254E+25            22567.911    141.266    172.489
         TR   0.142E+29             1481.254      4.968     45.042
         TOT                       24049.1654   146.2344   217.5307   910.1487

       T/K    H(0)-H(T)+PV         H(T)/Eh          T*S/Eh         G(T)/Eh
   ------------------------------------------------------------------------
    298.15    0.383248E-01    0.605835E+00    0.103356E+00    0.502480E+00
   ------------------------------------------------------------------------

         :::::::::::::::::::::::::::::::::::::::::::::::::::::
         ::                  THERMODYNAMIC                  ::
         :::::::::::::::::::::::::::::::::::::::::::::::::::::
         :: total free energy        -117.494383448126 Eh   ::
         ::.................................................::
         :: total energy             -117.996862950067 Eh   ::
         :: zero point energy           0.567510595395 Eh   ::
         :: G(RRHO) w/o ZPVE           -0.065031093454 Eh   ::
         :: G(RRHO) contrib.            0.502479501941 Eh   ::
         :::::::::::::::::::::::::::::::::::::::::::::::::::::

           -------------------------------------------------
          | TOTAL ENERGY             -117.996862950067 Eh   |
          | TOTAL ENTHALPY           -117.391027570139 Eh   |
          | TOTAL FREE ENERGY        -117.494383448126 Eh   |
          | GRADIENT NORM               0.000049334344 Eh/α |
           -------------------------------------------------

 * finished run on 2025/09/14 at 10:04:00.996
