   * xtb version 6.7.1 (edcfbbe) compiled by 'albert@albert-system' on 2024-07-22

   ID    Z sym.   atoms
    1    7 N      1, 7, 17, 32
    2    6 C      2-6, 8-16, 18-31, 33-47
    3    1 H      48-75

          program call               : xtb data2507/gas/CNTPA-CZ/CNTPA-CZ_gas_S0_finalOpt.xtbopt.xyz --gfn 2 --spinpol --tblite --uhf 2 --ohess vtight --parallel 40 --molden --ceasefiles --namespace data2507/gas/CNTPA-CZ/CNTPA-CZ_gas_T1_preOpt
 * total energy  :  -117.9905258 Eh     change        0.7294263E-07 Eh
 * total energy  :  -117.9945234 Eh     change       -0.3997548E-02 Eh
 * total energy  :  -117.9961487 Eh     change       -0.1625348E-02 Eh
 * total energy  :  -117.9965052 Eh     change       -0.3565330E-03 Eh
 * total energy  :  -117.9965851 Eh     change       -0.7983591E-04 Eh
 * total energy  :  -117.9966188 Eh     change       -0.3368833E-04 Eh
 * total energy  :  -117.9966357 Eh     change       -0.1697619E-04 Eh
 * total energy  :  -117.9966584 Eh     change       -0.2265864E-04 Eh
 * total energy  :  -117.9966918 Eh     change       -0.3340066E-04 Eh
 * total energy  :  -117.9967059 Eh     change       -0.1407767E-04 Eh
 * total energy  :  -117.9968606 Eh     change       -0.4579951E-06 Eh
 * total energy  :  -117.9968611 Eh     change       -0.4714792E-06 Eh
 * total energy  :  -117.9968615 Eh     change       -0.4283659E-06 Eh
 * total energy  :  -117.9968620 Eh     change       -0.4406299E-06 Eh
 * total energy  :  -117.9968624 Eh     change       -0.4187554E-06 Eh
 * total energy  :  -117.9968626 Eh     change       -0.2553310E-06 Eh
 * total energy  :  -117.9968628 Eh     change       -0.1503603E-06 Eh
 * total energy  :  -117.9968630 Eh     change       -0.1589685E-06 Eh
 * total energy  :  -117.9968630 Eh     change       -0.9178113E-07 Eh
   *** GEOMETRY OPTIMIZATION CONVERGED AFTER 40 ITERATIONS ***

 final structure:
================
75
 xtb: 6.7.1 (edcfbbe)
N           -7.44931596297705        2.48316725562148        1.97095129162454
C           -6.35193750100225        2.48692263546224        1.58551334133157
C           -5.05375816234809        2.48779758626726        1.13208001325088
C           -4.03921289059646        1.70932199871002        1.79732499272568
C           -2.77018993228352        1.69456258491756        1.33567241855309
C           -2.39247923700759        2.46843487280868        0.18679207442645
N           -1.10973729059091        2.39898077007925       -0.30464958266629
C           -0.50091819116429        3.51494294331108       -0.87382133269928
C            0.36766777123105        3.36577132074403       -1.96164429252532
C            0.96239297469054        4.47247355790219       -2.52796204007269
C            0.69829795338949        5.74247510188907       -2.03177942852051
C           -0.17131903529014        5.89656658574579       -0.96074358308631
C           -0.76956786378046        4.79729462985182       -0.38184894979671
C           -0.41521139336846        1.19538127265198       -0.22598455083473
C           -1.09129342847431       -0.01492920386669       -0.42989099517437
C           -0.41477453916458       -1.21673226389722       -0.29949360268530
N           -1.08483560209251       -2.42324146797650       -0.51290792758013
C           -2.32192949576270       -2.76779846084383        0.00649463053738
C           -3.15415298601933       -2.06147600003460        0.86264970385940
C           -4.33986717873084       -2.65686582704199        1.24995746956355
C           -4.69153868064672       -3.93068766652315        0.81116382563208
C           -3.85528271484680       -4.64987962373343       -0.01980815320059
C           -2.66083940881843       -4.06990762769331       -0.42488064547573
C           -1.57815483961023       -4.52309707238243       -1.25388281541647
C           -1.35225999373091       -5.69118586960060       -1.96860191426359
C           -0.19223223823361       -5.79914166090612       -2.71025087536769
C            0.72518074096739       -4.75284592539614       -2.75824659800682
C            0.52132931457969       -3.58046219376452       -2.05480199938189
C           -0.62711029425737       -3.47803421282359       -1.28301576765808
C            0.94397716769271       -1.22467577263451        0.02869330361859
C            1.62033419746343       -0.01596814302036        0.22235504371749
N            2.97973005742577       -0.02415898300999        0.54451742464188
C            3.95501239597518        0.75636050630388       -0.05044712328846
C            3.85111306124796        1.66282739813304       -1.09544397806899
C            5.00425229249091        2.29474410653183       -1.52078408246519
C            6.23845488353492        2.02964098010047       -0.93289839639378
C            6.35274026279311        1.11008732262456        0.09074076474587
C            5.20744357853342        0.46394593124590        0.53574150236984
C            4.96688279828816       -0.53479859393366        1.54001263563638
C            5.78885463231338       -1.19062190579197        2.44642957956867
C            5.22039333987979       -2.09865272836637        3.31747822144150
C            3.84914730009513       -2.34154023869995        3.30311989276341
C            3.01121521536346       -1.70038374654829        2.41031015140651
C            3.58068091666096       -0.80864484581884        1.51296856609172
C            0.94594176921195        1.18734367185582        0.10453005148999
C           -3.39090859603190        3.27434609767007       -0.45539645952269
C           -4.66731533818450        3.27555154287023       -0.01310972041837
H           -4.31869474763553        1.15874837150786        2.68288987917307
H           -1.99440934868123        1.15407748904902        1.85989010037138
H            0.54353499866784        2.37885414858867       -2.36451351081090
H            1.62881517402587        4.34932385016663       -3.36842611738390
H            1.16541742448114        6.60593112100449       -2.47891029860700
H           -0.37568223410587        6.88166691827889       -0.56955985446725
H           -1.42681545898803        4.90942853264675        0.46747057652529
H           -2.12629429274508       -0.00130644074765       -0.73341446252463
H           -2.89216754913437       -1.07994569242299        1.22485024986875
H           -5.00719089153270       -2.12041719932572        1.90763460373770
H           -5.62794588971907       -4.36024201872035        1.13351274699895
H           -4.11881277228187       -5.64354354982144       -0.34884951112580
H           -2.07433589722174       -6.49310611987150       -1.94662690574184
H            0.00440352225967       -6.70007153994229       -3.27173866050496
H            1.61429966297713       -4.85635941033729       -3.36235351057714
H            1.23024152545721       -2.76909879938449       -2.12191392149095
H            1.47035304709242       -2.15933926133297        0.12962805345026
H            2.90533138711567        1.86788070623204       -1.57246932741095
H            4.94592984578320        3.00834287704575       -2.32930185227311
H            7.11610281828741        2.54605472164765       -1.29159560215779
H            7.31108791772535        0.89152659744935        0.53661662563739
H            6.84862286236341       -0.98709255303240        2.46925347431175
H            5.84159143150703       -2.62150470783695        4.02903965658466
H            3.42914719000158       -3.04300696162253        4.00851748070955
H            1.94717993642850       -1.88134505497459        2.42669329260588
H            1.45457485695905        2.11786355277720        0.30314186632851
H           -3.10893056182733        3.83463394794461       -1.33502763736916
H           -5.42969189247759        3.85349826373181       -0.51273413712856

 projected vibrational frequencies (cm⁻¹)
eigval :       -0.00    -0.00    -0.00     0.00     0.00     0.00
eigval :       15.28    16.98    20.18    21.39    24.71    26.69
eigval :       39.62    57.69    62.08    72.53    75.69    91.80
eigval :       94.76    98.14   106.34   128.93   138.50   140.76
eigval :      141.41   148.39   172.77   205.14   222.54   225.90
eigval :      241.00   249.61   258.76   263.08   271.78   273.69
eigval :      288.65   300.76   307.59   328.82   358.83   366.15
eigval :      375.96   384.58   393.76   395.57   401.53   420.81
eigval :      422.29   422.74   436.55   437.68   451.73   467.09
eigval :      510.19   517.40   519.49   520.16   528.55   531.86
eigval :      539.96   540.41   542.49   568.35   573.60   585.93
eigval :      587.02   587.61   598.05   604.54   616.74   623.53
eigval :      632.14   651.41   654.08   659.23   673.65   674.04
eigval :      706.87   708.28   710.85   749.56   752.55   754.37
eigval :      761.60   767.73   768.85   769.66   776.13   779.35
eigval :      780.26   791.53   820.96   856.10   858.56   865.92
eigval :      873.04   874.42   876.14   880.91   883.30   885.21
eigval :      890.55   892.52   893.54   895.56   899.04   903.19
eigval :      903.98   905.34   906.14   921.40   922.54   923.51
eigval :      924.03   924.23   925.73   936.72   967.79   979.23
eigval :     1009.52  1011.98  1035.67  1040.11  1071.67  1072.34
eigval :     1073.90  1074.85  1075.44  1119.08  1120.40  1120.93
eigval :     1122.69  1139.96  1151.52  1151.98  1157.24  1164.40
eigval :     1170.18  1176.52  1178.94  1179.56  1179.89  1181.15
eigval :     1183.24  1203.82  1225.15  1234.50  1234.67  1236.12
eigval :     1241.68  1256.11  1265.45  1275.20  1292.58  1294.57
eigval :     1296.27  1299.14  1299.90  1308.70  1325.91  1330.15
eigval :     1336.89  1345.84  1357.25  1357.44  1357.81  1360.82
eigval :     1372.49  1393.29  1399.87  1410.29  1424.16  1425.07
eigval :     1426.22  1435.75  1442.53  1445.87  1472.22  1474.44
eigval :     1479.16  1483.31  1486.64  1487.47  1525.85  1529.43
eigval :     1558.76  1573.42  1574.43  1586.55  1587.93  1595.24
eigval :     1597.12  1607.67  1610.12  1611.74  2159.58  3064.73
eigval :     3074.68  3078.33  3078.47  3078.82  3079.44  3082.58
eigval :     3083.93  3084.08  3085.42  3085.94  3088.17  3090.20
eigval :     3090.88  3091.15  3091.74  3094.83  3095.28  3095.89
eigval :     3096.91  3097.97  3098.56  3099.95  3103.73  3104.51
eigval :     3105.30  3106.79  3120.25

   temp. (K)  partition function   enthalpy   heat capacity  entropy
                                   cal/mol     cal/K/mol   cal/K/mol   J/K/mol
 298.15  VIB  0.347E+17            21678.794    138.305    133.594
         ROT  0.690E+08              888.752      2.981     38.850
         INT  0.239E+25            22567.546    141.286    172.444
         TR   0.142E+29             1481.254      4.968     45.042
         TOT                       24048.8002   146.2545   217.4858   909.9608

       T/K    H(0)-H(T)+PV         H(T)/Eh          T*S/Eh         G(T)/Eh
   ------------------------------------------------------------------------
    298.15    0.383242E-01    0.605814E+00    0.103335E+00    0.502479E+00
   ------------------------------------------------------------------------

         :::::::::::::::::::::::::::::::::::::::::::::::::::::
         ::                  THERMODYNAMIC                  ::
         :::::::::::::::::::::::::::::::::::::::::::::::::::::
         :: total free energy        -117.494383662850 Eh   ::
         ::.................................................::
         :: total energy             -117.996863048848 Eh   ::
         :: zero point energy           0.567489727396 Eh   ::
         :: G(RRHO) w/o ZPVE           -0.065010341399 Eh   ::
         :: G(RRHO) contrib.            0.502479385998 Eh   ::
         :::::::::::::::::::::::::::::::::::::::::::::::::::::

           -------------------------------------------------
          | TOTAL ENERGY             -117.996863048848 Eh   |
          | TOTAL ENTHALPY           -117.391049118870 Eh   |
          | TOTAL FREE ENERGY        -117.494383662850 Eh   |
          | GRADIENT NORM               0.000094735683 Eh/α |
           -------------------------------------------------

 * finished run on 2025/09/14 at 09:57:42.132
