   * xtb version 6.7.1 (edcfbbe) compiled by 'albert@albert-system' on 2024-07-22

   ID    Z sym.   atoms
    1    6 C      1-28, 30-43, 45-61
    2    7 N      29, 44
    3    1 H      62-99

          program call               : xtb data2507/gas/PIAnTPh/PIAnTPh_gas_T1_crest.xyz --gfn 2 --spinpol --tblite --uhf 2 --ohess vtight --parallel 40 --molden --ceasefiles --namespace data2507/gas/PIAnTPh/PIAnTPh_gas_T1_finalOpt
 * total energy  :  -151.5488925 Eh     change       -0.2514724E-07 Eh
 * total energy  :  -151.5489522 Eh     change       -0.5968148E-04 Eh
 * total energy  :  -151.5489835 Eh     change       -0.3131693E-04 Eh
 * total energy  :  -151.5489966 Eh     change       -0.1307283E-04 Eh
 * total energy  :  -151.5490056 Eh     change       -0.8952315E-05 Eh
 * total energy  :  -151.5490161 Eh     change       -0.1054288E-04 Eh
 * total energy  :  -151.5490225 Eh     change       -0.6407592E-05 Eh
 * total energy  :  -151.5490306 Eh     change       -0.8112022E-05 Eh
 * total energy  :  -151.5490340 Eh     change       -0.3355106E-05 Eh
 * total energy  :  -151.5490357 Eh     change       -0.1704287E-05 Eh
 * total energy  :  -151.5490443 Eh     change       -0.1300558E-05 Eh
 * total energy  :  -151.5490454 Eh     change       -0.1077669E-05 Eh
 * total energy  :  -151.5490463 Eh     change       -0.8957195E-06 Eh
 * total energy  :  -151.5490470 Eh     change       -0.7566851E-06 Eh
 * total energy  :  -151.5490478 Eh     change       -0.7524844E-06 Eh
 * total energy  :  -151.5490486 Eh     change       -0.7871585E-06 Eh
 * total energy  :  -151.5490492 Eh     change       -0.5954672E-06 Eh
 * total energy  :  -151.5490498 Eh     change       -0.5844856E-06 Eh
 * total energy  :  -151.5490498 Eh     change       -0.2246938E-07 Eh
   *** GEOMETRY OPTIMIZATION CONVERGED AFTER 22 ITERATIONS ***

 final structure:
================
99
 xtb: 6.7.1 (edcfbbe)
C           -9.74271706679747       -3.56651174306801       -3.08997907255966
C          -10.10966374744375       -2.23595867527542       -2.97763681022538
C           -9.36106758733245       -1.37119847807087       -2.20115745705912
C           -8.22882288888768       -1.82304433321626       -1.52794642272546
C           -7.43179058731133       -0.90807266356266       -0.69611075526784
C           -8.05599035931298        0.02619477721026        0.12507371610732
C           -7.30892819506703        0.89226683100850        0.91802621528842
C           -7.97621929310481        1.87938452664079        1.78099255111691
C           -9.11819279017283        1.53940776362648        2.50186411307364
C           -9.74424953025192        2.47131978534357        3.30852609274609
C           -9.24317055219200        3.75872812445951        3.40406604679520
C           -8.10882344139261        4.10777274535404        2.69055676011350
C           -7.47820903272611        3.17587078075773        1.88759776514375
C           -5.92207900940353        0.81545865796854        0.88283880760189
C           -5.27399977556842       -0.11331870752723        0.06888575740387
C           -3.81330750582533       -0.18773917404066        0.04376843710339
C           -3.04947535012827        0.97579277178437       -0.27960157050590
C           -3.66262100697646        2.17456571488660       -0.65334060522839
C           -2.92101135147417        3.33255026670014       -0.87409483448810
C           -1.55318580600844        3.30912184031519       -0.71369080727344
C           -0.91189939406376        2.11283482036111       -0.39719102854177
C           -1.62498485283716        0.92346770883550       -0.23384847661458
C           -0.96868082799394       -0.32546511602281        0.01644698531233
C            0.48367158253254       -0.39015612518352        0.02606952559145
C            1.17811406467134       -0.93620526734549        1.11504945617853
C            2.55223760305965       -0.95612286808560        1.13944448645421
C            3.29653679174323       -0.43893578248076        0.07348497795133
C            4.74053976081852       -0.47284410502407        0.17192173332390
N            5.39286933892501       -1.41753612441317        0.80630594381058
C            6.70888462491162       -1.11714769911716        0.67835144087166
C            7.82302116164209       -1.86051121414080        1.15798511016255
C            7.64623685410995       -3.06415724225552        1.84820199275327
C            8.73385758314751       -3.78361379969550        2.27602489300658
C           10.01611773093622       -3.30611311247535        2.01262542255232
C           10.20106456339817       -2.12090338686285        1.33953398781264
C            9.11507539095100       -1.35183437691324        0.89425339278732
C            9.27542917168597       -0.07895706425852        0.21227079209836
C           10.54049088286691        0.48848817454424        0.00548604378264
C           10.70195125953643        1.71350941823122       -0.59738760216186
C            9.58965476898347        2.44061226902906       -1.00893902058171
C            8.33270585427655        1.91702734211608       -0.83362729652881
C            8.14738353109220        0.65617808905424       -0.24771740848841
C            6.86860810569162        0.06618508300637       -0.04462489974213
N            5.59361505389099        0.46508121613142       -0.37473132003156
C            5.18208006236649        1.60004877057969       -1.10010903281542
C            4.39988719738730        2.56587340400633       -0.47731695742593
C            3.95540448742085        3.65769770349784       -1.20063997769992
C            4.28987868128510        3.79125369232617       -2.53792323371123
C            5.07270490282448        2.82955259028371       -3.15656123133433
C            5.51770447125202        1.73113499512399       -2.44457113932300
C            2.61156385905624        0.05769913256544       -1.03852210249188
C            1.23579543947017        0.09091129637718       -1.05340806390248
C           -1.73883836484854       -1.50710254563925        0.26687604201470
C           -1.13880678799473       -2.76022723924915        0.40357289414748
C           -1.88485588363688       -3.89293651276969        0.72484670673391
C           -3.24443588081871       -3.78593027969103        0.91870142888242
C           -3.87669423371832       -2.56011507360998        0.72466826710277
C           -3.16021188345410       -1.42255401273945        0.34344627597777
C           -6.04379265018074       -0.97009757704712       -0.71739773320406
C           -7.86634919267671       -3.16234742078199       -1.65114628675132
C           -8.61928694071680       -4.02663542547900       -2.42375436200765
H          -10.32967264837636       -4.24202295583200       -3.69466640464375
H          -10.98261820487139       -1.87040334636089       -3.49892413344968
H           -9.64324439368709       -0.33058702470745       -2.13039813210703
H           -9.13434658827684        0.07982600944309        0.14736014990585
H           -9.50438000479677        0.53193806218610        2.44419956847818
H          -10.62617780410863        2.19202042325554        3.86672815561357
H           -9.73440673057286        4.48690660018158        4.03250091343566
H           -7.71499687036511        5.11157446014666        2.75916084550100
H           -6.60156249875059        3.45874903326880        1.32267814384591
H           -5.33289591652387        1.45178882118189        1.52716888089266
H           -4.73422448804316        2.20502986579866       -0.77879012729397
H           -3.42646322590827        4.24457776415814       -1.15521792061761
H           -0.96888025441168        4.20803616532395       -0.84318297668626
H            0.15995611423116        2.11362806767495       -0.27076281658621
H            0.61883638303345       -1.30233951797814        1.96372676626654
H            3.08440162136412       -1.35775498750942        1.98761152785105
H            6.63633041544417       -3.40176493277317        2.02180367137662
H            8.60273542165175       -4.71433221504891        2.80801143439887
H           10.87587944910888       -3.87251839943898        2.34068968014335
H           11.21230790743367       -1.79357704073048        1.15681198524435
H           11.42326364155243       -0.03655550464797        0.33277184307807
H           11.69339229984401        2.11790762848298       -0.73910009489458
H            9.71253640092154        3.41413723450833       -1.46014503465098
H            7.47312697476230        2.49327413209710       -1.13706512642510
H            4.14287774749145        2.45017427447913        0.56519677728884
H            3.34707019915142        4.40687059757952       -0.71675999626921
H            3.94045520937269        4.64423760531541       -3.09959692162000
H            5.33345094648523        2.93117998362008       -4.19933563941831
H            6.12409591575439        0.97231697593588       -2.91759795278089
H            3.15410860261395        0.39418615124468       -1.90885917728047
H            0.72055328205096        0.45555761844744       -1.93037855750455
H           -0.07538717823328       -2.86121170581648        0.25075469501191
H           -1.38683034846351       -4.84480057123358        0.83266655706227
H           -3.82850818093669       -4.64768816193378        1.20587443131374
H           -4.94274834471699       -2.48865337666308        0.87777816463010
H           -5.54777954119117       -1.66025699887057       -1.38437783167227
H           -6.99906009182691       -3.53121739068909       -1.12260335563145
H           -8.32980927112545       -5.06437002088399       -2.50545245702332

 projected vibrational frequencies (cm⁻¹)
eigval :       -0.00    -0.00     0.00     0.00     0.00     0.00
eigval :        5.84     6.29     9.76    19.62    20.25    25.43
eigval :       32.88    41.90    43.19    45.06    47.40    48.45
eigval :       50.56    63.71    72.81    76.08    84.14    91.30
eigval :       92.22    99.98   109.58   110.34   123.91   140.56
eigval :      163.80   169.27   171.87   180.15   203.97   217.43
eigval :      225.79   228.88   230.35   248.72   251.84   263.44
eigval :      269.16   274.86   279.66   295.52   304.42   322.59
eigval :      334.48   349.00   365.91   372.42   373.77   375.97
eigval :      377.66   382.03   386.61   392.96   396.25   400.74
eigval :      411.07   415.03   423.02   424.31   436.29   446.48
eigval :      468.81   471.37   474.74   484.37   506.17   518.34
eigval :      522.33   524.12   534.65   538.00   570.17   581.54
eigval :      582.32   583.05   585.45   588.32   589.36   593.31
eigval :      594.85   605.07   610.67   625.19   628.62   634.95
eigval :      643.16   651.62   655.63   668.07   669.96   672.40
eigval :      673.19   676.33   681.65   683.05   689.96   700.51
eigval :      706.23   717.12   733.45   735.57   748.53   757.54
eigval :      757.69   761.10   763.00   766.37   773.25   781.95
eigval :      795.72   820.83   828.55   838.53   846.54   853.24
eigval :      861.96   870.74   874.32   875.82   876.01   877.51
eigval :      888.75   890.43   893.08   899.91   901.02   901.94
eigval :      903.97   905.21   906.92   907.34   912.73   913.29
eigval :      914.10   923.23   926.63   928.62   929.28   930.19
eigval :      930.48   932.06   932.20   932.34   936.98   937.40
eigval :      939.08   946.43   955.29   986.81   989.61   992.09
eigval :     1006.00  1015.85  1029.00  1069.91  1079.59  1085.08
eigval :     1086.31  1086.67  1101.32  1102.43  1104.99  1108.97
eigval :     1114.74  1115.53  1120.81  1123.37  1125.19  1133.19
eigval :     1134.75  1140.20  1152.71  1173.26  1179.97  1180.11
eigval :     1181.61  1182.13  1182.13  1182.51  1182.88  1185.46
eigval :     1188.51  1189.22  1201.39  1201.72  1201.77  1210.26
eigval :     1232.06  1243.14  1250.10  1251.64  1252.96  1257.83
eigval :     1261.44  1268.87  1272.60  1275.31  1282.77  1282.94
eigval :     1284.06  1298.79  1300.52  1312.84  1313.45  1315.56
eigval :     1319.36  1322.00  1322.48  1325.33  1338.69  1346.00
eigval :     1361.12  1363.29  1368.70  1374.02  1377.94  1404.32
eigval :     1408.25  1409.19  1415.79  1417.06  1417.92  1426.27
eigval :     1430.19  1433.07  1435.82  1437.13  1443.43  1453.15
eigval :     1475.22  1479.61  1481.55  1484.40  1488.09  1506.38
eigval :     1512.97  1518.83  1523.43  1531.49  1546.10  1555.03
eigval :     1560.99  1561.32  1562.86  1566.25  1572.69  1581.95
eigval :     1582.32  1583.61  1592.97  1593.22  1599.97  1600.17
eigval :     1603.10  3070.57  3070.74  3071.65  3071.88  3072.22
eigval :     3074.74  3075.58  3076.82  3077.44  3079.68  3079.80
eigval :     3080.91  3082.02  3082.05  3082.46  3083.60  3083.71
eigval :     3083.98  3084.79  3084.92  3086.07  3086.52  3088.19
eigval :     3090.18  3092.10  3092.69  3093.29  3094.59  3095.06
eigval :     3096.19  3096.29  3097.12  3099.53  3102.17  3104.38
eigval :     3105.38  3110.80  3113.72

   temp. (K)  partition function   enthalpy   heat capacity  entropy
                                   cal/mol     cal/K/mol   cal/K/mol   J/K/mol
 298.15  VIB  0.139E+24            28271.292    178.248    177.985
         ROT  0.214E+09              888.752      2.981     41.100
         INT  0.298E+32            29160.044    181.229    219.085
         TR   0.209E+29             1481.254      4.968     45.801
         TOT                       30641.2983   186.1972   264.8858  1108.2823

       T/K    H(0)-H(T)+PV         H(T)/Eh          T*S/Eh         G(T)/Eh
   ------------------------------------------------------------------------
    298.15    0.488300E-01    0.810792E+00    0.125856E+00    0.684936E+00
   ------------------------------------------------------------------------

         :::::::::::::::::::::::::::::::::::::::::::::::::::::
         ::                  THERMODYNAMIC                  ::
         :::::::::::::::::::::::::::::::::::::::::::::::::::::
         :: total free energy        -150.864113753746 Eh   ::
         ::.................................................::
         :: total energy             -151.549049778525 Eh   ::
         :: zero point energy           0.761961809719 Eh   ::
         :: G(RRHO) w/o ZPVE           -0.077025784940 Eh   ::
         :: G(RRHO) contrib.            0.684936024779 Eh   ::
         :::::::::::::::::::::::::::::::::::::::::::::::::::::

           -------------------------------------------------
          | TOTAL ENERGY             -151.549049778525 Eh   |
          | TOTAL ENTHALPY           -150.738257951782 Eh   |
          | TOTAL FREE ENERGY        -150.864113753746 Eh   |
          | GRADIENT NORM               0.000071634756 Eh/α |
           -------------------------------------------------

 * finished run on 2025/07/19 at 15:54:09.392
