   * xtb version 6.7.1 (edcfbbe) compiled by 'albert@albert-system' on 2024-07-22

   ID    Z sym.   atoms
    1    6 C      1-28, 30-43, 45-61
    2    7 N      29, 44
    3    1 H      62-99

          program call               : xtb data2507/gas/PIAnTPh/PIAnTPh_gas_S0_crest.xyz --gfn 2 --ohess vtight --parallel 40 --molden --ceasefiles --namespace data2507/gas/PIAnTPh/PIAnTPh_gas_S0_finalOpt
          :  Hamiltonian                  GFN2-xTB          :
 * total energy  :  -151.6117556 Eh     change       -0.9564758E-09 Eh
 * total energy  :  -151.6117569 Eh     change       -0.1326116E-05 Eh
 * total energy  :  -151.6117584 Eh     change       -0.1449331E-05 Eh
 * total energy  :  -151.6117614 Eh     change       -0.3028132E-05 Eh
 * total energy  :  -151.6117626 Eh     change       -0.1207240E-05 Eh
 * total energy  :  -151.6117642 Eh     change       -0.1555036E-05 Eh
 * total energy  :  -151.6117675 Eh     change       -0.3338177E-05 Eh
 * total energy  :  -151.6117718 Eh     change       -0.4267990E-05 Eh
 * total energy  :  -151.6117749 Eh     change       -0.3109987E-05 Eh
 * total energy  :  -151.6117777 Eh     change       -0.2824852E-05 Eh
 * total energy  :  -151.6118197 Eh     change       -0.5121158E-06 Eh
 * total energy  :  -151.6118202 Eh     change       -0.4151520E-06 Eh
 * total energy  :  -151.6118204 Eh     change       -0.2620423E-06 Eh
 * total energy  :  -151.6118206 Eh     change       -0.2139903E-06 Eh
 * total energy  :  -151.6118209 Eh     change       -0.2690470E-06 Eh
 * total energy  :  -151.6118212 Eh     change       -0.3161245E-06 Eh
 * total energy  :  -151.6118215 Eh     change       -0.3280980E-06 Eh
 * total energy  :  -151.6118219 Eh     change       -0.3215092E-06 Eh
 * total energy  :  -151.6118219 Eh     change       -0.2442107E-08 Eh
   *** GEOMETRY OPTIMIZATION CONVERGED AFTER 44 ITERATIONS ***

 final structure:
================
99
 xtb: 6.7.1 (edcfbbe)
C           -9.61474597461277       -2.70602554315165       -3.92571248856069
C           -9.97283878115085       -1.42881203354197       -3.52801541590833
C           -9.24917639726952       -0.77751596786490       -2.54656158529452
C           -8.15086831266601       -1.39219566823133       -1.95052954905427
C           -7.38015743184839       -0.70427029650142       -0.90328428060889
C           -8.02820222730714        0.02423554998101        0.08851912194383
C           -7.30972492599938        0.67244655683099        1.08745695809189
C           -8.00546862526516        1.44613756545597        2.12731145728229
C           -9.17292394099207        0.96317298073792        2.71304991763148
C           -9.82506785710706        1.69451705097042        3.68822619332702
C           -9.32510336476878        2.92195391394209        4.08959889974716
C           -8.16590371771286        3.41240201444510        3.51220375030258
C           -7.50909464416166        2.68000612969717        2.54105356569680
C           -5.92129639032708        0.58353556069732        1.08669704604811
C           -5.25676160265355       -0.13894534695823        0.10343751498009
C           -3.78201335987176       -0.22696080169238        0.11140138282035
C           -3.01328950798249        0.92331032497761       -0.11768574110886
C           -3.61291759784998        2.18015229776665       -0.39540757718886
C           -2.85865290615013        3.29630044256807       -0.58628556188270
C           -1.45365354087567        3.22562311564674       -0.50725021883537
C           -0.83821378370566        2.03540702276292       -0.27076981024876
C           -1.58630234362912        0.84155759811702       -0.09158464566098
C           -0.96326003035087       -0.39647923094349        0.12545129173177
C            0.51074569220741       -0.47570090676366        0.13608795841254
C            1.19958463918444       -0.78194966129672        1.30723895310089
C            2.57891177711346       -0.80485644769067        1.32394163527783
C            3.30438131385475       -0.51542665106791        0.16914974324226
C            4.75729231300606       -0.50156762834578        0.24156793285522
N            5.46673275667664       -1.37018093190765        0.91396782898150
C            6.76616955569330       -1.01656294680216        0.72592593246600
C            7.92820073980646       -1.67348886757660        1.21731247244775
C            7.83119802162053       -2.83607255386296        1.98916822105819
C            8.96478865220014       -3.47406618066691        2.42623053670679
C           10.21410939970905       -2.95578170868508        2.09066078207697
C           10.32089664961466       -1.81021328753020        1.33732971151883
C            9.18584817210023       -1.12340649080591        0.87958347268098
C            9.26433518001676        0.10842573940833        0.11363039803958
C           10.49335746711188        0.72162221260330       -0.16836397334121
C           10.57574461092102        1.91206542782595       -0.85079479929842
C            9.41710598497539        2.55810462228509       -1.26981958651164
C            8.19343517306313        1.98697013961709       -1.02230119503749
C            8.08909985052008        0.75776501906587       -0.35549943142491
C            6.84745026882424        0.12048560358345       -0.07630264967278
N            5.54490365485047        0.43664495290600       -0.39148483258175
C            5.04379644362946        1.48318668195543       -1.18876169789764
C            4.17528710962459        2.41385098882402       -0.63005723433458
C            3.63441149010801        3.40918664938545       -1.42336689397179
C            3.95861705819667        3.48253238149697       -2.76768923718207
C            4.82740153862285        2.55660517795842       -3.32266876182801
C            5.36788123628756        1.55291725142519       -2.54041988451982
C            2.61680249273763       -0.25547033041860       -1.01483718307092
C            1.23704501601059       -0.23282783680413       -1.02646597423119
C           -1.73191669768215       -1.55037988322257        0.33393029491278
C           -1.13211821279833       -2.82448768815382        0.51576392591751
C           -1.88707339852867       -3.93319560953206        0.74428502128518
C           -3.29112558495518       -3.83527001125979        0.81300648239808
C           -3.90607296343535       -2.63726883521044        0.61799880653396
C           -3.15859152823880       -1.46083051500378        0.34686076624105
C           -5.99097854150970       -0.77873938937902       -0.88755957339235
C           -7.79689275629150       -2.67534813459393       -2.36076322416737
C           -8.52526007828343       -3.32708137259111       -3.33834803155070
H          -10.18236410481452       -3.21522357388198       -4.69057082974472
H          -10.81925837384148       -0.93770967807058       -3.98605483792316
H           -9.52366316227884        0.22509841959319       -2.25164766568958
H           -9.10645353297384        0.08745098083841        0.08301395284548
H           -9.55886759770583       -0.00113684525400        2.41527416962886
H          -10.72660773186037        1.30494038121163        4.13859048297805
H           -9.83665950850758        3.49383900719275        4.84968522283618
H           -7.77300248436261        4.37090621044921        3.81930480962005
H           -6.61285417633827        3.07453173372360        2.08403667137405
H           -5.34993380402414        1.05783376258223        1.87160440570522
H           -4.68960399757628        2.23485272050264       -0.45807741300683
H           -3.33016799165861        4.24518457178864       -0.79671975944642
H           -0.87040034062793        4.12504384132166       -0.64140527747799
H            0.23911971130793        1.98347304711871       -0.21439471304249
H            0.64251585526108       -0.98497831364146        2.21057033161967
H            3.11737236727493       -1.03396399914386        2.23047684783609
H            6.84462461876457       -3.20848340886643        2.21731965629359
H            8.89513983556443       -4.37288975922536        3.02103436169664
H           11.10975730912316       -3.45882867880374        2.42597314832621
H           11.30899068871816       -1.44862524967009        1.10043933907798
H           11.41031341480369        0.26149789967786        0.16267951713179
H           11.54123181522820        2.35375447177179       -1.04927858280353
H            9.47827580638123        3.50638497593286       -1.78318608819088
H            7.29717179484164        2.50144590839084       -1.33117762728537
H            3.92814132829816        2.34744483309399        0.41919228900389
H            2.95854732941243        4.13009185549660       -0.98858958296142
H            3.53413697733903        4.26024301301115       -3.38422771529196
H            5.08042007496658        2.61091252873019       -4.37089092450442
H            6.04009973852389        0.82114054970676       -2.96469543917462
H            3.15776056623852       -0.08440280153918       -1.93347990953669
H            0.70931919117899       -0.02812894872515       -1.94694682509085
H           -0.05617563348310       -2.90012898143793        0.46543112656478
H           -1.41611252848036       -4.89567638897979        0.88001688927389
H           -3.87410832139465       -4.72116631615264        1.01862533609443
H           -4.98210748525900       -2.56338699726158        0.67217479960303
H           -5.47071910249527       -1.31755505109109       -1.66634407318791
H           -6.95665100798944       -3.17098288872064       -1.89594396809223
H           -8.24316838946418       -4.32471217625362       -3.64253308042914

          :  Hamiltonian                  GFN2-xTB          :
         :: gradient norm              0.000035893080 Eh/a0 ::
         :: HOMO-LUMO gap              2.080365277109 eV    ::
         :: SCC energy              -154.546692151911 Eh    ::
         :: -> dispersion             -0.145325422471 Eh    ::
         :: repulsion energy           2.934870283771 Eh    ::

    * Orbital Energies and Occupations

         #    Occupation            Energy/Eh            Energy/eV
      -------------------------------------------------------------
         1        2.0000           -0.6848641             -18.6361
       ...           ...                  ...                  ...
       130        2.0000           -0.4045706             -11.0089
       131        2.0000           -0.4042144             -10.9992
       132        2.0000           -0.4041065             -10.9963
       133        2.0000           -0.4007289             -10.9044
       134        2.0000           -0.3994861             -10.8706
       135        2.0000           -0.3989974             -10.8573
       136        2.0000           -0.3937586             -10.7147
       137        2.0000           -0.3884957             -10.5715
       138        2.0000           -0.3830316             -10.4228
       139        2.0000           -0.3780715             -10.2878
       140        2.0000           -0.3740504             -10.1784
       141        2.0000           -0.3618538              -9.8465
       142        2.0000           -0.3570345              -9.7154 (HOMO)
       143                         -0.2805825              -7.6350 (LUMO)
       144                         -0.2572501              -7.0001
       145                         -0.2488715              -6.7721
       146                         -0.2472925              -6.7292
       147                         -0.2419657              -6.5842
       148                         -0.2391958              -6.5088
       149                         -0.2384618              -6.4889
       150                         -0.2373562              -6.4588
       151                         -0.2310762              -6.2879
       152                         -0.2264409              -6.1618
       153                         -0.2222562              -6.0479
       ...                                ...                  ...
       282                          0.7313208              19.9003
      -------------------------------------------------------------
                  HL-Gap            0.0764520 Eh            2.0804 eV

     #   Z          covCN         q      C6AA      α(0)
     1   6 C        2.920    -0.031    28.772     8.796
     2   6 C        2.919    -0.030    28.739     8.791
     3   6 C        2.925    -0.034    28.838     8.807
     4   6 C        2.978     0.010    27.787     8.647
     5   6 C        2.974     0.008    27.833     8.654
     6   6 C        2.930    -0.042    29.045     8.838
     7   6 C        2.974     0.008    27.833     8.654
     8   6 C        2.978     0.010    27.787     8.647
     9   6 C        2.925    -0.034    28.836     8.806
    10   6 C        2.919    -0.030    28.737     8.791
    11   6 C        2.920    -0.031    28.772     8.796
    12   6 C        2.919    -0.030    28.738     8.791
    13   6 C        2.925    -0.033    28.832     8.806
    14   6 C        2.930    -0.040    28.990     8.830
    15   6 C        2.974     0.014    27.699     8.633
    16   6 C        2.978    -0.006    28.162     8.705
    17   6 C        2.984     0.006    27.874     8.660
    18   6 C        2.918    -0.034    28.852     8.808
    19   6 C        2.914    -0.031    28.769     8.795
    20   6 C        2.914    -0.030    28.760     8.794
    21   6 C        2.917    -0.035    28.869     8.811
    22   6 C        2.984     0.006    27.879     8.661
    23   6 C        2.977    -0.007    28.188     8.709
    24   6 C        2.977     0.017    27.632     8.623
    25   6 C        2.923    -0.031    28.778     8.797
    26   6 C        2.926    -0.029    28.713     8.788
    27   6 C        2.974     0.001    28.012     8.682
    28   6 C        3.197     0.128    24.713     8.104
    29   7 N        1.893    -0.291    28.388     7.899
    30   6 C        3.211     0.057    26.112     8.317
    31   6 C        2.986     0.003    27.954     8.673
    32   6 C        2.922    -0.031    28.778     8.797
    33   6 C        2.917    -0.030    28.756     8.794
    34   6 C        2.917    -0.033    28.822     8.804
    35   6 C        2.922    -0.035    28.869     8.811
    36   6 C        2.979    -0.002    28.061     8.689
    37   6 C        2.980     0.002    27.980     8.677
    38   6 C        2.922    -0.034    28.841     8.807
    39   6 C        2.916    -0.034    28.835     8.806
    40   6 C        2.917    -0.032    28.797     8.800
    41   6 C        2.919    -0.040    29.001     8.831
    42   6 C        2.978    -0.002    28.066     8.690
    43   6 C        3.073     0.019    27.499     8.598
    44   7 N        2.842    -0.046    22.127     6.986
    45   6 C        2.913     0.069    26.458     8.435
    46   6 C        2.922    -0.038    28.942     8.822
    47   6 C        2.920    -0.026    28.641     8.776
    48   6 C        2.920    -0.030    28.747     8.792
    49   6 C        2.920    -0.027    28.677     8.782
    50   6 C        2.921    -0.037    28.913     8.818
    51   6 C        2.921    -0.034    28.854     8.809
    52   6 C        2.924    -0.032    28.806     8.802
    53   6 C        2.984     0.007    27.864     8.659
    54   6 C        2.917    -0.035    28.864     8.810
    55   6 C        2.914    -0.030    28.741     8.791
    56   6 C        2.914    -0.030    28.749     8.792
    57   6 C        2.917    -0.034    28.857     8.809
    58   6 C        2.984     0.007    27.869     8.660
    59   6 C        2.930    -0.040    28.989     8.830
    60   6 C        2.925    -0.033    28.831     8.806
    61   6 C        2.919    -0.029    28.737     8.791
    62   1 H        0.926     0.029     2.599     2.521
    63   1 H        0.926     0.029     2.598     2.521
    64   1 H        0.926     0.031     2.575     2.509
    65   1 H        0.926     0.033     2.543     2.494
    66   1 H        0.926     0.031     2.572     2.508
    67   1 H        0.926     0.029     2.596     2.520
    68   1 H        0.926     0.029     2.599     2.521
    69   1 H        0.926     0.029     2.599     2.521
    70   1 H        0.926     0.030     2.579     2.512
    71   1 H        0.926     0.032     2.561     2.503
    72   1 H        0.926     0.032     2.560     2.502
    73   1 H        0.926     0.028     2.616     2.529
    74   1 H        0.926     0.026     2.640     2.541
    75   1 H        0.926     0.029     2.606     2.524
    76   1 H        0.926     0.037     2.492     2.469
    77   1 H        0.926     0.050     2.324     2.384
    78   1 H        0.926     0.050     2.315     2.380
    79   1 H        0.926     0.030     2.592     2.518
    80   1 H        0.926     0.027     2.624     2.533
    81   1 H        0.926     0.030     2.586     2.515
    82   1 H        0.926     0.034     2.532     2.488
    83   1 H        0.926     0.028     2.615     2.529
    84   1 H        0.926     0.026     2.640     2.541
    85   1 H        0.926     0.025     2.654     2.547
    86   1 H        0.926     0.039     2.466     2.456
    87   1 H        0.926     0.039     2.457     2.451
    88   1 H        0.926     0.039     2.460     2.453
    89   1 H        0.926     0.040     2.448     2.447
    90   1 H        0.926     0.043     2.412     2.428
    91   1 H        0.926     0.027     2.631     2.537
    92   1 H        0.926     0.032     2.552     2.498
    93   1 H        0.926     0.033     2.538     2.491
    94   1 H        0.926     0.030     2.588     2.516
    95   1 H        0.926     0.029     2.606     2.524
    96   1 H        0.926     0.032     2.564     2.504
    97   1 H        0.926     0.032     2.562     2.503
    98   1 H        0.926     0.031     2.575     2.509
    99   1 H        0.926     0.029     2.596     2.519

molecular dipole:
                 x           y           z       tot (Debye)
 q only:       -0.689       0.647      -0.476
   full:       -0.558       1.007      -0.741       3.480

 projected vibrational frequencies (cm⁻¹)
eigval :       -0.00     0.00     0.00     0.00     0.00     0.00
eigval :        5.49     7.08     8.57    16.20    21.37    25.85
eigval :       29.98    42.50    43.70    45.69    46.76    48.33
eigval :       53.24    62.91    71.91    74.39    83.99    89.43
eigval :       93.22    99.88   104.49   112.94   119.15   127.12
eigval :      163.83   168.36   172.41   176.25   205.51   213.25
eigval :      221.26   226.53   226.99   246.48   249.51   262.10
eigval :      267.59   272.40   279.88   292.22   306.95   324.38
eigval :      334.19   349.16   372.57   372.67   374.37   378.14
eigval :      379.15   388.56   391.00   395.63   399.99   403.65
eigval :      412.00   420.02   436.53   444.81   445.46   449.19
eigval :      459.23   469.70   474.63   486.09   507.83   518.98
eigval :      523.89   525.17   535.36   545.81   581.80   581.86
eigval :      584.24   584.32   586.94   588.77   590.37   597.81
eigval :      605.40   606.07   627.81   629.64   631.99   638.46
eigval :      643.72   653.17   655.23   668.81   671.13   673.38
eigval :      677.99   682.50   684.55   690.37   693.79   707.03
eigval :      708.29   734.76   736.06   739.86   758.32   758.90
eigval :      763.40   767.18   775.13   775.75   777.87   782.70
eigval :      797.17   819.33   829.40   840.28   862.96   873.70
eigval :      874.90   875.14   876.84   877.20   877.84   879.18
eigval :      895.07   897.65   901.33   901.96   904.91   906.49
eigval :      908.03   914.34   915.22   917.33   919.72   922.72
eigval :      924.00   927.36   927.74   928.99   929.10   930.54
eigval :      930.78   932.06   932.64   932.75   932.79   933.35
eigval :      937.98   939.32   957.29   986.31   990.46   994.19
eigval :     1007.03  1018.05  1032.83  1068.93  1079.64  1082.38
eigval :     1083.55  1084.37  1085.64  1085.91  1103.14  1108.26
eigval :     1115.99  1120.66  1123.05  1123.65  1134.25  1135.11
eigval :     1136.23  1150.27  1153.18  1174.26  1180.55  1181.94
eigval :     1182.66  1182.71  1183.07  1185.60  1186.06  1189.79
eigval :     1195.16  1198.91  1202.15  1202.36  1209.60  1219.69
eigval :     1229.48  1244.54  1249.27  1253.61  1257.94  1258.54
eigval :     1264.14  1270.74  1276.08  1282.88  1282.93  1284.29
eigval :     1300.98  1304.71  1313.00  1313.27  1314.77  1319.63
eigval :     1321.76  1328.40  1339.29  1343.19  1348.91  1350.37
eigval :     1374.27  1380.75  1384.69  1398.91  1408.30  1414.21
eigval :     1419.55  1421.11  1421.87  1429.25  1431.33  1434.02
eigval :     1437.84  1438.07  1440.64  1452.38  1472.28  1481.47
eigval :     1485.28  1486.29  1489.94  1514.98  1518.44  1527.16
eigval :     1529.89  1542.15  1547.55  1557.93  1564.92  1571.83
eigval :     1575.54  1575.61  1583.15  1583.34  1585.56  1594.55
eigval :     1594.98  1597.79  1600.92  1600.97  1605.22  1608.60
eigval :     1622.63  3070.43  3070.59  3071.40  3071.66  3071.69
eigval :     3071.72  3074.00  3075.09  3077.25  3078.74  3079.12
eigval :     3079.23  3080.09  3081.04  3081.71  3081.78  3081.86
eigval :     3083.26  3083.30  3084.25  3084.37  3085.65  3086.38
eigval :     3088.70  3089.72  3090.62  3091.77  3092.22  3092.37
eigval :     3093.19  3094.65  3095.43  3096.52  3101.60  3102.69
eigval :     3105.03  3110.27  3111.18

   temp. (K)  partition function   enthalpy   heat capacity  entropy
                                   cal/mol     cal/K/mol   cal/K/mol   J/K/mol
 298.15  VIB  0.194E+24            28196.642    177.281    178.115
         ROT  0.211E+09              888.752      2.981     41.073
         INT  0.409E+32            29085.394    180.262    219.188
         TR   0.209E+29             1481.254      4.968     45.801
         TOT                       30566.6481   185.2301   264.9887  1108.7129

       T/K    H(0)-H(T)+PV         H(T)/Eh          T*S/Eh         G(T)/Eh
   ------------------------------------------------------------------------
    298.15    0.487111E-01    0.813268E+00    0.125905E+00    0.687363E+00
   ------------------------------------------------------------------------

         :::::::::::::::::::::::::::::::::::::::::::::::::::::
         ::                  THERMODYNAMIC                  ::
         :::::::::::::::::::::::::::::::::::::::::::::::::::::
         :: total free energy        -150.924458705431 Eh   ::
         ::.................................................::
         :: total energy             -151.611821868139 Eh   ::
         :: zero point energy           0.764556812126 Eh   ::
         :: G(RRHO) w/o ZPVE           -0.077193649418 Eh   ::
         :: G(RRHO) contrib.            0.687363162708 Eh   ::
         :::::::::::::::::::::::::::::::::::::::::::::::::::::

           -------------------------------------------------
          | TOTAL ENERGY             -151.611821868139 Eh   |
          | TOTAL ENTHALPY           -150.798554001679 Eh   |
          | TOTAL FREE ENERGY        -150.924458705431 Eh   |
          | GRADIENT NORM               0.000035893256 Eh/α |
          | HOMO-LUMO GAP               2.080365139148 eV   |
           -------------------------------------------------

 * finished run on 2025/07/19 at 15:47:19.199
