   * xtb version 6.7.1 (edcfbbe) compiled by 'albert@albert-system' on 2024-07-22

   ID    Z sym.   atoms
    1    6 C      1-28, 30-43, 45-61
    2    7 N      29, 44
    3    1 H      62-99

          program call               : xtb data2507/gas/PIAnTPh/PIAnTPh.xyz --gfn 2 --ohess vtight --parallel 40 --molden --ceasefiles --namespace data2507/gas/PIAnTPh/PIAnTPh_gas_S0_preOpt
          :  Hamiltonian                  GFN2-xTB          :
 * total energy  :  -151.5825064 Eh     change       -0.1144912E-08 Eh
 * total energy  :  -151.6003643 Eh     change       -0.1785792E-01 Eh
 * total energy  :  -151.6055470 Eh     change       -0.5182702E-02 Eh
 * total energy  :  -151.6066837 Eh     change       -0.1136763E-02 Eh
 * total energy  :  -151.6073662 Eh     change       -0.6824969E-03 Eh
 * total energy  :  -151.6077432 Eh     change       -0.3769739E-03 Eh
 * total energy  :  -151.6081405 Eh     change       -0.3973363E-03 Eh
 * total energy  :  -151.6085539 Eh     change       -0.4133888E-03 Eh
 * total energy  :  -151.6089591 Eh     change       -0.4051568E-03 Eh
 * total energy  :  -151.6093405 Eh     change       -0.3814066E-03 Eh
 * total energy  :  -151.6115288 Eh     change       -0.4027982E-06 Eh
 * total energy  :  -151.6115292 Eh     change       -0.3399136E-06 Eh
 * total energy  :  -151.6115294 Eh     change       -0.2477146E-06 Eh
 * total energy  :  -151.6115296 Eh     change       -0.2220910E-06 Eh
 * total energy  :  -151.6115299 Eh     change       -0.2761616E-06 Eh
 * total energy  :  -151.6115303 Eh     change       -0.3584291E-06 Eh
 * total energy  :  -151.6115307 Eh     change       -0.4111286E-06 Eh
 * total energy  :  -151.6115311 Eh     change       -0.4056517E-06 Eh
 * total energy  :  -151.6115311 Eh     change       -0.5801326E-08 Eh
   *** GEOMETRY OPTIMIZATION CONVERGED AFTER 122 ITERATIONS ***

 final structure:
================
99
 xtb: 6.7.1 (edcfbbe)
C           -9.36155984213617       -2.41671113389761       -4.15517767000228
C           -8.27011764732055       -1.62052809104488       -4.45932003311916
C           -7.55302655945349       -1.00772807322761       -3.44875885610137
C           -7.92060011085916       -1.17713147955872       -2.11609153660169
C           -7.16177442620718       -0.51925066898873       -1.04136396645445
C           -7.82205247837148        0.07227270586897        0.03041596815447
C           -7.11541903541730        0.70958629759633        1.04477986766722
C           -7.82600116488582        1.34092627615386        2.16754741278784
C           -8.91453775072431        0.70938993133803        2.76386356920013
C           -9.58077426775102        1.30286896139454        3.81976559348635
C           -9.17382502270936        2.53890991922764        4.29326083318900
C           -8.09385161040681        3.17664534071662        3.70620263346456
C           -7.42288764876006        2.58207172795308        2.65391805366205
C           -5.72598157416485        0.74504054531901        0.98071910938044
C           -5.05000339257842        0.15582663774854       -0.08011231013583
C           -3.57364572240663        0.20244369091009       -0.14154351638324
C           -2.94446775693881        0.99328859480906       -1.11318687543130
C           -3.68748005527109        1.77912149870708       -2.03337301712732
C           -3.06619363418768        2.52434418192278       -2.98732222899705
C           -1.66027831952646        2.52646484395981       -3.08410524809784
C           -0.91034421614586        1.80548925187271       -2.20701603622046
C           -1.51720400351177        1.03328651414224       -1.18155814687491
C           -0.75502840545084        0.30340450995650       -0.25847544580997
C            0.71950038773400        0.36305544998669       -0.30846863544017
C            1.39263780377075        1.53979914065081        0.01130483591054
C            2.77099993831473        1.58376997138970        0.00054301833119
C            3.51315012141634        0.44917300437275       -0.32736519788752
C            4.96387912223447        0.54168297504948       -0.29579065901986
N            5.62987116775443        1.60231057411465       -0.67471744459194
C            6.94362445942587        1.30120642713333       -0.50117659581942
C            8.07106172301827        2.11367980238530       -0.80470720332729
C            7.91646426620637        3.38932143778731       -1.35744545176024
C            9.01716518005902        4.14615893249584       -1.67165856737785
C           10.29081641526705        3.63054358475982       -1.43936984152853
C           10.45406995856859        2.37980663759866       -0.89137901253758
C            9.35400361944905        1.57910116302147       -0.54735585484947
C            9.49167036382782        0.26975601376406        0.06668734976183
C           10.74752529755390       -0.25548801764264        0.40268955148366
C           10.88695035274504       -1.47231826948761        1.02679796541218
C            9.76114112043987       -2.21727686157057        1.36274870049974
C            8.51278884760827       -1.74353599459503        1.04328606529930
C            8.35014908947663       -0.51959682049266        0.37841131624769
C            7.08096480005642        0.01519252785732        0.01898718015076
N            5.79688841739451       -0.46813404895339        0.13695988189703
C            5.35536488622423       -1.72228905048312        0.60039700275886
C            5.70012560851778       -2.88358686136654       -0.08487912386332
C            5.22292501589054       -4.10447949011254        0.35456447858164
C            4.39712694276993       -4.17179107522449        1.46531694834614
C            4.05170003639301       -3.01460701294021        2.14311297224258
C            4.52913070008657       -1.78876259541562        1.71632961969408
C            2.84072947680097       -0.71682884280187       -0.68879232223658
C            1.46098177691798       -0.75699617975382       -0.67271478852876
C           -1.38443811694703       -0.48014872061266        0.71969057755633
C           -0.64306001382329       -1.20949012206699        1.68664016692555
C           -1.26594021462238       -1.98083379586926        2.61857083545336
C           -2.67180939665017       -2.07437397793714        2.64090300039207
C           -3.41998742037769       -1.37420818512249        1.74588060458741
C           -2.81182916845350       -0.54100386694584        0.77025207455714
C           -5.77204578488187       -0.47183141418686       -1.08725054226978
C           -9.02083083389569       -1.97848335370760       -1.82167924786602
C           -9.73321444047748       -2.59514042905812       -2.83318953486360
H           -9.92023698600221       -2.89649986448920       -4.94521336121263
H           -7.97763291906613       -1.47530951724342       -5.48924201184666
H           -6.71124110500850       -0.37588833148675       -3.69335162936083
H           -8.90200772279189        0.07332646727392        0.05388593755218
H           -9.22674208119108       -0.26224896090511        2.40885168055400
H          -10.42023378485854        0.79892862922559        4.27670611726036
H           -9.69630486230324        3.00329228805515        5.11657489508872
H           -7.77435750084174        4.14284156110435        4.06920280654871
H           -6.59082870557500        3.09120786776560        2.18928609361207
H           -5.16101433652276        1.22363678105697        1.76766139548823
H           -4.76502586340844        1.77743239872915       -1.95991252908143
H           -3.64528061551740        3.11735106907993       -3.68012491017038
H           -1.18391906011660        3.10884517765546       -3.85905312421502
H            0.16685404568239        1.80794785259341       -2.28205384345999
H            0.82341242299394        2.41724752755795        0.28257348870698
H            3.29802690044620        2.49092630908305        0.25218770296807
H            6.91270082460070        3.74552492033844       -1.52963478580021
H            8.90316484259049        5.13125403716209       -2.09958675342892
H           11.16077853477864        4.21964833326007       -1.69194732645345
H           11.45920837101266        2.02260808701648       -0.73237365257967
H           11.64033243365695        0.30563850592031        0.17879692938349
H           11.87168246729251       -1.84394467670423        1.26937013647819
H            9.86689045604239       -3.16163380009431        1.87609901842140
H            7.64251877211503       -2.31561342251254        1.32360197267345
H            6.33932957448251       -2.81845692255063       -0.95351737231985
H            5.49210263485794       -5.00520922021460       -0.17644052990244
H            4.02259755792648       -5.12681054797533        1.80119233040940
H            3.40894093436588       -3.06520170005062        3.00901159954595
H            4.26480533849754       -0.88018447470135        2.23691048215253
H            3.39154495513108       -1.59131269217158       -1.00082667530024
H            0.94556749621726       -1.66469540220296       -0.95233297635499
H            0.43468580878754       -1.13989401396389        1.67078446843722
H           -0.68799116015251       -2.53005338653515        3.34760550353475
H           -3.14898206059487       -2.70393464535085        3.37762007171534
H           -4.49742839497416       -1.44459936287241        1.76392381898506
H           -5.24203678987251       -0.94653059498674       -1.90042075011606
H           -9.30583975164302       -2.13411147992911       -0.79113368294267
H          -10.58123953163573       -3.21891043487881       -2.58987881095603

          :  Hamiltonian                  GFN2-xTB          :
         :: gradient norm              0.000053252144 Eh/a0 ::
         :: HOMO-LUMO gap              2.093492296427 eV    ::
         :: SCC energy              -154.546622178002 Eh    ::
         :: -> dispersion             -0.144738926082 Eh    ::
         :: repulsion energy           2.935091073647 Eh    ::

    * Orbital Energies and Occupations

         #    Occupation            Energy/Eh            Energy/eV
      -------------------------------------------------------------
         1        2.0000           -0.6847334             -18.6325
       ...           ...                  ...                  ...
       130        2.0000           -0.4045649             -11.0088
       131        2.0000           -0.4041887             -10.9985
       132        2.0000           -0.4041080             -10.9963
       133        2.0000           -0.3998478             -10.8804
       134        2.0000           -0.3991397             -10.8611
       135        2.0000           -0.3986687             -10.8483
       136        2.0000           -0.3935834             -10.7099
       137        2.0000           -0.3885550             -10.5731
       138        2.0000           -0.3829977             -10.4219
       139        2.0000           -0.3780587             -10.2875
       140        2.0000           -0.3739091             -10.1746
       141        2.0000           -0.3616877              -9.8420
       142        2.0000           -0.3569191              -9.7123 (HOMO)
       143                         -0.2799847              -7.6188 (LUMO)
       144                         -0.2576167              -7.0101
       145                         -0.2483018              -6.7566
       146                         -0.2472942              -6.7292
       147                         -0.2420125              -6.5855
       148                         -0.2396898              -6.5223
       149                         -0.2386509              -6.4940
       150                         -0.2374193              -6.4605
       151                         -0.2306821              -6.2772
       152                         -0.2260396              -6.1508
       153                         -0.2222044              -6.0465
       ...                                ...                  ...
       282                          0.7313451              19.9009
      -------------------------------------------------------------
                  HL-Gap            0.0769344 Eh            2.0935 eV

     #   Z          covCN         q      C6AA      α(0)
     1   6 C        2.920    -0.031    28.771     8.796
     2   6 C        2.919    -0.029    28.735     8.790
     3   6 C        2.925    -0.033    28.829     8.805
     4   6 C        2.978     0.010    27.785     8.646
     5   6 C        2.974     0.008    27.831     8.654
     6   6 C        2.930    -0.042    29.046     8.838
     7   6 C        2.974     0.008    27.830     8.653
     8   6 C        2.978     0.010    27.785     8.646
     9   6 C        2.925    -0.033    28.833     8.806
    10   6 C        2.919    -0.030    28.741     8.791
    11   6 C        2.920    -0.031    28.771     8.796
    12   6 C        2.919    -0.029    28.733     8.790
    13   6 C        2.925    -0.033    28.828     8.805
    14   6 C        2.930    -0.040    28.991     8.830
    15   6 C        2.974     0.014    27.693     8.632
    16   6 C        2.978    -0.006    28.163     8.705
    17   6 C        2.984     0.006    27.872     8.660
    18   6 C        2.917    -0.034    28.858     8.809
    19   6 C        2.914    -0.030    28.749     8.792
    20   6 C        2.914    -0.030    28.742     8.791
    21   6 C        2.917    -0.035    28.861     8.810
    22   6 C        2.984     0.007    27.867     8.659
    23   6 C        2.977    -0.007    28.188     8.709
    24   6 C        2.977     0.017    27.630     8.622
    25   6 C        2.923    -0.031    28.776     8.797
    26   6 C        2.926    -0.029    28.714     8.788
    27   6 C        2.974     0.000    28.018     8.683
    28   6 C        3.195     0.128    24.730     8.108
    29   7 N        1.894    -0.291    28.397     7.900
    30   6 C        3.210     0.057    26.118     8.320
    31   6 C        2.986     0.003    27.955     8.673
    32   6 C        2.922    -0.031    28.778     8.797
    33   6 C        2.917    -0.030    28.757     8.794
    34   6 C        2.917    -0.033    28.822     8.804
    35   6 C        2.922    -0.035    28.868     8.811
    36   6 C        2.979    -0.002    28.061     8.689
    37   6 C        2.980     0.002    27.980     8.677
    38   6 C        2.922    -0.034    28.841     8.807
    39   6 C        2.916    -0.034    28.834     8.806
    40   6 C        2.917    -0.032    28.797     8.800
    41   6 C        2.919    -0.040    29.002     8.831
    42   6 C        2.978    -0.002    28.067     8.690
    43   6 C        3.073     0.019    27.498     8.598
    44   7 N        2.841    -0.046    22.127     6.986
    45   6 C        2.913     0.069    26.453     8.434
    46   6 C        2.921    -0.037    28.912     8.818
    47   6 C        2.920    -0.027    28.677     8.782
    48   6 C        2.920    -0.030    28.746     8.792
    49   6 C        2.920    -0.026    28.640     8.776
    50   6 C        2.922    -0.038    28.937     8.822
    51   6 C        2.921    -0.035    28.866     8.811
    52   6 C        2.923    -0.032    28.810     8.802
    53   6 C        2.984     0.006    27.879     8.661
    54   6 C        2.917    -0.035    28.869     8.811
    55   6 C        2.914    -0.030    28.755     8.793
    56   6 C        2.914    -0.031    28.761     8.794
    57   6 C        2.917    -0.034    28.845     8.807
    58   6 C        2.984     0.006    27.873     8.660
    59   6 C        2.930    -0.040    28.990     8.830
    60   6 C        2.925    -0.033    28.832     8.806
    61   6 C        2.919    -0.030    28.740     8.791
    62   1 H        0.926     0.029     2.599     2.521
    63   1 H        0.926     0.029     2.595     2.519
    64   1 H        0.926     0.031     2.574     2.509
    65   1 H        0.926     0.033     2.544     2.494
    66   1 H        0.926     0.030     2.588     2.516
    67   1 H        0.926     0.029     2.598     2.521
    68   1 H        0.926     0.029     2.598     2.521
    69   1 H        0.926     0.029     2.595     2.519
    70   1 H        0.926     0.031     2.571     2.507
    71   1 H        0.926     0.031     2.566     2.505
    72   1 H        0.926     0.031     2.570     2.507
    73   1 H        0.926     0.029     2.606     2.524
    74   1 H        0.926     0.030     2.589     2.516
    75   1 H        0.926     0.033     2.541     2.493
    76   1 H        0.926     0.036     2.496     2.471
    77   1 H        0.926     0.051     2.308     2.376
    78   1 H        0.926     0.050     2.316     2.380
    79   1 H        0.926     0.030     2.592     2.518
    80   1 H        0.926     0.027     2.624     2.533
    81   1 H        0.926     0.030     2.586     2.515
    82   1 H        0.926     0.034     2.532     2.488
    83   1 H        0.926     0.028     2.615     2.529
    84   1 H        0.926     0.026     2.640     2.541
    85   1 H        0.926     0.025     2.654     2.548
    86   1 H        0.926     0.043     2.412     2.429
    87   1 H        0.926     0.040     2.448     2.447
    88   1 H        0.926     0.039     2.460     2.453
    89   1 H        0.926     0.040     2.454     2.450
    90   1 H        0.926     0.039     2.463     2.454
    91   1 H        0.926     0.027     2.633     2.537
    92   1 H        0.926     0.032     2.557     2.501
    93   1 H        0.926     0.029     2.605     2.524
    94   1 H        0.926     0.027     2.635     2.539
    95   1 H        0.926     0.028     2.611     2.527
    96   1 H        0.926     0.032     2.558     2.501
    97   1 H        0.926     0.031     2.567     2.505
    98   1 H        0.926     0.030     2.587     2.515
    99   1 H        0.926     0.029     2.598     2.521

molecular dipole:
                 x           y           z       tot (Debye)
 q only:       -0.634      -0.768       0.306
   full:       -0.488      -1.182       0.465       3.459

 projected vibrational frequencies (cm⁻¹)
eigval :       -0.00    -0.00     0.00     0.00     0.00     0.00
eigval :        5.37     7.07     8.39    14.02    21.48    25.98
eigval :       29.59    40.85    43.33    46.19    46.58    47.43
eigval :       52.08    62.51    70.66    73.99    83.84    89.50
eigval :       93.17    98.15   100.67   112.38   119.38   126.21
eigval :      163.46   168.66   170.92   177.18   205.21   212.44
eigval :      221.21   226.13   227.76   246.08   250.01   262.03
eigval :      263.61   269.27   274.99   293.69   306.55   321.83
eigval :      348.81   353.17   363.91   372.82   373.74   373.79
eigval :      377.90   388.46   389.33   396.11   401.38   402.94
eigval :      412.50   418.53   434.54   440.18   445.70   448.07
eigval :      458.97   474.33   476.72   487.01   507.79   520.25
eigval :      521.31   524.59   535.31   546.05   581.39   582.18
eigval :      584.28   584.80   586.84   587.91   590.17   598.90
eigval :      602.43   609.76   628.66   629.62   630.54   639.20
eigval :      643.79   652.93   654.94   667.59   670.69   673.84
eigval :      677.42   682.32   684.41   690.26   693.51   706.96
eigval :      708.15   734.65   735.94   740.07   753.20   763.24
eigval :      764.03   767.08   774.63   775.60   776.96   782.64
eigval :      797.24   818.91   830.32   838.84   862.74   873.46
eigval :      874.83   874.99   876.67   876.85   876.92   878.60
eigval :      894.99   896.55   900.71   901.75   904.50   906.01
eigval :      907.88   914.29   915.04   917.08   919.23   921.99
eigval :      923.95   927.34   927.38   928.78   928.98   929.77
eigval :      930.58   931.53   932.61   932.63   932.72   933.15
eigval :      937.95   939.34   957.24   986.19   990.74   994.22
eigval :     1007.12  1018.04  1032.74  1069.03  1079.46  1081.91
eigval :     1082.77  1084.49  1085.14  1085.93  1103.04  1108.38
eigval :     1115.69  1120.61  1122.28  1123.58  1134.07  1135.19
eigval :     1136.50  1150.16  1153.08  1174.13  1180.49  1181.74
eigval :     1182.56  1182.79  1183.09  1185.33  1186.17  1189.57
eigval :     1195.25  1198.51  1201.17  1202.21  1210.00  1219.61
eigval :     1229.21  1244.21  1248.64  1253.63  1257.90  1258.43
eigval :     1264.27  1270.79  1275.87  1282.01  1282.90  1284.36
eigval :     1301.78  1305.20  1312.57  1313.66  1314.49  1319.71
eigval :     1321.71  1329.44  1339.14  1343.43  1349.43  1350.42
eigval :     1374.33  1380.83  1384.97  1399.13  1408.16  1414.39
eigval :     1419.62  1421.16  1422.04  1429.37  1431.28  1433.94
eigval :     1437.96  1438.13  1440.77  1452.41  1472.15  1481.48
eigval :     1485.26  1486.49  1490.09  1514.78  1517.57  1527.12
eigval :     1530.79  1542.59  1545.51  1558.02  1564.85  1571.26
eigval :     1575.76  1576.15  1582.93  1583.52  1585.58  1594.38
eigval :     1594.98  1597.50  1601.05  1601.12  1605.13  1608.60
eigval :     1622.75  3070.48  3070.65  3071.52  3071.68  3071.85
eigval :     3072.04  3073.76  3075.11  3077.37  3079.14  3079.24
eigval :     3079.64  3080.09  3080.86  3081.45  3081.72  3081.89
eigval :     3083.24  3083.50  3084.23  3084.53  3085.68  3085.98
eigval :     3088.60  3089.85  3089.93  3091.84  3092.36  3093.56
eigval :     3093.93  3095.02  3095.21  3096.57  3101.73  3104.06
eigval :     3105.00  3110.48  3112.17

   temp. (K)  partition function   enthalpy   heat capacity  entropy
                                   cal/mol     cal/K/mol   cal/K/mol   J/K/mol
 298.15  VIB  0.278E+24            28229.837    177.225    178.550
         ROT  0.213E+09              888.752      2.981     41.087
         INT  0.591E+32            29118.589    180.206    219.637
         TR   0.209E+29             1481.254      4.968     45.801
         TOT                       30599.8432   185.1739   265.4374  1110.5902

       T/K    H(0)-H(T)+PV         H(T)/Eh          T*S/Eh         G(T)/Eh
   ------------------------------------------------------------------------
    298.15    0.487640E-01    0.813221E+00    0.126118E+00    0.687103E+00
   ------------------------------------------------------------------------

         :::::::::::::::::::::::::::::::::::::::::::::::::::::
         ::                  THERMODYNAMIC                  ::
         :::::::::::::::::::::::::::::::::::::::::::::::::::::
         :: total free energy        -150.924427808923 Eh   ::
         ::.................................................::
         :: total energy             -151.611531104354 Eh   ::
         :: zero point energy           0.764457224762 Eh   ::
         :: G(RRHO) w/o ZPVE           -0.077353929331 Eh   ::
         :: G(RRHO) contrib.            0.687103295430 Eh   ::
         :::::::::::::::::::::::::::::::::::::::::::::::::::::

           -------------------------------------------------
          | TOTAL ENERGY             -151.611531104354 Eh   |
          | TOTAL ENTHALPY           -150.798309925444 Eh   |
          | TOTAL FREE ENERGY        -150.924427808923 Eh   |
          | GRADIENT NORM               0.000053244809 Eh/α |
          | HOMO-LUMO GAP               2.093492310372 eV   |
           -------------------------------------------------

 * finished run on 2025/07/19 at 15:40:38.280
