   * xtb version 6.7.1 (edcfbbe) compiled by 'albert@albert-system' on 2024-07-22

   ID    Z sym.   atoms
    1    6 C      1-28, 30-43, 45-61
    2    7 N      29, 44
    3    1 H      62-99

          program call               : xtb data2507/gas/PIAnTPh/PIAnTPh_gas_S0_finalOpt.xtbopt.xyz --gfn 2 --spinpol --tblite --uhf 2 --ohess vtight --parallel 40 --molden --ceasefiles --namespace data2507/gas/PIAnTPh/PIAnTPh_gas_T1_preOpt
 * total energy  :  -151.5399054 Eh     change       -0.3916668E-07 Eh
 * total energy  :  -151.5461669 Eh     change       -0.6261482E-02 Eh
 * total energy  :  -151.5476383 Eh     change       -0.1471442E-02 Eh
 * total energy  :  -151.5477695 Eh     change       -0.1312475E-03 Eh
 * total energy  :  -151.5479066 Eh     change       -0.1370948E-03 Eh
 * total energy  :  -151.5479741 Eh     change       -0.6745081E-04 Eh
 * total energy  :  -151.5480547 Eh     change       -0.8057167E-04 Eh
 * total energy  :  -151.5481367 Eh     change       -0.8202948E-04 Eh
 * total energy  :  -151.5481968 Eh     change       -0.6011127E-04 Eh
 * total energy  :  -151.5482475 Eh     change       -0.5069611E-04 Eh
 * total energy  :  -151.5489918 Eh     change       -0.1525620E-05 Eh
 * total energy  :  -151.5489929 Eh     change       -0.1030372E-05 Eh
 * total energy  :  -151.5489937 Eh     change       -0.8755342E-06 Eh
 * total energy  :  -151.5489945 Eh     change       -0.7222956E-06 Eh
 * total energy  :  -151.5489952 Eh     change       -0.7542968E-06 Eh
 * total energy  :  -151.5489961 Eh     change       -0.8999202E-06 Eh
 * total energy  :  -151.5489975 Eh     change       -0.1364355E-05 Eh
 * total energy  :  -151.5489994 Eh     change       -0.1975134E-05 Eh
 * total energy  :  -151.5489995 Eh     change       -0.5292802E-07 Eh
   *** GEOMETRY OPTIMIZATION CONVERGED AFTER 94 ITERATIONS ***

 final structure:
================
99
 xtb: 6.7.1 (edcfbbe)
C           -9.71617006710757       -3.22297410575548       -3.47727468003262
C          -10.07744124660870       -1.91178258046680       -3.21668749680602
C           -9.33665976564871       -1.14877441277529       -2.33343075766291
C           -8.21792724275343       -1.68427176715659       -1.70007455626678
C           -7.42779669135157       -0.87536737053205       -0.75890975909660
C           -8.05846635341914       -0.03762735526071        0.15599185393202
C           -7.31810704564858        0.73324660538554        1.04724648361043
C           -7.99272021499438        1.61638461733686        2.01129624808648
C           -9.13818970832203        1.19537437433829        2.68217506261378
C           -9.77077045118823        2.02906657971835        3.58545184531294
C           -9.27286716482999        3.29806096749700        3.82913847313382
C           -8.13525361776942        3.72729361049078        3.16637160594225
C           -7.49808940410600        2.89317513416683        2.26683355220073
C           -5.93078158186192        0.66152548613258        1.01299254494722
C           -5.27711900844292       -0.17280857331495        0.10719291779215
C           -3.81506581791890       -0.23991763413178        0.07931146841484
C           -3.05680845247241        0.94927810651570       -0.14711705763569
C           -3.67595669655372        2.17424548429220       -0.40952278869235
C           -2.93784285189252        3.34771066204448       -0.54416519590872
C           -1.56768583259298        3.31278655820148       -0.40871945038885
C           -0.92152657398056        2.09562947863796       -0.19877231666603
C           -1.63196645201780        0.89623933761092       -0.12009115267289
C           -0.97129383355661       -0.36658956868211        0.02872698241851
C            0.48191484510217       -0.42425128404982        0.01263981999634
C            1.19892161432466       -1.02683977980838        1.05575955266056
C            2.57356745471508       -1.02787153572007        1.05982412568117
C            3.29600305558228       -0.43904845612757        0.01570422531674
C            4.74101105174512       -0.44966690289703        0.09997812374691
N            5.41476058509219       -1.39583815754562        0.71027620178526
C            6.72397255344194       -1.06743830208899        0.58478192740056
C            7.85423105760185       -1.79623875312582        1.04915311597645
C            7.70379055649033       -3.01471033676884        1.71930369895611
C            8.80673765863281       -3.71680422810264        2.13668131007568
C           10.07830235983443       -3.20672770648142        1.88281349945701
C           10.23738269995221       -2.00720924347564        1.22877816852057
C            9.13500524680268       -1.25538561173070        0.79442319633295
C            9.26828325442912        0.03093217361403        0.13208382698759
C           10.52157397684516        0.62503761548409       -0.07162520468687
C           10.65756979266537        1.86126227605098       -0.65765998143588
C            9.53009552963538        2.57295597139723       -1.05445152174991
C            8.28392830005834        2.02369346102376       -0.88079431350331
C            8.12453215088822        0.75152690836213       -0.31187577610442
C            6.85806546458108        0.13411552634251       -0.11304217199661
N            5.57442231232663        0.51603089867047       -0.42888024747831
C            5.14380141739131        1.66270347214891       -1.12476578819030
C            4.37196398312549        2.61478882875029       -0.46887423728736
C            3.91145134361010        3.71886016179217       -1.16307153105289
C            4.21987864118353        3.87811964212434       -2.50381488243476
C            4.99267539351436        2.93012347849363       -3.15540655690900
C            5.45364633268435        1.81978607755959       -2.47268270999515
C            2.58751768831572        0.10776101411838       -1.05757688703618
C            1.21144637063528        0.12648246469902       -1.04854662075753
C           -1.73597215528995       -1.56572582489625        0.19748338731260
C           -1.13067841884060       -2.82274623144394        0.24630519848469
C           -1.87377972739673       -3.97956197086705        0.47651063788095
C           -3.23584291200156       -3.89419023354422        0.66290014818728
C           -3.87269542189948       -2.65966518344617        0.55861305454837
C           -3.15795756445275       -1.49266612869104        0.27634154221699
C           -6.03965597482412       -0.93901778172073       -0.77316033981130
C           -7.86106421579890       -3.00280607656123       -1.97235635799585
C           -8.60642603189322       -3.76585574843397       -2.85162944915535
H          -10.29686666119779       -3.81912977193835       -4.16566121321705
H          -10.93956225544534       -1.48150114035321       -3.70560020852990
H           -9.61383594556731       -0.12124389038190       -2.14665928474722
H           -9.13697205664291        0.01535178137330        0.17425101735743
H           -9.52200455890936        0.20039189392862        2.50846379945714
H          -10.65530255966433        1.68713839738162        4.10322726889599
H           -9.76911866291740        3.94965786039680        4.53316324450924
H           -7.74387575689407        4.71740900998431        3.35052325941607
H           -6.61880329384545        3.23937035586909        1.74275059030542
H           -5.34603948025727        1.22540290337805        1.72528413588844
H           -4.74941954347299        2.21345776765025       -0.51505920472528
H           -3.44770784802529        4.27924776072942       -0.74056563353196
H           -0.98534841079706        4.21984659155656       -0.47464275624870
H            0.15216360669758        2.08742291921783       -0.08922937503803
H            0.65722480534987       -1.45087571033238        1.88875684126631
H            3.12382711859112       -1.46931742725568        1.87600066558443
H            6.70154047875681       -3.37715723040314        1.88704591711557
H            8.69583213054947       -4.65845475723442        2.65381168265389
H           10.95019259125230       -3.75873654590202        2.20332636634382
H           11.24127040219896       -1.65437974834735        1.05317957994395
H           11.41556470558578        0.11186897582268        0.24379145965063
H           11.64068137087855        2.28596056740189       -0.79802909512487
H            9.63268656056023        3.55442334280703       -1.49336019474107
H            7.41277695367219        2.58792138652744       -1.17330193688357
H            4.13510773988096        2.47856485415340        0.57592236141036
H            3.31090655602155        4.45743155375742       -0.65387245189856
H            3.85793556357252        4.74059359598946       -3.04258865813670
H            5.23328994200680        3.05199986835189       -4.20084266428014
H            6.05294044989967        1.07157394199481       -2.97095899486812
H            3.11081142618879        0.49791668912771       -1.91694329698781
H            0.67800993538101        0.53768761643823       -1.89350466211668
H           -0.06555002470031       -2.90719151730450        0.09538020036380
H           -1.37164129800582       -4.93448571673453        0.51819602101941
H           -3.81818665722817       -4.77833243112158        0.87599322813156
H           -4.94089859906036       -2.60472426514659        0.70374867332387
H           -5.53776171266709       -1.55511023701954       -1.50513112678227
H           -7.00425849785567       -3.43668145675489       -1.47712052734936
H           -8.32153778978355       -4.78919360049019       -3.04904627213738

 projected vibrational frequencies (cm⁻¹)
eigval :       -0.00    -0.00    -0.00    -0.00     0.00     0.00
eigval :        5.55     6.43     9.47    18.77    20.40    25.57
eigval :       32.38    41.18    43.14    44.96    47.25    48.56
eigval :       50.22    63.66    72.71    75.40    84.08    90.87
eigval :       91.60    99.84   108.57   110.17   123.62   138.01
eigval :      163.42   168.44   171.90   180.64   203.26   217.14
eigval :      225.04   228.05   230.92   248.15   251.30   263.21
eigval :      268.26   273.94   279.79   295.09   304.51   321.69
eigval :      333.73   349.55   365.42   372.45   373.68   375.75
eigval :      377.52   382.13   386.84   392.60   396.02   400.30
eigval :      411.01   414.69   422.28   423.04   436.07   446.73
eigval :      468.98   471.12   474.40   484.51   505.30   518.26
eigval :      522.14   524.08   534.60   538.27   569.86   581.48
eigval :      582.21   582.84   585.29   588.19   589.32   593.28
eigval :      594.75   605.14   610.65   625.09   628.88   634.86
eigval :      643.02   651.45   655.56   668.06   670.12   671.98
eigval :      673.13   675.94   681.56   682.87   689.76   700.48
eigval :      706.28   716.89   732.98   735.56   748.03   757.54
eigval :      757.69   760.72   763.03   766.34   773.16   782.06
eigval :      795.67   820.75   828.05   838.23   845.52   851.52
eigval :      861.84   870.46   874.41   875.85   875.96   877.60
eigval :      888.33   890.03   892.86   899.48   900.93   901.60
eigval :      903.96   905.12   906.58   907.32   911.29   912.64
eigval :      914.22   923.42   926.91   928.23   928.76   930.24
eigval :      930.57   932.22   932.25   932.35   936.33   937.57
eigval :      939.04   946.41   955.27   986.52   989.62   992.15
eigval :     1005.96  1015.89  1028.94  1069.40  1079.19  1084.42
eigval :     1085.99  1086.13  1101.11  1102.30  1104.87  1108.67
eigval :     1114.63  1115.29  1120.68  1123.30  1124.48  1132.57
eigval :     1134.56  1139.84  1152.31  1173.30  1179.74  1179.99
eigval :     1181.30  1182.20  1182.46  1182.55  1182.78  1185.93
eigval :     1187.80  1188.64  1201.61  1201.74  1201.99  1211.03
eigval :     1232.05  1244.06  1249.70  1252.08  1253.21  1257.66
eigval :     1261.22  1268.73  1272.43  1275.17  1282.81  1283.01
eigval :     1284.42  1298.61  1300.51  1312.49  1313.16  1315.56
eigval :     1319.32  1321.92  1322.26  1325.72  1338.70  1346.02
eigval :     1362.16  1364.28  1369.12  1374.60  1377.58  1404.95
eigval :     1408.09  1409.14  1416.25  1416.65  1418.50  1426.89
eigval :     1430.59  1433.07  1436.26  1437.01  1443.70  1452.89
eigval :     1475.74  1479.95  1482.48  1485.30  1487.70  1505.45
eigval :     1512.74  1518.45  1523.58  1531.55  1546.20  1555.26
eigval :     1561.45  1561.82  1564.00  1566.18  1572.68  1581.98
eigval :     1582.67  1583.97  1593.24  1593.40  1600.43  1600.60
eigval :     1603.39  3070.05  3070.19  3071.22  3071.46  3071.76
eigval :     3074.49  3075.24  3076.43  3077.13  3079.02  3079.07
eigval :     3080.29  3081.29  3081.70  3081.78  3083.32  3083.34
eigval :     3083.71  3084.08  3084.20  3085.52  3085.91  3087.02
eigval :     3089.91  3091.81  3092.38  3093.02  3093.97  3094.69
eigval :     3096.10  3096.21  3098.60  3099.01  3101.95  3104.57
eigval :     3105.03  3110.67  3114.79

   temp. (K)  partition function   enthalpy   heat capacity  entropy
                                   cal/mol     cal/K/mol   cal/K/mol   J/K/mol
 298.15  VIB  0.169E+24            28294.101    178.251    178.254
         ROT  0.214E+09              888.752      2.981     41.100
         INT  0.361E+32            29182.853    181.232    219.354
         TR   0.209E+29             1481.254      4.968     45.801
         TOT                       30664.1072   186.1997   265.1549  1109.4081

       T/K    H(0)-H(T)+PV         H(T)/Eh          T*S/Eh         G(T)/Eh
   ------------------------------------------------------------------------
    298.15    0.488664E-01    0.810731E+00    0.125984E+00    0.684748E+00
   ------------------------------------------------------------------------

         :::::::::::::::::::::::::::::::::::::::::::::::::::::
         ::                  THERMODYNAMIC                  ::
         :::::::::::::::::::::::::::::::::::::::::::::::::::::
         :: total free energy        -150.864251691707 Eh   ::
         ::.................................................::
         :: total energy             -151.548999494521 Eh   ::
         :: zero point energy           0.761865088549 Eh   ::
         :: G(RRHO) w/o ZPVE           -0.077117285735 Eh   ::
         :: G(RRHO) contrib.            0.684747802814 Eh   ::
         :::::::::::::::::::::::::::::::::::::::::::::::::::::

           -------------------------------------------------
          | TOTAL ENERGY             -151.548999494521 Eh   |
          | TOTAL ENTHALPY           -150.738268040673 Eh   |
          | TOTAL FREE ENERGY        -150.864251691707 Eh   |
          | GRADIENT NORM               0.000052056275 Eh/α |
           -------------------------------------------------

 * finished run on 2025/07/19 at 15:47:37.678
