   * xtb version 6.7.1 (edcfbbe) compiled by 'albert@albert-system' on 2024-07-22

   ID    Z sym.   atoms
    1    6 C      1-9, 11, 13-19, 21-27, 29-37, 39-47
    2    7 N      10, 12, 20, 28, 38
    3    1 H      48-78

          program call               : xtb data2507/toluene/3DPTIA/3DPTIA_toluene_S0_crest.xyz --gfn 2 --gbsa toluene --ohess vtight --parallel 40 --molden --ceasefiles --namespace data2507/toluene/3DPTIA/3DPTIA_toluene_S0_finalOpt
      * Solvation model:               GBSA
        Solvent                        toluene
        Solvent mass                       9.2140E+01 g/mol
          :  Hamiltonian                  GFN2-xTB          :
 * total energy  :  -120.5145878 Eh     change       -0.2208665E-08 Eh
 * total energy  :  -120.5146677 Eh     change       -0.7992579E-04 Eh
 * total energy  :  -120.5147069 Eh     change       -0.3925083E-04 Eh
 * total energy  :  -120.5147187 Eh     change       -0.1176827E-04 Eh
 * total energy  :  -120.5147321 Eh     change       -0.1340532E-04 Eh
 * total energy  :  -120.5147424 Eh     change       -0.1031600E-04 Eh
 * total energy  :  -120.5147509 Eh     change       -0.8485598E-05 Eh
 * total energy  :  -120.5147582 Eh     change       -0.7246356E-05 Eh
 * total energy  :  -120.5147635 Eh     change       -0.5339884E-05 Eh
 * total energy  :  -120.5147679 Eh     change       -0.4430795E-05 Eh
 * total energy  :  -120.5147802 Eh     change       -0.3315204E-05 Eh
 * total energy  :  -120.5147831 Eh     change       -0.2912448E-05 Eh
 * total energy  :  -120.5147850 Eh     change       -0.1968430E-05 Eh
 * total energy  :  -120.5147864 Eh     change       -0.1371488E-05 Eh
 * total energy  :  -120.5147875 Eh     change       -0.1114896E-05 Eh
 * total energy  :  -120.5147883 Eh     change       -0.7260898E-06 Eh
 * total energy  :  -120.5147888 Eh     change       -0.5281468E-06 Eh
 * total energy  :  -120.5147893 Eh     change       -0.5375723E-06 Eh
 * total energy  :  -120.5147893 Eh     change       -0.8903044E-08 Eh
   *** GEOMETRY OPTIMIZATION CONVERGED AFTER 22 ITERATIONS ***

 final structure:
================
78
 xtb: 6.7.1 (edcfbbe)
C            1.56669346991623        3.99501935453301        1.35617030800269
C            0.55483931040320        2.91541945762767        0.96958274029879
C           -0.18033129019642        2.47049768632098        2.25206608454720
C           -0.47706726120155        3.41680509132231       -0.02542794191894
C           -0.69337584060803        4.75499891880566       -0.31984467623879
C           -1.67930003347835        5.13746124818609       -1.21404175899881
C           -2.45871199627006        4.18185551236968       -1.84139325515363
C           -2.24850594302649        2.84127916489645       -1.57569139748489
C           -1.27429361520642        2.46227578887667       -0.66283764722916
N           -1.00524581720718        1.10102387272881       -0.40846739250912
C           -1.98627002573214        0.20217268836659       -0.17193667245295
N           -3.25040545648566        0.63946082333079       -0.17646178307050
C           -4.17334437485961       -0.27372676628004        0.08050847262596
C           -5.57276259166020        0.16437859371036        0.09097219402129
C           -6.59756670977707       -0.75796743999667        0.29136788731780
C           -7.91518778997412       -0.34095033202497        0.29633254782272
C           -8.22151774352390        0.99731598116528        0.10258927415061
C           -7.20568560529574        1.92024834995087       -0.09506628474396
C           -5.88650829281270        1.50881209615266       -0.10144744253185
N           -3.92059499854952       -1.56000861543544        0.32506703537970
C           -2.63075771939982       -1.89589283865303        0.33349680042228
C           -2.28315533325605       -3.29434700091324        0.60551443286577
C           -0.94553319598357       -3.67255268917893        0.71041180893603
C           -0.61478867432614       -4.99324239357555        0.94635201017738
C           -1.61290575516370       -5.94634257511654        1.08176065682145
C           -2.94526265486328       -5.57495979583366        0.98405356059791
C           -3.28164029573635       -4.25566708697690        0.74594302059009
N           -1.63337761133198       -1.05740139480031        0.10225103029630
C            0.36849215929160        0.77475335605857       -0.30945511558933
C            0.86085466143978       -0.38056631912917       -0.88944538298917
C            2.21927525771761       -0.64305112468789       -0.79559406454931
C            3.05057526801688       -1.73126179289417       -1.22533781799177
C            2.79875439479491       -2.92089523477923       -1.89752941882615
C            3.85865607648663       -3.76184661843333       -2.17232549062034
C            5.15837301508338       -3.42171477998225       -1.80008531376126
C            5.43343201753132       -2.24556697264657       -1.12896925810465
C            4.36904378536509       -1.40702155870734       -0.82693919632099
N            4.36622626307288       -0.18325560255275       -0.18787360095388
C            5.48961013008542        0.47213467445058        0.34576232703850
C            5.75541375347754        1.79365785918183       -0.00061417782649
C            6.85719781892280        2.43820080128399        0.53208307986905
C            7.70506370829431        1.77025090131974        1.40053589748865
C            7.44437123504324        0.45303324221657        1.74140345418716
C            6.33857996698316       -0.19633372114582        1.22259543510370
C            3.07086479147830        0.28845269494108       -0.16158324113104
C            2.56929803807363        1.44843992008685        0.41148332007431
C            1.20946949473405        1.69540871149909        0.34312068979238
H            2.27003663798023        3.60478815475327        2.08677879621985
H            1.05532359372727        4.83477057721219        1.81880720896646
H            2.11381014135389        4.34597143758725        0.48455621549608
H           -0.91524427397266        1.69618560304394        2.04296597655063
H            0.53477258774870        2.07558143059036        2.97068737817830
H           -0.69630601596046        3.31830865908832        2.69800484018812
H           -0.09601528874890        5.51856154415715        0.15021454349267
H           -1.83513695807496        6.18530063098197       -1.42219603450781
H           -3.22245266287821        4.47462655333976       -2.54627463846072
H           -2.83806641262859        2.08496607197968       -2.06924140686266
H           -6.33948801549651       -1.79507652301477        0.44053267468998
H           -8.70631913504239       -1.05986395297716        0.45110896937929
H           -9.25191640848041        1.32094520185564        0.10662372193483
H           -7.44386343065646        2.96319770374019       -0.24394327842485
H           -5.08155812823886        2.21241701025094       -0.25059534584179
H           -0.18306525979560       -2.91580960212649        0.60593754102478
H            0.42368362029664       -5.28041835126529        1.02334166230002
H           -1.35267339692272       -6.97846854935569        1.26477480464269
H           -3.72283745585028       -6.31699871401724        1.09093555900798
H           -4.31289462484168       -3.94894085030816        0.66240210516578
H            0.19794020836168       -1.06541630908123       -1.39165332911948
H            1.79301664234398       -3.17580698703861       -2.19761496345215
H            3.68397181633640       -4.69291850033981       -2.69110076246049
H            5.96922384383858       -4.09232834567906       -2.04399116151561
H            6.44506370581226       -1.98535992627112       -0.85716644855299
H            5.10405420009394        2.30301199235359       -0.69509298516027
H            7.05842052572561        3.46382022653889        0.26020646608842
H            8.56680239374695        2.27489469373683        1.81071221224057
H            8.10044624203679       -0.07053187237705        2.42092767677365
H            6.12033740711808       -1.21652040820020        1.50131969877925
H            3.23655162897747        2.12930249950549        0.91139173900703

          :  Hamiltonian                  GFN2-xTB          :
         :: gradient norm              0.000077152610 Eh/a0 ::
         :: HOMO-LUMO gap              2.064977591427 eV    ::
         :: SCC energy              -122.684150495039 Eh    ::
         :: -> dispersion             -0.110697945971 Eh    ::
         :: -> Gsolv                  -0.054779819170 Eh    ::
         :: repulsion energy           2.169361168888 Eh    ::

    * Orbital Energies and Occupations

         #    Occupation            Energy/Eh            Energy/eV
      -------------------------------------------------------------
         1        2.0000           -0.6865805             -18.6828
       ...           ...                  ...                  ...
       100        2.0000           -0.4147682             -11.2864
       101        2.0000           -0.4145453             -11.2804
       102        2.0000           -0.4137978             -11.2600
       103        2.0000           -0.4125793             -11.2269
       104        2.0000           -0.4110075             -11.1841
       105        2.0000           -0.4105147             -11.1707
       106        2.0000           -0.4089736             -11.1287
       107        2.0000           -0.4061800             -11.0527
       108        2.0000           -0.3863943             -10.5143
       109        2.0000           -0.3792966             -10.3212
       110        2.0000           -0.3754237             -10.2158
       111        2.0000           -0.3731804             -10.1548
       112        2.0000           -0.3616663              -9.8414 (HOMO)
       113                         -0.2857798              -7.7765 (LUMO)
       114                         -0.2689195              -7.3177
       115                         -0.2512276              -6.8363
       116                         -0.2359207              -6.4197
       117                         -0.2331183              -6.3435
       118                         -0.2324494              -6.3253
       119                         -0.2320723              -6.3150
       120                         -0.2317989              -6.3076
       121                         -0.2300060              -6.2588
       122                         -0.2278383              -6.1998
       123                         -0.2083534              -5.6696
       ...                                ...                  ...
       219                          0.7391835              20.1142
      -------------------------------------------------------------
                  HL-Gap            0.0758865 Eh            2.0650 eV

     #   Z          covCN         q      C6AA      α(0)
     1   6 C        3.759    -0.113    22.709     6.794
     2   6 C        3.910     0.022    20.144     6.379
     3   6 C        3.762    -0.096    22.371     6.742
     4   6 C        2.985    -0.008    28.203     8.711
     5   6 C        2.923    -0.041    29.008     8.832
     6   6 C        2.919    -0.037    28.928     8.820
     7   6 C        2.920    -0.034    28.850     8.808
     8   6 C        2.920    -0.042    29.035     8.836
     9   6 C        2.944     0.065    26.538     8.449
    10   7 N        2.766    -0.078    22.757     7.085
    11   6 C        2.932     0.293    22.050     7.701
    12   7 N        1.848    -0.352    30.018     8.120
    13   6 C        2.987     0.221    23.345     7.926
    14   6 C        2.984    -0.011    28.276     8.723
    15   6 C        2.923    -0.028    28.698     8.785
    16   6 C        2.918    -0.029    28.732     8.790
    17   6 C        2.920    -0.025    28.629     8.774
    18   6 C        2.918    -0.029    28.725     8.789
    19   6 C        2.923    -0.029    28.713     8.787
    20   7 N        1.842    -0.354    30.053     8.124
    21   6 C        2.987     0.222    23.337     7.924
    22   6 C        2.984    -0.011    28.273     8.722
    23   6 C        2.924    -0.028    28.707     8.786
    24   6 C        2.918    -0.029    28.717     8.788
    25   6 C        2.920    -0.025    28.627     8.774
    26   6 C        2.918    -0.029    28.733     8.790
    27   6 C        2.923    -0.028    28.700     8.785
    28   7 N        1.848    -0.351    29.966     8.113
    29   6 C        2.941     0.053    26.813     8.493
    30   6 C        2.913    -0.046    29.142     8.852
    31   6 C        3.070    -0.021    28.453     8.746
    32   6 C        3.068    -0.018    28.398     8.738
    33   6 C        2.912    -0.034    28.853     8.808
    34   6 C        2.920    -0.042    29.048     8.838
    35   6 C        2.924    -0.034    28.854     8.809
    36   6 C        2.909    -0.051    29.273     8.872
    37   6 C        3.079     0.047    26.866     8.498
    38   7 N        2.802    -0.042    22.044     6.973
    39   6 C        2.913     0.062    26.607     8.458
    40   6 C        2.922    -0.043    29.062     8.841
    41   6 C        2.920    -0.028    28.693     8.784
    42   6 C        2.919    -0.032    28.804     8.801
    43   6 C        2.920    -0.028    28.691     8.784
    44   6 C        2.922    -0.042    29.045     8.838
    45   6 C        3.076     0.042    26.970     8.515
    46   6 C        2.913    -0.063    29.564     8.916
    47   6 C        2.987    -0.011    28.283     8.724
    48   1 H        0.925     0.049     2.338     2.391
    49   1 H        0.925     0.050     2.326     2.385
    50   1 H        0.925     0.046     2.375     2.410
    51   1 H        0.925     0.019     2.755     2.596
    52   1 H        0.925     0.044     2.401     2.423
    53   1 H        0.925     0.044     2.400     2.423
    54   1 H        0.926     0.053     2.279     2.361
    55   1 H        0.926     0.044     2.394     2.420
    56   1 H        0.926     0.040     2.444     2.445
    57   1 H        0.926     0.034     2.525     2.485
    58   1 H        0.926     0.046     2.368     2.406
    59   1 H        0.926     0.044     2.391     2.418
    60   1 H        0.926     0.048     2.351     2.398
    61   1 H        0.926     0.045     2.388     2.416
    62   1 H        0.926     0.048     2.348     2.396
    63   1 H        0.926     0.048     2.340     2.392
    64   1 H        0.926     0.044     2.392     2.419
    65   1 H        0.926     0.047     2.352     2.399
    66   1 H        0.926     0.044     2.391     2.418
    67   1 H        0.926     0.046     2.373     2.409
    68   1 H        0.926     0.038     2.478     2.462
    69   1 H        0.926     0.027     2.626     2.534
    70   1 H        0.926     0.031     2.576     2.510
    71   1 H        0.926     0.035     2.519     2.482
    72   1 H        0.926     0.035     2.512     2.479
    73   1 H        0.926     0.043     2.409     2.427
    74   1 H        0.926     0.043     2.408     2.427
    75   1 H        0.926     0.042     2.427     2.436
    76   1 H        0.926     0.042     2.419     2.432
    77   1 H        0.926     0.043     2.415     2.430
    78   1 H        0.926     0.052     2.295     2.369

molecular dipole:
                 x           y           z       tot (Debye)
 q only:        1.650       1.053       0.474
   full:        1.479       0.921       0.448       4.572

 projected vibrational frequencies (cm⁻¹)
eigval :       -0.00    -0.00    -0.00     0.00     0.00     0.00
eigval :       11.60    15.27    21.38    34.51    36.08    40.66
eigval :       45.17    49.92    57.48    65.50    69.04    71.89
eigval :       89.31    96.06   112.20   114.86   129.71   139.34
eigval :      158.05   182.57   184.72   191.11   201.84   208.63
eigval :      214.44   220.86   229.57   252.23   261.83   267.58
eigval :      285.54   294.93   316.71   323.17   344.01   363.75
eigval :      365.33   367.66   380.19   383.03   384.09   390.04
eigval :      405.14   408.44   421.61   423.31   429.17   445.21
eigval :      447.58   478.10   491.48   509.48   519.82   531.11
eigval :      538.44   550.61   573.65   581.96   586.24   587.44
eigval :      588.98   604.99   612.39   620.43   626.93   631.67
eigval :      637.37   644.25   654.46   666.17   670.36   673.97
eigval :      675.73   685.96   705.65   717.19   729.96   745.65
eigval :      752.99   763.65   775.25   776.48   779.07   787.40
eigval :      804.91   825.33   845.36   846.18   866.38   873.04
eigval :      873.14   878.07   880.41   885.38   904.60   908.48
eigval :      908.92   911.82   913.28   913.50   922.75   923.13
eigval :      927.00   930.82   931.99   932.74   934.04   935.12
eigval :      935.25   939.22   956.92   965.85   989.91   994.25
eigval :     1006.09  1014.04  1021.13  1046.73  1069.07  1074.87
eigval :     1075.59  1078.41  1081.41  1083.93  1103.67  1108.58
eigval :     1111.43  1115.83  1124.15  1141.89  1149.56  1166.01
eigval :     1169.80  1173.25  1175.93  1176.92  1177.27  1178.06
eigval :     1180.62  1185.66  1193.38  1199.81  1209.75  1221.74
eigval :     1223.52  1238.92  1245.54  1260.71  1261.72  1269.03
eigval :     1270.12  1271.61  1277.82  1285.87  1314.94  1321.51
eigval :     1323.94  1325.91  1326.82  1351.77  1358.94  1359.58
eigval :     1371.56  1382.58  1393.82  1411.69  1424.11  1429.11
eigval :     1430.84  1432.03  1435.42  1439.26  1443.85  1464.57
eigval :     1466.23  1469.57  1478.96  1485.15  1488.81  1489.14
eigval :     1491.67  1502.30  1503.60  1519.67  1533.66  1560.53
eigval :     1580.48  1582.35  1583.09  1584.34  1586.28  1592.49
eigval :     1593.38  1593.86  1594.51  1599.96  1614.00  3024.85
eigval :     3026.94  3035.56  3037.96  3038.92  3050.70  3073.50
eigval :     3075.08  3075.77  3078.11  3078.44  3079.23  3079.72
eigval :     3079.88  3080.25  3086.38  3088.76  3089.52  3089.68
eigval :     3090.00  3092.15  3094.51  3098.55  3098.65  3099.49
eigval :     3100.95  3101.92  3103.15  3114.39  3116.30  3125.05

   temp. (K)  partition function   enthalpy   heat capacity  entropy
                                   cal/mol     cal/K/mol   cal/K/mol   J/K/mol
 298.15  VIB  0.374E+17            21964.979    139.669    136.039
         ROT  0.706E+08              888.752      2.981     38.895
         INT  0.264E+25            22853.731    142.650    174.933
         TR   0.144E+29             1481.254      4.968     45.067
         TOT                       24334.9853   147.6180   220.0002   920.4810

       T/K    H(0)-H(T)+PV         H(T)/Eh          T*S/Eh         G(T)/Eh
   ------------------------------------------------------------------------
    298.15    0.387803E-01    0.644421E+00    0.104529E+00    0.539892E+00
   ------------------------------------------------------------------------

         :::::::::::::::::::::::::::::::::::::::::::::::::::::
         ::                  THERMODYNAMIC                  ::
         :::::::::::::::::::::::::::::::::::::::::::::::::::::
         :: total free energy        -119.974897672962 Eh   ::
         ::.................................................::
         :: total energy             -120.514789328610 Eh   ::
         :: zero point energy           0.605640597477 Eh   ::
         :: G(RRHO) w/o ZPVE           -0.065748941829 Eh   ::
         :: G(RRHO) contrib.            0.539891655648 Eh   ::
         :::::::::::::::::::::::::::::::::::::::::::::::::::::

           -------------------------------------------------
          | TOTAL ENERGY             -120.514789328610 Eh   |
          | TOTAL ENTHALPY           -119.870368463608 Eh   |
          | TOTAL FREE ENERGY        -119.974897672962 Eh   |
          | GRADIENT NORM               0.000077091708 Eh/α |
          | HOMO-LUMO GAP               2.064977262411 eV   |
           -------------------------------------------------

 * finished run on 2025/07/19 at 13:26:54.522
