   * xtb version 6.7.1 (edcfbbe) compiled by 'albert@albert-system' on 2024-07-22

   ID    Z sym.   atoms
    1    6 C      1-9, 11, 13-19, 21-27, 29-37, 39-47
    2    7 N      10, 12, 20, 28, 38
    3    1 H      48-78

          program call               : xtb data2507/toluene/3DPTIA/3DPTIA_toluene_T1_crest.xyz --gfn 2 --uhf 2 --gbsa toluene --ohess vtight --parallel 40 --molden --ceasefiles --namespace data2507/toluene/3DPTIA/3DPTIA_toluene_T1_finalOpt
      * Solvation model:               GBSA
        Solvent                        toluene
        Solvent mass                       9.2140E+01 g/mol
          :  Hamiltonian                  GFN2-xTB          :
 * total energy  :  -120.4294246 Eh     change       -0.6263916E-07 Eh
 * total energy  :  -120.4296111 Eh     change       -0.1864714E-03 Eh
 * total energy  :  -120.4297164 Eh     change       -0.1052877E-03 Eh
 * total energy  :  -120.4297351 Eh     change       -0.1879063E-04 Eh
 * total energy  :  -120.4297782 Eh     change       -0.4301842E-04 Eh
 * total energy  :  -120.4297974 Eh     change       -0.1919420E-04 Eh
 * total energy  :  -120.4298331 Eh     change       -0.3575667E-04 Eh
 * total energy  :  -120.4298618 Eh     change       -0.2871162E-04 Eh
 * total energy  :  -120.4298747 Eh     change       -0.1288771E-04 Eh
 * total energy  :  -120.4299048 Eh     change       -0.3005237E-04 Eh
 * total energy  :  -120.4301452 Eh     change       -0.1032095E-05 Eh
 * total energy  :  -120.4301463 Eh     change       -0.1046473E-05 Eh
 * total energy  :  -120.4301474 Eh     change       -0.1087868E-05 Eh
 * total energy  :  -120.4301484 Eh     change       -0.1079957E-05 Eh
 * total energy  :  -120.4301493 Eh     change       -0.8366164E-06 Eh
 * total energy  :  -120.4301497 Eh     change       -0.4806106E-06 Eh
 * total energy  :  -120.4301501 Eh     change       -0.3096532E-06 Eh
 * total energy  :  -120.4301501 Eh     change        0.5947570E-08 Eh
 * total energy  :  -120.4301501 Eh     change       -0.1399782E-07 Eh
   *** GEOMETRY OPTIMIZATION CONVERGED AFTER 45 ITERATIONS ***

 final structure:
================
78
 xtb: 6.7.1 (edcfbbe)
C            1.61941013122733        4.12475038313621        1.26369428309491
C            0.57784347715123        3.04910109400699        0.95035868888168
C           -0.06428813165250        2.59824756031375        2.28121263180081
C           -0.52865257812063        3.55586199239195        0.04361090435891
C           -0.78864370111842        4.89809536933719       -0.18810373125683
C           -1.85361814147148        5.29312632197702       -0.98063877992937
C           -2.67540136464838        4.34448850145984       -1.56406761494346
C           -2.42875522241416        3.00035183117060       -1.35836963338961
C           -1.36804573474793        2.60618036109803       -0.55141695170975
N           -1.05797670235231        1.24739734538878       -0.37812148824202
C           -2.00495501143687        0.26614227044807       -0.16913930048450
N           -3.27673629001166        0.55773441749342       -0.31822521063505
C           -4.16750758598488       -0.43315404214290        0.02903876222059
C           -5.56917841396990       -0.13410099609702        0.00231249828341
C           -6.52260542738311       -1.12410051405214        0.29557369543579
C           -7.86700491208775       -0.83072189634988        0.26752039739903
C           -8.30299748335109        0.45081379160705       -0.05022485318408
C           -7.37052611529264        1.43995072368767       -0.33715857947619
C           -6.02277263063690        1.15810557988193       -0.31310047452808
N           -3.75488093343341       -1.64662165118278        0.36792909158781
C           -2.45744679840813       -1.89912132664844        0.43123749831104
C           -1.98862855529723       -3.22069553119137        0.73383664219746
C           -0.61212487258801       -3.48716024961411        0.82760319687889
C           -0.16402149588875       -4.75970989394542        1.10476059543727
C           -1.06694814080535       -5.79729673864439        1.29959387684653
C           -2.43179430510098       -5.54522827309747        1.21334953675367
C           -2.89135062425831       -4.27832945331062        0.93282792356436
N           -1.53343678692612       -0.90210845028385        0.23836926499826
C            0.29587452869506        0.91916076594193       -0.33287425975649
C            0.74936734544235       -0.26258208816910       -0.92053640640325
C            2.09451044935762       -0.56595750049111       -0.84516016413286
C            2.89030055504940       -1.68032583999745       -1.28719628133907
C            2.59555142111902       -2.86366813122638       -1.94785332833246
C            3.63239317388107       -3.73394735083353       -2.23478251537684
C            4.94542942884449       -3.42782706764984       -1.88509165599934
C            5.26229830942806       -2.25488201368121       -1.22362949308213
C            4.22292139062589       -1.38989681379459       -0.91084992132004
N            4.26020899417652       -0.16174281597422       -0.27619862122949
C            5.41285511911552        0.46562526366674        0.22894694966081
C            5.70724477120244        1.77763658977322       -0.13129952605887
C            6.83864023099300        2.39171463755804        0.37475137929626
C            7.68249848707575        1.70398925592136        1.23205679157556
C            7.39035087308724        0.39697693101115        1.58800923370684
C            6.25834328088463       -0.22463956741414        1.09281626026773
C            2.98719960492790        0.34384633324076       -0.22797893378821
C            2.53160246877763        1.53101215715370        0.33924449350016
C            1.18392961524279        1.82617655957083        0.28685604205068
H            2.36896511348738        3.73517515727043        1.94647367402192
H            1.14529701054524        4.96716906823389        1.75871973092822
H            2.10528011164637        4.47106678013596        0.35486022454834
H           -0.81052789749188        1.82302062040560        2.11967301961038
H            0.69944202992070        2.20264924396401        2.94709292555982
H           -0.54942808763148        3.44400454088343        2.76336868635444
H           -0.16306943295979        5.65647841557503        0.25199552056856
H           -2.03990189059927        6.34404074793444       -1.14178212687439
H           -3.50166225506781        4.64606090709098       -2.18993628199214
H           -3.04891043086338        2.24849420430559       -1.81790891936631
H           -6.17528401765221       -2.11657553475167        0.54194923029896
H           -8.58928006483275       -1.60286168436403        0.49378594389356
H           -9.35903187049240        0.67566783677488       -0.07096087266971
H           -7.70514707466887        2.43898154359582       -0.58017334960663
H           -5.29176148742176        1.92342624412520       -0.52662537956888
H            0.08232798461591       -2.67355608984964        0.67977274173934
H            0.89796854219482       -4.95132367365681        1.17147125462644
H           -0.71230176155193       -6.79369840760661        1.51765167795233
H           -3.13719617697170       -6.35044192779490        1.36503122323522
H           -3.94913870556635       -4.07315034730285        0.85962965527120
H            0.06269797038600       -0.91572199532225       -1.43261743430255
H            1.57957553903794       -3.09621473780045       -2.22867118761951
H            3.42354826373579       -4.66129795937615       -2.74660543262821
H            5.73398448908277       -4.12053525499500       -2.13755176007746
H            6.28384415140458       -2.01995476489287       -0.96855758120310
H            5.05964261313239        2.30014964662563       -0.81913599006678
H            7.06525252945587        3.40855581458993        0.09165985430144
H            8.56629784359212        2.18519470556642        1.62231502050627
H            8.04235117829538       -0.14022761473066        2.26019032437709
H            6.01367404209330       -1.23472584644489        1.38502192133606
H            3.22774098172293        2.18725716828029        0.83242997192088

          :  Hamiltonian                  GFN2-xTB          :
         :: gradient norm              0.000068776014 Eh/a0 ::
         :: HOMO-LUMO gap              0.421468645786 eV    ::
         :: SCC energy              -122.589176985460 Eh    ::
         :: -> dispersion             -0.111059083394 Eh    ::
         :: -> Gsolv                  -0.059477635338 Eh    ::
         :: repulsion energy           2.159026919206 Eh    ::

    * Orbital Energies and Occupations

         #    Occupation            Energy/Eh            Energy/eV
      -------------------------------------------------------------
         1        2.0000           -0.6976601             -18.9843
       ...           ...                  ...                  ...
       101        2.0000           -0.4177390             -11.3673
       102        2.0000           -0.4150633             -11.2944
       103        2.0000           -0.4117987             -11.2056
       104        2.0000           -0.4000096             -10.8848
       105        2.0000           -0.3987795             -10.8513
       106        2.0000           -0.3977503             -10.8233
       107        2.0000           -0.3937103             -10.7134
       108        2.0000           -0.3905493             -10.6274
       109        2.0000           -0.3896758             -10.6036
       110        1.9957           -0.3740713             -10.1790
       111        1.7985           -0.3702037             -10.0738
       112        1.2058           -0.3676121             -10.0032
       113        0.9997           -0.2790628              -7.5937 (HOMO)
       114        0.0003           -0.2635727              -7.1722 (LUMO)
       115        0.0000           -0.2609012              -7.0995
       116                         -0.2461378              -6.6978
       117                         -0.2413593              -6.5677
       118                         -0.2402220              -6.5368
       119                         -0.2346906              -6.3863
       120                         -0.2324860              -6.3263
       121                         -0.2158350              -5.8732
       122                         -0.2145385              -5.8379
       123                         -0.2127737              -5.7899
       124                         -0.2045248              -5.5654
       ...                                ...                  ...
       219                          0.7262545              19.7624
      -------------------------------------------------------------
                  HL-Gap            0.0154901 Eh            0.4215 eV

     #   Z          covCN         q      C6AA      α(0)
     1   6 C        3.759    -0.117    22.784     6.805
     2   6 C        3.910     0.023    20.124     6.376
     3   6 C        3.763    -0.098    22.421     6.749
     4   6 C        2.984    -0.006    28.170     8.706
     5   6 C        2.923    -0.039    28.965     8.826
     6   6 C        2.918    -0.034    28.852     8.808
     7   6 C        2.920    -0.031    28.778     8.797
     8   6 C        2.920    -0.043    29.061     8.840
     9   6 C        2.938     0.063    26.589     8.457
    10   7 N        2.769    -0.061    22.427     7.034
    11   6 C        2.881     0.290    22.094     7.706
    12   7 N        1.843    -0.347    29.857     8.098
    13   6 C        2.941     0.180    24.150     8.060
    14   6 C        2.979    -0.016    28.413     8.744
    15   6 C        2.922    -0.040    29.006     8.832
    16   6 C        2.916    -0.035    28.868     8.811
    17   6 C        2.919    -0.043    29.068     8.841
    18   6 C        2.916    -0.035    28.873     8.811
    19   6 C        2.923    -0.041    29.029     8.836
    20   7 N        1.844    -0.295    28.488     7.910
    21   6 C        2.934     0.181    24.125     8.055
    22   6 C        2.979    -0.016    28.415     8.744
    23   6 C        2.923    -0.041    29.014     8.833
    24   6 C        2.916    -0.034    28.858     8.809
    25   6 C        2.919    -0.042    29.049     8.838
    26   6 C        2.916    -0.034    28.857     8.809
    27   6 C        2.922    -0.040    28.983     8.829
    28   7 N        1.850    -0.339    29.650     8.070
    29   6 C        2.946     0.068    26.474     8.439
    30   6 C        2.913    -0.034    28.858     8.809
    31   6 C        3.067    -0.014    28.290     8.722
    32   6 C        3.065    -0.012    28.235     8.713
    33   6 C        2.912    -0.028    28.691     8.783
    34   6 C        2.920    -0.033    28.829     8.805
    35   6 C        2.923    -0.030    28.738     8.791
    36   6 C        2.909    -0.043    29.080     8.842
    37   6 C        3.079     0.046    26.887     8.501
    38   7 N        2.804    -0.010    21.455     6.880
    39   6 C        2.914     0.059    26.670     8.468
    40   6 C        2.921    -0.040    28.987     8.829
    41   6 C        2.920    -0.025    28.621     8.773
    42   6 C        2.919    -0.027    28.685     8.783
    43   6 C        2.920    -0.025    28.616     8.772
    44   6 C        2.921    -0.038    28.957     8.824
    45   6 C        3.074     0.046    26.902     8.504
    46   6 C        2.912    -0.054    29.335     8.881
    47   6 C        2.985    -0.005    28.148     8.703
    48   1 H        0.925     0.054     2.275     2.359
    49   1 H        0.925     0.055     2.263     2.352
    50   1 H        0.925     0.050     2.320     2.382
    51   1 H        0.925     0.022     2.697     2.568
    52   1 H        0.925     0.049     2.334     2.389
    53   1 H        0.925     0.049     2.336     2.390
    54   1 H        0.926     0.059     2.209     2.324
    55   1 H        0.926     0.048     2.340     2.392
    56   1 H        0.926     0.044     2.400     2.423
    57   1 H        0.926     0.049     2.328     2.386
    58   1 H        0.926     0.026     2.644     2.543
    59   1 H        0.925     0.026     2.644     2.543
    60   1 H        0.926     0.027     2.627     2.535
    61   1 H        0.925     0.027     2.624     2.533
    62   1 H        0.926     0.031     2.579     2.511
    63   1 H        0.926     0.030     2.582     2.513
    64   1 H        0.926     0.028     2.610     2.526
    65   1 H        0.926     0.028     2.611     2.527
    66   1 H        0.926     0.026     2.637     2.539
    67   1 H        0.926     0.026     2.643     2.542
    68   1 H        0.926     0.048     2.348     2.396
    69   1 H        0.926     0.036     2.502     2.473
    70   1 H        0.926     0.042     2.426     2.436
    71   1 H        0.926     0.046     2.364     2.405
    72   1 H        0.926     0.049     2.335     2.390
    73   1 H        0.926     0.050     2.318     2.381
    74   1 H        0.926     0.050     2.317     2.380
    75   1 H        0.926     0.048     2.344     2.394
    76   1 H        0.926     0.049     2.333     2.389
    77   1 H        0.926     0.049     2.329     2.386
    78   1 H        0.926     0.068     2.107     2.270

molecular dipole:
                 x           y           z       tot (Debye)
 q only:        5.803       2.482      -0.071
   full:        5.538       2.287      -0.103      15.230

 projected vibrational frequencies (cm⁻¹)
eigval :       -0.00    -0.00    -0.00     0.00     0.00     0.00
eigval :       10.87    13.90    23.96    36.64    41.77    46.28
eigval :       48.92    50.16    57.83    66.24    70.49    76.37
eigval :       88.52    95.06   108.82   113.88   134.31   153.23
eigval :      155.69   176.50   183.40   196.89   198.26   210.62
eigval :      219.07   222.15   231.21   249.73   259.82   265.37
eigval :      274.91   292.25   311.12   314.83   338.38   358.61
eigval :      370.72   372.79   376.28   379.52   381.11   384.73
eigval :      390.44   405.25   413.28   421.03   427.67   441.73
eigval :      445.04   478.53   481.28   505.01   513.45   523.49
eigval :      540.37   547.40   559.15   566.20   570.64   580.93
eigval :      582.47   586.71   587.58   593.43   605.56   618.14
eigval :      626.29   640.12   647.16   651.06   652.88   664.77
eigval :      668.52   672.78   686.62   706.36   714.15   724.53
eigval :      740.50   747.15   747.60   765.43   774.83   776.45
eigval :      793.54   811.71   825.21   839.65   850.60   858.64
eigval :      860.59   869.80   872.62   874.15   875.42   884.44
eigval :      906.86   908.05   911.46   913.84   918.25   919.14
eigval :      919.96   920.81   922.75   925.57   927.53   931.48
eigval :      935.17   935.61   938.56   965.07   965.78   974.25
eigval :      992.48   999.78  1006.55  1017.74  1067.36  1068.71
eigval :     1069.98  1073.18  1077.65  1079.45  1088.18  1103.58
eigval :     1109.18  1111.98  1115.73  1119.29  1128.98  1129.49
eigval :     1146.89  1162.25  1171.12  1173.50  1176.39  1177.39
eigval :     1178.06  1180.59  1189.23  1191.78  1202.31  1206.98
eigval :     1213.96  1224.92  1241.08  1255.26  1255.55  1265.89
eigval :     1270.63  1272.55  1274.94  1283.48  1292.56  1310.86
eigval :     1314.36  1315.89  1321.99  1337.03  1337.72  1345.85
eigval :     1351.50  1364.65  1373.66  1391.92  1394.89  1399.54
eigval :     1411.73  1418.61  1426.13  1430.00  1430.43  1434.53
eigval :     1437.98  1457.65  1459.77  1460.72  1469.07  1481.29
eigval :     1484.51  1484.85  1488.97  1499.87  1520.25  1535.90
eigval :     1539.89  1540.41  1572.31  1574.22  1576.61  1577.22
eigval :     1582.02  1585.88  1586.75  1588.54  1601.24  3028.03
eigval :     3031.77  3039.21  3040.94  3041.81  3057.50  3061.82
eigval :     3062.52  3062.68  3063.67  3080.68  3080.97  3082.89
eigval :     3083.98  3084.43  3085.31  3085.67  3085.91  3087.76
eigval :     3090.31  3091.78  3092.89  3094.44  3095.15  3096.33
eigval :     3101.65  3102.76  3113.53  3115.76  3119.75  3129.12

   temp. (K)  partition function   enthalpy   heat capacity  entropy
                                   cal/mol     cal/K/mol   cal/K/mol   J/K/mol
 298.15  VIB  0.297E+17            22175.343    142.004    137.133
         ROT  0.694E+08              888.752      2.981     38.861
         INT  0.206E+25            23064.095    144.985    175.993
         TR   0.144E+29             1481.254      4.968     45.067
         TOT                       24545.3491   149.9535   221.0599   924.9145

       T/K    H(0)-H(T)+PV         H(T)/Eh          T*S/Eh         G(T)/Eh
   ------------------------------------------------------------------------
    298.15    0.391155E-01    0.640517E+00    0.105033E+00    0.535484E+00
   ------------------------------------------------------------------------

         :::::::::::::::::::::::::::::::::::::::::::::::::::::
         ::                  THERMODYNAMIC                  ::
         :::::::::::::::::::::::::::::::::::::::::::::::::::::
         :: total free energy        -119.894666222841 Eh   ::
         ::.................................................::
         :: total energy             -120.430150069828 Eh   ::
         :: zero point energy           0.601401024846 Eh   ::
         :: G(RRHO) w/o ZPVE           -0.065917177859 Eh   ::
         :: G(RRHO) contrib.            0.535483846987 Eh   ::
         :::::::::::::::::::::::::::::::::::::::::::::::::::::

           -------------------------------------------------
          | TOTAL ENERGY             -120.430150069828 Eh   |
          | TOTAL ENTHALPY           -119.789633541312 Eh   |
          | TOTAL FREE ENERGY        -119.894666222841 Eh   |
          | GRADIENT NORM               0.000069387619 Eh/α |
          | HOMO-LUMO GAP               0.421507470176 eV   |
           -------------------------------------------------

 * finished run on 2025/07/19 at 13:32:41.829
