   * xtb version 6.7.1 (edcfbbe) compiled by 'albert@albert-system' on 2024-07-22

   ID    Z sym.   atoms
    1    6 C      1-9, 11, 13-19, 21-27, 29-37, 39-47
    2    7 N      10, 12, 20, 28, 38
    3    1 H      48-78

          program call               : xtb data2507/toluene/3DPTIA/3DPTIA.xyz --gfn 2 --gbsa toluene --ohess vtight --parallel 40 --molden --ceasefiles --namespace data2507/toluene/3DPTIA/3DPTIA_toluene_S0_preOpt
      * Solvation model:               GBSA
        Solvent                        toluene
        Solvent mass                       9.2140E+01 g/mol
          :  Hamiltonian                  GFN2-xTB          :
 * total energy  :  -120.4764405 Eh     change       -0.2052630E-08 Eh
 * total energy  :  -120.4922727 Eh     change       -0.1583221E-01 Eh
 * total energy  :  -120.4985351 Eh     change       -0.6262345E-02 Eh
 * total energy  :  -120.5002516 Eh     change       -0.1716513E-02 Eh
 * total energy  :  -120.5008352 Eh     change       -0.5835859E-03 Eh
 * total energy  :  -120.5010019 Eh     change       -0.1667261E-03 Eh
 * total energy  :  -120.5010908 Eh     change       -0.8888776E-04 Eh
 * total energy  :  -120.5011698 Eh     change       -0.7900264E-04 Eh
 * total energy  :  -120.5012510 Eh     change       -0.8119568E-04 Eh
 * total energy  :  -120.5013258 Eh     change       -0.7479771E-04 Eh
 * total energy  :  -120.5147132 Eh     change       -0.2085717E-05 Eh
 * total energy  :  -120.5147152 Eh     change       -0.1975931E-05 Eh
 * total energy  :  -120.5147170 Eh     change       -0.1833492E-05 Eh
 * total energy  :  -120.5147188 Eh     change       -0.1771941E-05 Eh
 * total energy  :  -120.5147205 Eh     change       -0.1785710E-05 Eh
 * total energy  :  -120.5147224 Eh     change       -0.1822961E-05 Eh
 * total energy  :  -120.5147242 Eh     change       -0.1846833E-05 Eh
 * total energy  :  -120.5147260 Eh     change       -0.1819074E-05 Eh
 * total energy  :  -120.5147260 Eh     change       -0.6807795E-08 Eh
   *** GEOMETRY OPTIMIZATION CONVERGED AFTER 300 ITERATIONS ***

 final structure:
================
78
 xtb: 6.7.1 (edcfbbe)
C            2.26700093697004        3.57972211537196        0.97201934251371
C            1.04557072596396        2.71096496248241        0.66804743448003
C            0.25588068378021        2.52289923365088        1.98157945484344
C            0.12079392482928        3.34626262445728       -0.35528326773557
C            0.17713365393029        4.67820466050497       -0.73871556060591
C           -0.73094080965567        5.19758904799427       -1.64618879702547
C           -1.70601363238439        4.38561104076765       -2.19767751117682
C           -1.76787570738001        3.05016157704874       -1.84493731787394
C           -0.86961253191567        2.53762456430631       -0.91933254214989
N           -0.87736271625088        1.16861472924240       -0.58136601050317
C           -2.01508563137603        0.49938881547105       -0.29123645667897
N           -3.16334433953399        1.18547148535585       -0.29409625294595
C           -4.24427206554958        0.49374269621132        0.02998490909110
C           -5.52237540472340        1.21206497036876        0.05874439942277
C           -6.70626571265186        0.53194581286299        0.33613663874342
C           -7.90809375304814        1.21377109577110        0.36304466143046
C           -7.93944370248936        2.57749678655850        0.11496401490942
C           -6.76427251510431        3.25986135139758       -0.16105283932859
C           -5.55975744474336        2.58321451775372       -0.18932749746392
N           -4.25261509502087       -0.80605747707710        0.32776371645514
C           -3.06030667726612       -1.40176579623116        0.31429206390957
C           -2.99984733060632       -2.83476631377607        0.61982112386135
C           -1.76795677271368       -3.48527636191754        0.67035484443511
C           -1.70942917291562       -4.84103036043646        0.93064398816365
C           -2.87646332612597       -5.55804337628340        1.14723724817995
C           -4.10421840227988       -4.91509017064598        1.10463362512823
C           -4.16859877367571       -3.55961401094854        0.84207898129185
N           -1.91958669728711       -0.79451555480463        0.02935784580867
C            0.40222583183484        0.57503015974883       -0.46401430150724
C            0.64323968933763       -0.68226485079080       -0.98801383226043
C            1.91313127469560       -1.22313795847758       -0.85733636072696
C            2.50535932323607       -2.46878921182688       -1.25400195848494
C            2.01110524807136       -3.60751556283229       -1.87808643755519
C            2.86809303622223       -4.66855953442920       -2.09176152735850
C            4.19895421353684       -4.60858020795950       -1.68102954907898
C            4.71286077521198       -3.48803287752427       -1.05684408908538
C            3.86195143125273       -2.40966697542304       -0.85615351803567
N            4.10643545482709       -1.19737623544063       -0.24194754072080
C            5.33604064971383       -0.78013261856681        0.29629281379355
C            6.49168044738117       -0.83558496920397       -0.47684585952291
C            7.70059299700669       -0.43029426741523        0.05956137440940
C            7.76465219185174        0.04276695807061        1.36008049373516
C            6.61366218399289        0.10380295632760        2.12863088926190
C            5.40238253028210       -0.31033743895696        1.60471332915038
C            2.93344663865946       -0.47252275208063       -0.23228660456503
C            2.69758270807596        0.81255306022577        0.23509538646615
C            1.42143919054935        1.33870561174698        0.13407216777480
H            2.88300412405871        3.10750697097512        1.73241762577509
H            1.95037149069125        4.54123746050664        1.36673028087819
H            2.86368401278209        3.73925212180457        0.07708751083593
H           -0.62856071760812        1.90760021778015        1.83085591183451
H            0.88432700176779        2.03938018968819        2.72655568246409
H           -0.06355740957113        3.49012866278629        2.36404462936513
H            0.93045821822129        5.33065992317370       -0.32927456902584
H           -0.67301304961258        6.23920397626508       -1.92417315813451
H           -2.41124854965673        4.78455777979795       -2.91135210816000
H           -2.51175894870484        2.40115599061780       -2.27950195467839
H           -6.66214683720149       -0.52923236711801        0.52699697292688
H           -8.82320230017984        0.68204935016181        0.57866626790495
H           -8.87967533287069        3.10844124448997        0.13707325188285
H           -6.78818646132781        4.32250614739909       -0.35309220788772
H           -4.63387996205307        3.09704375181183       -0.39904906720746
H           -0.87044920777573       -2.90979080914843        0.50266517823016
H           -0.75180463286870       -5.33976843345509        0.96372476418528
H           -2.82950914785820       -6.61798657666111        1.34926942138959
H           -5.01309382097824       -5.47330680841568        1.27491981449138
H           -5.11521572348978       -3.04311573741075        0.80118834702953
H           -0.14393204263800       -1.22867821063601       -1.48034594101998
H            0.97582253125305       -3.65774741811708       -2.18168662864402
H            2.50431532708047       -5.56263236456111       -2.57634273177765
H            4.84182295243975       -5.45985422092783       -1.85080218919003
H            5.74057526565729       -3.45856184110999       -0.72834591686296
H            6.43321400061676       -1.18598701125478       -1.49654349642731
H            8.59474139654473       -0.47676399771627       -0.54433085541346
H            8.70922607264503        0.36202218948297        1.77394830275499
H            6.65955487287944        0.46774257124894        3.14448871107832
H            4.50647032690310       -0.28652222706538        2.20719066423582
H            3.50416802430166        1.38094552492890        0.66540437200589

          :  Hamiltonian                  GFN2-xTB          :
         :: gradient norm              0.000067799502 Eh/a0 ::
         :: HOMO-LUMO gap              2.066934242256 eV    ::
         :: SCC energy              -122.684216649665 Eh    ::
         :: -> dispersion             -0.110763520088 Eh    ::
         :: -> Gsolv                  -0.054678911613 Eh    ::
         :: repulsion energy           2.169490608667 Eh    ::

    * Orbital Energies and Occupations

         #    Occupation            Energy/Eh            Energy/eV
      -------------------------------------------------------------
         1        2.0000           -0.6866329             -18.6842
       ...           ...                  ...                  ...
       100        2.0000           -0.4147818             -11.2868
       101        2.0000           -0.4145148             -11.2795
       102        2.0000           -0.4138436             -11.2613
       103        2.0000           -0.4131876             -11.2434
       104        2.0000           -0.4105753             -11.1723
       105        2.0000           -0.4103566             -11.1664
       106        2.0000           -0.4089779             -11.1289
       107        2.0000           -0.4062158             -11.0537
       108        2.0000           -0.3865691             -10.5191
       109        2.0000           -0.3791243             -10.3165
       110        2.0000           -0.3754526             -10.2166
       111        2.0000           -0.3731660             -10.1544
       112        2.0000           -0.3617957              -9.8450 (HOMO)
       113                         -0.2858373              -7.7780 (LUMO)
       114                         -0.2689909              -7.3196
       115                         -0.2511478              -6.8341
       116                         -0.2360525              -6.4233
       117                         -0.2329927              -6.3401
       118                         -0.2325854              -6.3290
       119                         -0.2320691              -6.3149
       120                         -0.2317574              -6.3064
       121                         -0.2300772              -6.2607
       122                         -0.2278179              -6.1992
       123                         -0.2083444              -5.6693
       ...                                ...                  ...
       219                          0.7392821              20.1169
      -------------------------------------------------------------
                  HL-Gap            0.0759584 Eh            2.0669 eV

     #   Z          covCN         q      C6AA      α(0)
     1   6 C        3.759    -0.113    22.711     6.794
     2   6 C        3.910     0.022    20.143     6.379
     3   6 C        3.763    -0.096    22.369     6.742
     4   6 C        2.985    -0.008    28.206     8.712
     5   6 C        2.923    -0.041    29.007     8.832
     6   6 C        2.919    -0.037    28.929     8.820
     7   6 C        2.920    -0.034    28.849     8.808
     8   6 C        2.920    -0.042    29.038     8.837
     9   6 C        2.943     0.065    26.537     8.449
    10   7 N        2.767    -0.078    22.756     7.085
    11   6 C        2.932     0.293    22.051     7.701
    12   7 N        1.848    -0.352    30.017     8.120
    13   6 C        2.987     0.221    23.345     7.926
    14   6 C        2.984    -0.011    28.275     8.723
    15   6 C        2.923    -0.028    28.698     8.785
    16   6 C        2.918    -0.029    28.732     8.790
    17   6 C        2.920    -0.025    28.629     8.774
    18   6 C        2.918    -0.029    28.724     8.789
    19   6 C        2.923    -0.028    28.712     8.787
    20   7 N        1.842    -0.354    30.049     8.124
    21   6 C        2.986     0.222    23.339     7.925
    22   6 C        2.984    -0.011    28.274     8.722
    23   6 C        2.924    -0.028    28.710     8.787
    24   6 C        2.918    -0.029    28.717     8.788
    25   6 C        2.920    -0.025    28.627     8.774
    26   6 C        2.918    -0.029    28.733     8.790
    27   6 C        2.923    -0.028    28.701     8.785
    28   7 N        1.848    -0.350    29.958     8.112
    29   6 C        2.941     0.053    26.816     8.493
    30   6 C        2.914    -0.046    29.132     8.851
    31   6 C        3.070    -0.021    28.452     8.746
    32   6 C        3.068    -0.018    28.398     8.738
    33   6 C        2.912    -0.034    28.853     8.808
    34   6 C        2.920    -0.042    29.047     8.838
    35   6 C        2.924    -0.034    28.853     8.809
    36   6 C        2.909    -0.051    29.272     8.872
    37   6 C        3.079     0.047    26.867     8.498
    38   7 N        2.802    -0.042    22.043     6.973
    39   6 C        2.913     0.062    26.603     8.458
    40   6 C        2.922    -0.042    29.041     8.837
    41   6 C        2.920    -0.027    28.685     8.783
    42   6 C        2.919    -0.032    28.803     8.801
    43   6 C        2.920    -0.028    28.694     8.784
    44   6 C        2.922    -0.043    29.061     8.840
    45   6 C        3.075     0.043    26.969     8.514
    46   6 C        2.913    -0.063    29.563     8.916
    47   6 C        2.987    -0.011    28.286     8.724
    48   1 H        0.925     0.049     2.334     2.389
    49   1 H        0.925     0.050     2.324     2.384
    50   1 H        0.925     0.045     2.383     2.414
    51   1 H        0.925     0.019     2.752     2.594
    52   1 H        0.925     0.044     2.399     2.422
    53   1 H        0.925     0.044     2.396     2.421
    54   1 H        0.926     0.053     2.281     2.362
    55   1 H        0.926     0.044     2.396     2.420
    56   1 H        0.926     0.040     2.446     2.446
    57   1 H        0.926     0.034     2.532     2.488
    58   1 H        0.926     0.046     2.368     2.406
    59   1 H        0.926     0.044     2.391     2.418
    60   1 H        0.926     0.048     2.351     2.398
    61   1 H        0.926     0.045     2.388     2.417
    62   1 H        0.926     0.048     2.348     2.396
    63   1 H        0.926     0.049     2.335     2.390
    64   1 H        0.926     0.044     2.392     2.419
    65   1 H        0.926     0.047     2.353     2.399
    66   1 H        0.926     0.044     2.392     2.418
    67   1 H        0.926     0.046     2.373     2.409
    68   1 H        0.926     0.038     2.477     2.461
    69   1 H        0.926     0.027     2.623     2.533
    70   1 H        0.926     0.031     2.575     2.509
    71   1 H        0.926     0.035     2.518     2.482
    72   1 H        0.926     0.035     2.512     2.478
    73   1 H        0.926     0.043     2.408     2.427
    74   1 H        0.926     0.043     2.414     2.430
    75   1 H        0.926     0.042     2.426     2.436
    76   1 H        0.926     0.042     2.419     2.432
    77   1 H        0.926     0.041     2.434     2.440
    78   1 H        0.926     0.052     2.296     2.370

molecular dipole:
                 x           y           z       tot (Debye)
 q only:        1.828       0.688       0.421
   full:        1.634       0.599       0.402       4.539

 projected vibrational frequencies (cm⁻¹)
eigval :       -0.00    -0.00    -0.00    -0.00     0.00     0.00
eigval :       11.15    14.37    22.78    33.17    35.70    40.10
eigval :       43.10    52.40    58.23    61.61    64.72    68.87
eigval :       91.72    97.34   107.56   119.55   130.75   141.69
eigval :      155.53   181.54   184.79   189.98   200.96   206.75
eigval :      215.81   217.79   235.45   252.74   259.31   268.48
eigval :      285.53   289.48   316.14   327.60   348.06   364.78
eigval :      367.47   367.85   377.72   380.06   382.14   390.02
eigval :      405.36   408.40   420.08   421.94   433.69   443.84
eigval :      448.27   474.71   493.07   508.89   519.39   532.23
eigval :      537.80   550.36   572.99   582.09   586.07   587.35
eigval :      588.99   606.42   612.24   619.36   626.70   631.92
eigval :      637.44   644.68   654.17   665.66   670.47   673.47
eigval :      675.56   684.91   704.61   717.46   729.04   746.17
eigval :      753.09   764.41   775.22   775.30   779.84   787.62
eigval :      805.06   825.43   845.88   846.61   865.66   870.11
eigval :      876.14   878.77   880.83   881.44   905.51   909.20
eigval :      909.96   911.36   912.97   913.58   922.11   924.84
eigval :      927.08   928.23   930.15   931.42   933.27   936.19
eigval :      936.60   939.64   957.01   966.50   989.91   994.40
eigval :     1006.53  1014.37  1020.96  1046.91  1069.09  1074.79
eigval :     1075.65  1078.10  1082.07  1084.02  1106.49  1108.69
eigval :     1111.57  1116.11  1124.16  1142.79  1150.10  1166.15
eigval :     1169.37  1173.03  1176.57  1176.96  1177.68  1179.21
eigval :     1183.40  1185.92  1192.26  1200.36  1209.82  1221.10
eigval :     1224.55  1239.07  1245.85  1260.02  1263.22  1269.12
eigval :     1270.34  1271.83  1278.05  1286.88  1315.24  1320.95
eigval :     1324.00  1325.98  1326.87  1351.79  1359.05  1359.41
eigval :     1371.67  1382.80  1394.73  1411.73  1423.91  1429.33
eigval :     1430.95  1432.28  1435.50  1439.40  1444.21  1464.69
eigval :     1466.49  1469.70  1479.22  1485.02  1488.43  1490.44
eigval :     1491.59  1502.97  1504.33  1520.54  1533.59  1560.49
eigval :     1580.57  1582.47  1583.14  1584.39  1586.30  1592.76
eigval :     1593.44  1593.93  1594.53  1599.84  1613.77  3024.90
eigval :     3026.48  3036.50  3037.84  3039.28  3051.79  3073.57
eigval :     3075.12  3075.61  3077.00  3078.27  3079.36  3079.45
eigval :     3080.27  3080.50  3086.29  3086.96  3089.20  3089.61
eigval :     3089.79  3091.43  3094.47  3097.73  3098.02  3099.95
eigval :     3101.19  3102.14  3102.89  3114.23  3116.64  3125.92

   temp. (K)  partition function   enthalpy   heat capacity  entropy
                                   cal/mol     cal/K/mol   cal/K/mol   J/K/mol
 298.15  VIB  0.459E+17            21979.550    139.546    136.205
         ROT  0.704E+08              888.752      2.981     38.891
         INT  0.323E+25            22868.303    142.527    175.097
         TR   0.144E+29             1481.254      4.968     45.067
         TOT                       24349.5566   147.4948   220.1635   921.1639

       T/K    H(0)-H(T)+PV         H(T)/Eh          T*S/Eh         G(T)/Eh
   ------------------------------------------------------------------------
    298.15    0.388035E-01    0.644445E+00    0.104607E+00    0.539838E+00
   ------------------------------------------------------------------------

         :::::::::::::::::::::::::::::::::::::::::::::::::::::
         ::                  THERMODYNAMIC                  ::
         :::::::::::::::::::::::::::::::::::::::::::::::::::::
         :: total free energy        -119.974887956491 Eh   ::
         ::.................................................::
         :: total energy             -120.514726042475 Eh   ::
         :: zero point energy           0.605641358549 Eh   ::
         :: G(RRHO) w/o ZPVE           -0.065803272564 Eh   ::
         :: G(RRHO) contrib.            0.539838085985 Eh   ::
         :::::::::::::::::::::::::::::::::::::::::::::::::::::

           -------------------------------------------------
          | TOTAL ENERGY             -120.514726042475 Eh   |
          | TOTAL ENTHALPY           -119.870281195605 Eh   |
          | TOTAL FREE ENERGY        -119.974887956491 Eh   |
          | GRADIENT NORM               0.000067798951 Eh/α |
          | HOMO-LUMO GAP               2.066934299203 eV   |
           -------------------------------------------------

 * finished run on 2025/07/19 at 13:23:36.441
