   * xtb version 6.7.1 (edcfbbe) compiled by 'albert@albert-system' on 2024-07-22

   ID    Z sym.   atoms
    1    6 C      1-9, 11, 13-19, 21-27, 29-37, 39-47
    2    7 N      10, 12, 20, 28, 38
    3    1 H      48-78

          program call               : xtb data2507/toluene/3DPTIA/3DPTIA_toluene_S0_finalOpt.xtbopt.xyz --gfn 2 --uhf 2 --gbsa toluene --ohess vtight --parallel 40 --molden --ceasefiles --namespace data2507/toluene/3DPTIA/3DPTIA_toluene_T1_preOpt
      * Solvation model:               GBSA
        Solvent                        toluene
        Solvent mass                       9.2140E+01 g/mol
          :  Hamiltonian                  GFN2-xTB          :
 * total energy  :  -120.4222126 Eh     change        0.8640768E-09 Eh
 * total energy  :  -120.4271189 Eh     change       -0.4906257E-02 Eh
 * total energy  :  -120.4291054 Eh     change       -0.1986529E-02 Eh
 * total energy  :  -120.4292787 Eh     change       -0.1733230E-03 Eh
 * total energy  :  -120.4294536 Eh     change       -0.1748326E-03 Eh
 * total energy  :  -120.4294948 Eh     change       -0.4121613E-04 Eh
 * total energy  :  -120.4295622 Eh     change       -0.6742625E-04 Eh
 * total energy  :  -120.4296034 Eh     change       -0.4120532E-04 Eh
 * total energy  :  -120.4296442 Eh     change       -0.4080946E-04 Eh
 * total energy  :  -120.4296783 Eh     change       -0.3411617E-04 Eh
 * total energy  :  -120.4301180 Eh     change       -0.2446223E-05 Eh
 * total energy  :  -120.4301204 Eh     change       -0.2377860E-05 Eh
 * total energy  :  -120.4301219 Eh     change       -0.1514802E-05 Eh
 * total energy  :  -120.4301229 Eh     change       -0.1045283E-05 Eh
 * total energy  :  -120.4301240 Eh     change       -0.1013416E-05 Eh
 * total energy  :  -120.4301243 Eh     change       -0.3336389E-06 Eh
 * total energy  :  -120.4301250 Eh     change       -0.6749020E-06 Eh
 * total energy  :  -120.4301252 Eh     change       -0.2191260E-06 Eh
 * total energy  :  -120.4301252 Eh     change       -0.2316598E-07 Eh
   *** GEOMETRY OPTIMIZATION CONVERGED AFTER 47 ITERATIONS ***

 final structure:
================
78
 xtb: 6.7.1 (edcfbbe)
C            1.69301024567290        4.08393426044451        1.33313259227529
C            0.62994121991285        3.03759605848760        0.99405019397914
C           -0.05043599414005        2.59912546512263        2.30991927605001
C           -0.44445338887890        3.57617727752058        0.06735162457533
C           -0.66328374829076        4.92538785147501       -0.16630397861584
C           -1.70133824308271        5.35070850002946       -0.97865138077149
C           -2.53676136244443        4.42565275751216       -1.58028974749672
C           -2.33035116437822        3.07493542897409       -1.37332932883727
C           -1.29709509749916        2.65043983483806       -0.54635483730623
N           -1.02685376413222        1.28338520551615       -0.37055612924655
C           -2.00398919619370        0.32621921858325       -0.19017091238989
N           -3.26390238742572        0.65319536100719       -0.36487671066212
C           -4.18861334175650       -0.31788243844723       -0.05248856160750
C           -5.58110744635995        0.01671204615319       -0.11303005492730
C           -6.56609782513334       -0.95270373371870        0.14230690372762
C           -7.90167884253671       -0.62587118224981        0.08161527809161
C           -8.29742043006875        0.66964906740484       -0.23216131364460
C           -7.33360762315334        1.63862600222205       -0.48179605066812
C           -5.99424564394573        1.32328399483441       -0.42492361349333
N           -3.81597508198591       -1.54580103695452        0.28089255999315
C           -2.52764680602755       -1.83262845205706        0.37383187858953
C           -2.10147525672290       -3.17077440248024        0.66681659256966
C           -0.73543032153321       -3.47548854816939        0.79196381976126
C           -0.32853640909800       -4.76458321540725        1.05613029730132
C           -1.26326786632078       -5.78129917224978        1.20575036558975
C           -2.61832568856730       -5.49118575290449        1.08919910994995
C           -3.03674512800617       -4.20739541215229        0.82144934376395
N           -1.57338047484507       -0.85777002543193        0.21751034258896
C            0.31688585469359        0.91957797821577       -0.30149481977069
C            0.75102606546748       -0.27167206697834       -0.88453328938187
C            2.08667030886736       -0.60874425866893       -0.78676883795304
C            2.86133773602100       -1.74240695663726       -1.21700909562229
C            2.54716907099199       -2.91820441330824       -1.88212932910372
C            3.56574424221661       -3.81539890728047       -2.15100307704328
C            4.88021337465766       -3.54285156616866       -1.77964155052399
C            5.21621203358756       -2.37774582922072       -1.11374256728197
C            4.19445218240593       -1.48603858559162       -0.81832162899935
N            4.25217639601914       -0.25964301442197       -0.18164999856779
C            5.41225023581426        0.33972219376996        0.34012520050137
C            5.74255976228582        1.64471122474696       -0.01465938023682
C            6.88170874334264        2.23109292687387        0.50659122073541
C            7.69789831310025        1.52264084373408        1.37377410582979
C            7.36983226647721        0.22277879197962        1.72462247264589
C            6.22970670731501       -0.37112236343109        1.21423337419234
C            2.99143549017231        0.27735662768501       -0.15301572689923
C            2.55570461627980        1.47384112467626        0.41028458715774
C            1.21665720731882        1.80193875120302        0.33688013402505
H            2.41601945084950        3.67240716045329        2.03150418228147
H            1.23110706624470        4.93807752823950        1.81954855319489
H            2.20852295126315        4.41875202843813        0.43643212880915
H           -0.81530157347794        1.84642760219788        2.13014891268187
H            0.68870608213374        2.17893419561813        2.98835121011481
H           -0.52046057640152        3.45626411043196        2.78693714725967
H           -0.02579547659425        5.66550018533086        0.28759679627006
H           -1.85597825473320        6.40658310982918       -1.14091586421379
H           -3.34254805789852        4.75036473527759       -2.22112001467931
H           -2.96128834127127        2.34119136077629       -1.84721139934338
H           -6.24990522444091       -1.95629540766439        0.38563412226593
H           -8.64860347574247       -1.38240260854205        0.27863929592812
H           -9.34670926366548        0.92071815440064       -0.27871709337015
H           -7.63697479585403        2.64838793668218       -0.72155200979635
H           -5.23925559741131        2.07267027721177       -0.60962240633304
H           -0.01617016910366       -2.67815153068127        0.67825311659006
H            0.72586888121151       -4.98579112147829        1.14720659296753
H           -0.94091532200523       -6.79092466677590        1.41285390102155
H           -3.34836148425255       -6.27995237133495        1.20682684299751
H           -4.08639542045357       -3.97250697296166        0.72429173824226
H            0.05772861980526       -0.90622487034594       -1.41078681150403
H            1.53015015515405       -3.12490409390224       -2.17901628194539
H            3.34137448903144       -4.73775730725835       -2.66528315365207
H            5.65460930896118       -4.25618810603204       -2.01814063179915
H            6.23919400878305       -2.16912408933512       -0.84208754384992
H            5.11653528750506        2.18319934376269       -0.71011451358148
H            7.13634288341213        3.24239799135178        0.22751423131430
H            8.58805635582779        1.98216477028513        1.77555800377646
H            8.00017478925799       -0.33044762775928        2.40443941220493
H            5.95711658469936       -1.37521153188252        1.50231280472638
H            3.25926504931701        2.11131619720788        0.91736337207505

          :  Hamiltonian                  GFN2-xTB          :
         :: gradient norm              0.000175759765 Eh/a0 ::
         :: HOMO-LUMO gap              0.422255666447 eV    ::
         :: SCC energy              -122.589016279016 Eh    ::
         :: -> dispersion             -0.111088753052 Eh    ::
         :: -> Gsolv                  -0.059416504512 Eh    ::
         :: repulsion energy           2.158891064924 Eh    ::

    * Orbital Energies and Occupations

         #    Occupation            Energy/Eh            Energy/eV
      -------------------------------------------------------------
         1        2.0000           -0.6976401             -18.9838
       ...           ...                  ...                  ...
       101        2.0000           -0.4177536             -11.3677
       102        2.0000           -0.4150594             -11.2943
       103        2.0000           -0.4117663             -11.2047
       104        2.0000           -0.4000341             -10.8855
       105        2.0000           -0.3987717             -10.8511
       106        2.0000           -0.3977175             -10.8224
       107        2.0000           -0.3937187             -10.7136
       108        2.0000           -0.3905567             -10.6276
       109        2.0000           -0.3896817             -10.6038
       110        1.9957           -0.3740542             -10.1785
       111        1.7977           -0.3701931             -10.0735
       112        1.2067           -0.3676118             -10.0032
       113        0.9997           -0.2790763              -7.5941 (HOMO)
       114        0.0003           -0.2635592              -7.1718 (LUMO)
       115        0.0000           -0.2609366              -7.1004
       116                         -0.2461298              -6.6975
       117                         -0.2413362              -6.5671
       118                         -0.2402053              -6.5363
       119                         -0.2346609              -6.3854
       120                         -0.2324941              -6.3265
       121                         -0.2158640              -5.8740
       122                         -0.2145403              -5.8379
       123                         -0.2127606              -5.7895
       124                         -0.2045087              -5.5650
       ...                                ...                  ...
       219                          0.7262336              19.7618
      -------------------------------------------------------------
                  HL-Gap            0.0155171 Eh            0.4222 eV

     #   Z          covCN         q      C6AA      α(0)
     1   6 C        3.759    -0.117    22.784     6.805
     2   6 C        3.910     0.023    20.124     6.376
     3   6 C        3.763    -0.098    22.423     6.750
     4   6 C        2.984    -0.006    28.170     8.706
     5   6 C        2.923    -0.039    28.965     8.826
     6   6 C        2.918    -0.034    28.852     8.808
     7   6 C        2.920    -0.031    28.778     8.797
     8   6 C        2.920    -0.043    29.062     8.840
     9   6 C        2.938     0.063    26.590     8.457
    10   7 N        2.769    -0.061    22.425     7.033
    11   6 C        2.881     0.290    22.096     7.706
    12   7 N        1.843    -0.346    29.854     8.098
    13   6 C        2.941     0.180    24.151     8.060
    14   6 C        2.979    -0.016    28.413     8.744
    15   6 C        2.922    -0.040    29.006     8.832
    16   6 C        2.916    -0.035    28.868     8.811
    17   6 C        2.919    -0.043    29.068     8.841
    18   6 C        2.916    -0.035    28.873     8.811
    19   6 C        2.922    -0.041    29.030     8.836
    20   7 N        1.844    -0.295    28.486     7.910
    21   6 C        2.934     0.181    24.125     8.055
    22   6 C        2.979    -0.016    28.415     8.744
    23   6 C        2.923    -0.041    29.014     8.833
    24   6 C        2.916    -0.034    28.858     8.809
    25   6 C        2.919    -0.042    29.049     8.838
    26   6 C        2.916    -0.034    28.857     8.809
    27   6 C        2.922    -0.040    28.983     8.829
    28   7 N        1.850    -0.339    29.652     8.071
    29   6 C        2.945     0.068    26.475     8.439
    30   6 C        2.913    -0.035    28.861     8.809
    31   6 C        3.067    -0.014    28.290     8.722
    32   6 C        3.065    -0.012    28.235     8.713
    33   6 C        2.912    -0.028    28.691     8.783
    34   6 C        2.920    -0.033    28.828     8.805
    35   6 C        2.923    -0.030    28.738     8.791
    36   6 C        2.909    -0.044    29.080     8.842
    37   6 C        3.079     0.046    26.887     8.501
    38   7 N        2.803    -0.010    21.455     6.879
    39   6 C        2.914     0.059    26.670     8.468
    40   6 C        2.921    -0.040    28.987     8.829
    41   6 C        2.920    -0.025    28.621     8.773
    42   6 C        2.919    -0.027    28.685     8.783
    43   6 C        2.920    -0.025    28.616     8.772
    44   6 C        2.921    -0.039    28.957     8.825
    45   6 C        3.074     0.046    26.903     8.504
    46   6 C        2.912    -0.054    29.335     8.881
    47   6 C        2.985    -0.005    28.149     8.703
    48   1 H        0.925     0.054     2.275     2.359
    49   1 H        0.925     0.055     2.263     2.352
    50   1 H        0.925     0.050     2.320     2.382
    51   1 H        0.925     0.023     2.695     2.567
    52   1 H        0.925     0.049     2.335     2.390
    53   1 H        0.925     0.049     2.336     2.390
    54   1 H        0.926     0.059     2.209     2.324
    55   1 H        0.926     0.048     2.340     2.392
    56   1 H        0.926     0.044     2.400     2.423
    57   1 H        0.926     0.049     2.327     2.386
    58   1 H        0.926     0.026     2.644     2.543
    59   1 H        0.925     0.026     2.644     2.543
    60   1 H        0.926     0.027     2.628     2.535
    61   1 H        0.925     0.027     2.625     2.533
    62   1 H        0.926     0.030     2.580     2.512
    63   1 H        0.926     0.030     2.581     2.512
    64   1 H        0.926     0.028     2.609     2.526
    65   1 H        0.926     0.028     2.611     2.527
    66   1 H        0.926     0.026     2.637     2.539
    67   1 H        0.926     0.026     2.642     2.542
    68   1 H        0.926     0.048     2.346     2.395
    69   1 H        0.926     0.036     2.502     2.474
    70   1 H        0.926     0.042     2.427     2.436
    71   1 H        0.926     0.046     2.364     2.405
    72   1 H        0.926     0.049     2.335     2.389
    73   1 H        0.926     0.050     2.319     2.381
    74   1 H        0.926     0.050     2.318     2.381
    75   1 H        0.926     0.048     2.344     2.394
    76   1 H        0.926     0.049     2.333     2.389
    77   1 H        0.926     0.049     2.328     2.386
    78   1 H        0.926     0.068     2.106     2.269

molecular dipole:
                 x           y           z       tot (Debye)
 q only:        5.870       2.334       0.063
   full:        5.600       2.146       0.024      15.244

 projected vibrational frequencies (cm⁻¹)
eigval :       -0.00    -0.00     0.00     0.00     0.00     0.00
eigval :       10.29    13.82    21.16    36.37    39.72    44.12
eigval :       46.56    50.88    57.51    65.86    68.36    76.30
eigval :       87.77    95.10   107.65   112.50   134.19   152.49
eigval :      154.32   175.59   183.69   195.91   197.37   210.58
eigval :      218.76   222.19   231.08   249.42   259.82   265.66
eigval :      275.48   291.99   310.53   314.84   339.06   358.92
eigval :      371.31   372.21   376.13   379.70   381.24   384.35
eigval :      389.66   404.94   413.18   420.99   427.69   441.49
eigval :      444.90   478.69   480.95   504.90   513.11   522.89
eigval :      540.11   547.08   558.88   565.87   570.39   580.73
eigval :      582.25   586.50   587.47   593.64   605.44   618.06
eigval :      626.37   640.18   646.94   650.75   652.88   664.70
eigval :      668.63   672.89   686.30   705.81   714.09   724.59
eigval :      740.18   745.74   747.48   766.36   774.30   774.79
eigval :      793.04   811.21   825.34   840.80   851.66   858.64
eigval :      861.58   869.43   872.18   872.34   874.58   885.43
eigval :      906.75   907.52   911.34   913.92   918.49   919.01
eigval :      920.02   921.14   922.37   924.06   925.65   931.09
eigval :      935.45   936.35   938.70   964.80   965.40   974.22
eigval :      992.60   999.57  1005.82  1017.25  1067.36  1068.54
eigval :     1069.78  1073.01  1077.88  1079.59  1088.00  1103.60
eigval :     1108.99  1111.75  1116.36  1119.19  1128.35  1129.45
eigval :     1146.63  1162.20  1171.18  1173.15  1175.49  1175.94
eigval :     1178.78  1180.43  1188.79  1192.00  1201.61  1207.06
eigval :     1214.20  1225.18  1241.23  1255.48  1255.65  1265.98
eigval :     1270.95  1272.67  1275.66  1283.17  1292.47  1310.81
eigval :     1314.31  1315.86  1321.98  1336.87  1337.60  1345.64
eigval :     1351.42  1364.31  1372.82  1392.15  1394.32  1399.55
eigval :     1410.96  1418.53  1426.06  1429.94  1430.49  1434.47
eigval :     1438.18  1457.68  1459.96  1460.41  1469.36  1481.20
eigval :     1484.44  1484.82  1488.80  1499.91  1520.06  1535.86
eigval :     1539.74  1540.10  1572.22  1574.19  1576.61  1577.09
eigval :     1581.86  1585.90  1586.73  1588.51  1601.22  3027.75
eigval :     3031.60  3039.10  3040.69  3041.91  3057.68  3061.26
eigval :     3062.11  3062.25  3063.28  3080.02  3081.29  3082.53
eigval :     3083.42  3084.21  3085.12  3085.14  3086.34  3087.47
eigval :     3090.28  3091.68  3092.36  3094.40  3094.95  3096.34
eigval :     3101.58  3102.11  3113.53  3116.80  3119.81  3128.24

   temp. (K)  partition function   enthalpy   heat capacity  entropy
                                   cal/mol     cal/K/mol   cal/K/mol   J/K/mol
 298.15  VIB  0.437E+17            22204.797    141.861    137.462
         ROT  0.694E+08              888.752      2.981     38.862
         INT  0.303E+25            23093.549    144.842    176.325
         TR   0.144E+29             1481.254      4.968     45.067
         TOT                       24574.8032   149.8098   221.3913   926.3011

       T/K    H(0)-H(T)+PV         H(T)/Eh          T*S/Eh         G(T)/Eh
   ------------------------------------------------------------------------
    298.15    0.391624E-01    0.640456E+00    0.105190E+00    0.535266E+00
   ------------------------------------------------------------------------

         :::::::::::::::::::::::::::::::::::::::::::::::::::::
         ::                  THERMODYNAMIC                  ::
         :::::::::::::::::::::::::::::::::::::::::::::::::::::
         :: total free energy        -119.894859546342 Eh   ::
         ::.................................................::
         :: total energy             -120.430125217576 Eh   ::
         :: zero point energy           0.601293368129 Eh   ::
         :: G(RRHO) w/o ZPVE           -0.066027696895 Eh   ::
         :: G(RRHO) contrib.            0.535265671233 Eh   ::
         :::::::::::::::::::::::::::::::::::::::::::::::::::::

           -------------------------------------------------
          | TOTAL ENERGY             -120.430125217576 Eh   |
          | TOTAL ENTHALPY           -119.789669407678 Eh   |
          | TOTAL FREE ENERGY        -119.894859546342 Eh   |
          | GRADIENT NORM               0.000175224542 Eh/α |
          | HOMO-LUMO GAP               0.422243089948 eV   |
           -------------------------------------------------

 * finished run on 2025/07/19 at 13:27:03.264
