   * xtb version 6.7.1 (edcfbbe) compiled by 'albert@albert-system' on 2024-07-22

   ID    Z sym.   atoms
    1    6 C      1-5, 7-25, 28-37, 39-62
    2    7 N      6, 38
    3   15 P      26
    4    8 O      27
    5    1 H      63-105

          program call               : xtb data2507/gas/CzA-PPO/CzA-PPO_gas_S0_crest.xyz --gfn 2 --ohess vtight --parallel 40 --molden --ceasefiles --namespace data2507/gas/CzA-PPO/CzA-PPO_gas_S0_finalOpt
          :  Hamiltonian                  GFN2-xTB          :
 * total energy  :  -158.6604071 Eh     change       -0.2044203E-08 Eh
 * total energy  :  -158.6604088 Eh     change       -0.1703855E-05 Eh
 * total energy  :  -158.6604114 Eh     change       -0.2651194E-05 Eh
 * total energy  :  -158.6604167 Eh     change       -0.5293168E-05 Eh
 * total energy  :  -158.6604190 Eh     change       -0.2332696E-05 Eh
 * total energy  :  -158.6604195 Eh     change       -0.4545936E-06 Eh
 * total energy  :  -158.6604210 Eh     change       -0.1454908E-05 Eh
 * total energy  :  -158.6604250 Eh     change       -0.4058597E-05 Eh
 * total energy  :  -158.6604292 Eh     change       -0.4154979E-05 Eh
 * total energy  :  -158.6604336 Eh     change       -0.4419058E-05 Eh
 * total energy  :  -158.6604487 Eh     change       -0.1491726E-05 Eh
 * total energy  :  -158.6604503 Eh     change       -0.1586832E-05 Eh
 * total energy  :  -158.6604521 Eh     change       -0.1792713E-05 Eh
 * total energy  :  -158.6604535 Eh     change       -0.1444375E-05 Eh
 * total energy  :  -158.6604548 Eh     change       -0.1218386E-05 Eh
 * total energy  :  -158.6604557 Eh     change       -0.9155011E-06 Eh
 * total energy  :  -158.6604563 Eh     change       -0.5876374E-06 Eh
 * total energy  :  -158.6604569 Eh     change       -0.6035775E-06 Eh
 * total energy  :  -158.6604569 Eh     change       -0.7941395E-08 Eh
   *** GEOMETRY OPTIMIZATION CONVERGED AFTER 22 ITERATIONS ***

 final structure:
================
105
 xtb: 6.7.1 (edcfbbe)
C          -10.53048265660125       -1.40327000654370        2.87080308137882
C           -9.41637888428094       -0.79556724411098        2.07366830451200
C           -8.11091717286315       -0.82457662412877        2.55200716048416
C           -7.07453142877416       -0.26214982701174        1.83676754028809
C           -7.31576578132619        0.34539074232299        0.60406601578760
N           -6.25392568867504        0.89046943940789       -0.12008766450030
C           -6.41545699607897        1.99352966012512       -0.96011562143824
C           -5.61162410751766        2.12600194596046       -2.09263054272670
C           -5.74555719463647        3.22181726762632       -2.91980762355858
C           -6.68363580312813        4.21324374127967       -2.65643771459824
C           -6.80956628019925        5.40405267174945       -3.55763599786081
C           -7.47979898935082        4.07765056120875       -1.52631051803755
C           -7.34938776661637        2.99189004731141       -0.68357371932525
C           -4.97606130782915        0.30753903437201       -0.00108857500791
C           -4.79102958646332       -1.04419331023709       -0.34423664328720
C           -5.84216773476258       -1.84303557269419       -0.86239521873726
C           -5.64919613610865       -3.15674874980745       -1.16273052328488
C           -4.39390626960970       -3.75792531396528       -0.95011448786408
C           -3.35010490720221       -3.01751089791833       -0.48746578244262
C           -3.49786458098519       -1.63536721924665       -0.19885208129201
C           -2.41388938217438       -0.85303912980173        0.22326489199486
C           -1.06856892297972       -1.45352780247113        0.33306860989847
C           -0.47014802651926       -1.62361144513954        1.57943063746021
C            0.79883350085802       -2.15959899140035        1.67427915367143
C            1.48908429168861       -2.52916003838630        0.52757669759253
P            3.18763526588872       -3.13863084305367        0.77029761126486
O            3.39135907989580       -3.82370246315382        2.05148827001187
C            3.55096555671299       -4.18517137739959       -0.67685396522876
C            3.95225408728290       -3.68209203400739       -1.90704285008651
C            4.19143202335191       -4.55100245051458       -2.95685373547155
C            4.03173474155344       -5.91642267716130       -2.78153885372140
C            3.63851387319857       -6.41922557710900       -1.55174187777373
C            3.39919934201779       -5.55343290023135       -0.50010635475189
C            4.22438350749035       -1.65259813038457        0.57729915967214
C            5.40475310197645       -1.61227807360013        1.30732720654515
C            6.24033967922250       -0.51674499464429        1.22677873944604
C            5.90178690185220        0.55418172887201        0.40109381168084
N            6.73847353291839        1.67067323782944        0.31418875934239
C            8.10364297473177        1.64603934933889        0.09645442239685
C            8.94288116537126        0.56630918260542       -0.13691977155531
C           10.28204505124217        0.82627870710112       -0.35798574475992
C           10.78073798744072        2.12685425829963       -0.35860804265538
C            9.94566602229072        3.20683966831024       -0.15356025714230
C            8.59597025408020        2.97063606854899        0.07118636862725
C            7.46758892062610        3.83117707461260        0.29389349701124
C            7.32416133475937        5.20851389298219        0.39613056183586
C            6.06918221457802        5.72593808448606        0.64723676030046
C            4.96954792453746        4.88734006130877        0.81306208470242
C            5.08748383713294        3.51388113632297        0.71562204487883
C            6.34109115179206        2.98956627568020        0.43577870178959
C            4.71687321919360        0.51197344977667       -0.33260214109762
C            3.88066528772944       -0.58238134405085       -0.23882755267980
C            0.89363901951919       -2.37927887757165       -0.71768898046738
C           -0.37843774203670       -1.84775313636018       -0.81090597902192
C           -2.59452191689203        0.50162677718440        0.53806341974042
C           -1.50923805300164        1.32647477664061        0.93500092047638
C           -1.70182165880578        2.62569508172199        1.29093849506623
C           -2.99684156134108        3.17785778357712        1.28176200798751
C           -4.05875783896442        2.43191683826288        0.87063377568452
C           -3.89660040553628        1.08509465997190        0.45662693050049
C           -8.62080639265829        0.36596329020562        0.11320005367926
C           -9.65035030315497       -0.19173394156572        0.84541304808431
H          -10.64176672298392       -0.88615745128638        3.82365870671442
H          -10.31904797783499       -2.45026350664618        3.08471224727437
H          -11.47286916517741       -1.34166037671467        2.33238488800143
H           -7.90548782393372       -1.29034753984643        3.50530831999731
H           -6.06757594478943       -0.28833683274123        2.22718850491056
H           -4.88294469719351        1.36097819473017       -2.31821040595657
H           -5.11469517313867        3.30600995850380       -3.79332244970964
H           -6.74367192975070        5.10571242881929       -4.60224172119130
H           -6.00227856393936        6.11065091959928       -3.36124377156191
H           -7.75540127297389        5.91557391331330       -3.39681931625863
H           -8.20961040361412        4.84012537749559       -1.29331349350629
H           -7.96397626206807        2.91912362440367        0.20194211331044
H           -6.80919193767971       -1.39413524359629       -1.02561040053291
H           -6.46042011246435       -3.74785028287084       -1.56104750279419
H           -4.26543875218650       -4.80873847979992       -1.16421106689718
H           -2.38588627546389       -3.47683528117791       -0.32752149720772
H           -1.00939810077942       -1.33289168484101        2.46954115958765
H            1.27379167684461       -2.30544947674892        2.63408759621474
H            4.08832625584188       -2.61773336038791       -2.03854311133303
H            4.50596495536313       -4.16264397520096       -3.91486483591653
H            4.22032892251001       -6.58970330974160       -3.60487261106211
H            3.52097393579131       -7.48410239075061       -1.41444749108272
H            3.10345583815439       -5.91964141455233        0.47268284893817
H            5.64123875062780       -2.44535448120501        1.95351690072581
H            7.14502698053467       -0.47124111774443        1.81432420131409
H            8.56473953336624       -0.44472176997570       -0.15739505516207
H           10.95624074887361        0.00189368237504       -0.53763911129297
H           11.83429704970109        2.28795190551402       -0.53182989137298
H           10.32805502424663        4.21621859668044       -0.17100378168982
H            8.18050725030030        5.85648181610060        0.28611805271198
H            5.93503143023305        6.79433422065687        0.72795290437016
H            4.00305259431511        5.31943020060343        1.02683974822147
H            4.23181505121886        2.87325176998961        0.86736951636311
H            4.46505079255459        1.33666581663335       -0.98292497514337
H            2.95570553632655       -0.60315878777911       -0.79780210370930
H            1.42154863984539       -2.68469276135632       -1.61045584505648
H           -0.84531889457298       -1.72381791062097       -1.77788614326181
H           -0.51664191031125        0.90116595266482        0.94933523082613
H           -0.86514112732024        3.23921405724886        1.59134803878588
H           -3.14067924519481        4.19993114482828        1.59923485682538
H           -5.04623199461086        2.86570309951789        0.86496156911702
H           -8.82269365200134        0.80868185624976       -0.85140740995203
H          -10.65421129008191       -0.16569459389169        0.44550120824119

          :  Hamiltonian                  GFN2-xTB          :
         :: gradient norm              0.000064409767 Eh/a0 ::
         :: HOMO-LUMO gap              1.627390643025 eV    ::
         :: SCC energy              -161.611859874731 Eh    ::
         :: -> dispersion             -0.153244346566 Eh    ::
         :: repulsion energy           2.951403009335 Eh    ::

    * Orbital Energies and Occupations

         #    Occupation            Energy/Eh            Energy/eV
      -------------------------------------------------------------
         1        2.0000           -0.6919564             -18.8291
       ...           ...                  ...                  ...
       136        2.0000           -0.4084169             -11.1136
       137        2.0000           -0.4080051             -11.1024
       138        2.0000           -0.4065622             -11.0631
       139        2.0000           -0.4027672             -10.9599
       140        2.0000           -0.4015358             -10.9263
       141        2.0000           -0.4007974             -10.9063
       142        2.0000           -0.3998443             -10.8803
       143        2.0000           -0.3995927             -10.8735
       144        2.0000           -0.3902794             -10.6200
       145        2.0000           -0.3799038             -10.3377
       146        2.0000           -0.3671233              -9.9899
       147        2.0000           -0.3651981              -9.9375
       148        2.0000           -0.3425970              -9.3225 (HOMO)
       149                         -0.2827915              -7.6951 (LUMO)
       150                         -0.2568757              -6.9899
       151                         -0.2503732              -6.8130
       152                         -0.2452637              -6.6740
       153                         -0.2398689              -6.5272
       154                         -0.2391656              -6.5080
       155                         -0.2353015              -6.4029
       156                         -0.2347842              -6.3888
       157                         -0.2332260              -6.3464
       158                         -0.2242358              -6.1018
       159                         -0.2231066              -6.0710
       ...                                ...                  ...
       296                          1.1898907              32.3786
      -------------------------------------------------------------
                  HL-Gap            0.0598055 Eh            1.6274 eV

     #   Z          covCN         q      C6AA      α(0)
     1   6 C        3.757    -0.108    22.611     6.780
     2   6 C        2.965     0.008    27.834     8.654
     3   6 C        2.925    -0.039    28.977     8.828
     4   6 C        2.922    -0.051    29.256     8.870
     5   6 C        2.922     0.062    26.611     8.459
     6   7 N        2.751    -0.075    22.688     7.074
     7   6 C        2.922     0.062    26.608     8.459
     8   6 C        2.922    -0.051    29.264     8.871
     9   6 C        2.925    -0.039    28.980     8.828
    10   6 C        2.965     0.008    27.840     8.655
    11   6 C        3.757    -0.108    22.608     6.779
    12   6 C        2.925    -0.040    28.994     8.830
    13   6 C        2.920    -0.052    29.293     8.876
    14   6 C        2.925     0.049    26.892     8.504
    15   6 C        2.981    -0.002    28.080     8.692
    16   6 C        2.917    -0.033    28.827     8.804
    17   6 C        2.915    -0.030    28.750     8.793
    18   6 C        2.914    -0.029    28.723     8.788
    19   6 C        2.918    -0.035    28.865     8.810
    20   6 C        2.984     0.007    27.868     8.659
    21   6 C        2.977    -0.012    28.319     8.729
    22   6 C        2.978     0.021    27.523     8.606
    23   6 C        2.923    -0.031    28.763     8.795
    24   6 C        3.033    -0.021    28.500     8.756
    25   6 C        2.921     0.009    27.815     8.649
    26  15 P        4.080     0.064   157.425    22.539
    27   8 O        0.808    -0.354    20.811     6.115
    28   6 C        2.921     0.014    27.711     8.633
    29   6 C        2.970    -0.027    28.664     8.782
    30   6 C        2.920    -0.028    28.700     8.785
    31   6 C        2.920    -0.025    28.625     8.774
    32   6 C        2.919    -0.026    28.661     8.779
    33   6 C        3.033    -0.019    28.453     8.749
    34   6 C        2.920     0.007    27.857     8.655
    35   6 C        3.026    -0.020    28.468     8.752
    36   6 C        2.921    -0.042    29.039     8.837
    37   6 C        2.913     0.069    26.460     8.435
    38   7 N        2.802    -0.043    22.069     6.977
    39   6 C        3.073     0.047    26.880     8.501
    40   6 C        2.910    -0.050    29.253     8.869
    41   6 C        2.924    -0.033    28.816     8.803
    42   6 C        2.920    -0.040    28.995     8.830
    43   6 C        2.913    -0.032    28.807     8.801
    44   6 C        3.068    -0.016    28.341     8.729
    45   6 C        3.068    -0.016    28.339     8.729
    46   6 C        2.913    -0.032    28.807     8.801
    47   6 C        2.920    -0.040    28.998     8.831
    48   6 C        2.924    -0.033    28.820     8.804
    49   6 C        2.910    -0.050    29.251     8.868
    50   6 C        3.073     0.047    26.879     8.501
    51   6 C        2.922    -0.043    29.080     8.843
    52   6 C        2.971    -0.027    28.663     8.782
    53   6 C        2.968    -0.028    28.704     8.788
    54   6 C        2.924    -0.032    28.801     8.801
    55   6 C        2.984     0.006    27.874     8.660
    56   6 C        2.918    -0.035    28.870     8.811
    57   6 C        2.914    -0.029    28.725     8.789
    58   6 C        2.915    -0.030    28.754     8.793
    59   6 C        2.917    -0.033    28.822     8.804
    60   6 C        2.981    -0.002    28.080     8.692
    61   6 C        2.920    -0.052    29.296     8.876
    62   6 C        2.925    -0.040    28.993     8.830
    63   1 H        0.925     0.044     2.395     2.420
    64   1 H        0.925     0.044     2.401     2.423
    65   1 H        0.925     0.040     2.453     2.449
    66   1 H        0.926     0.030     2.584     2.514
    67   1 H        0.926     0.026     2.640     2.541
    68   1 H        0.926     0.026     2.651     2.546
    69   1 H        0.926     0.029     2.599     2.521
    70   1 H        0.925     0.042     2.422     2.434
    71   1 H        0.924     0.045     2.390     2.417
    72   1 H        0.925     0.040     2.445     2.445
    73   1 H        0.926     0.029     2.595     2.519
    74   1 H        0.926     0.031     2.573     2.508
    75   1 H        0.926     0.036     2.507     2.476
    76   1 H        0.926     0.030     2.584     2.514
    77   1 H        0.926     0.030     2.585     2.514
    78   1 H        0.926     0.031     2.574     2.509
    79   1 H        0.926     0.039     2.458     2.452
    80   1 H        0.926     0.059     2.208     2.323
    81   1 H        0.926     0.037     2.486     2.465
    82   1 H        0.926     0.036     2.508     2.476
    83   1 H        0.926     0.038     2.480     2.463
    84   1 H        0.926     0.040     2.452     2.449
    85   1 H        0.926     0.061     2.186     2.312
    86   1 H        0.926     0.065     2.138     2.287
    87   1 H        0.926     0.049     2.339     2.391
    88   1 H        0.926     0.028     2.621     2.531
    89   1 H        0.926     0.030     2.581     2.512
    90   1 H        0.926     0.029     2.596     2.520
    91   1 H        0.926     0.032     2.558     2.501
    92   1 H        0.926     0.032     2.557     2.501
    93   1 H        0.926     0.029     2.599     2.521
    94   1 H        0.926     0.030     2.591     2.517
    95   1 H        0.926     0.027     2.631     2.536
    96   1 H        0.926     0.045     2.388     2.417
    97   1 H        0.926     0.042     2.425     2.435
    98   1 H        0.926     0.037     2.493     2.469
    99   1 H        0.926     0.035     2.511     2.478
   100   1 H        0.926     0.029     2.600     2.521
   101   1 H        0.926     0.030     2.593     2.518
   102   1 H        0.926     0.030     2.584     2.514
   103   1 H        0.926     0.036     2.507     2.476
   104   1 H        0.926     0.031     2.577     2.510
   105   1 H        0.926     0.029     2.599     2.521

molecular dipole:
                 x           y           z       tot (Debye)
 q only:       -0.711       0.465      -1.147
   full:       -0.749       0.512      -1.385       4.208

 projected vibrational frequencies (cm⁻¹)
eigval :       -0.00    -0.00     0.00     0.00     0.00     0.00
eigval :      -11.01    -7.47     3.25     5.61     8.28    12.43
eigval :       17.86    22.23    25.23    27.83    37.46    38.53
eigval :       43.13    44.56    48.00    50.37    55.02    61.00
eigval :       74.36    80.79    85.40   102.73   114.43   119.45
eigval :      123.60   135.97   138.84   142.69   145.80   152.10
eigval :      158.39   162.58   190.22   191.43   207.45   216.72
eigval :      219.36   223.05   239.51   252.56   259.42   271.83
eigval :      273.72   288.27   292.54   304.65   324.26   329.97
eigval :      346.02   352.48   362.55   364.81   368.39   374.18
eigval :      376.01   377.43   380.75   389.28   392.51   400.20
eigval :      400.89   401.70   413.47   423.00   431.28   435.37
eigval :      437.94   447.72   450.31   460.16   481.75   483.54
eigval :      487.71   493.35   506.89   518.22   525.81   534.48
eigval :      541.08   541.76   578.03   580.50   581.14   585.38
eigval :      586.31   593.52   598.50   606.36   611.58   612.33
eigval :      612.77   629.92   636.03   655.86   658.26   660.95
eigval :      661.73   672.66   673.75   679.27   688.82   692.55
eigval :      702.83   708.80   732.80   734.13   744.00   749.36
eigval :      760.34   769.99   770.42   773.22   781.36   792.36
eigval :      794.36   802.36   806.91   810.52   813.37   860.74
eigval :      866.94   867.75   870.58   871.96   873.85   874.45
eigval :      878.58   880.61   884.06   895.75   897.91   903.11
eigval :      903.44   904.60   909.93   914.97   915.05   916.46
eigval :      918.53   919.14   920.45   921.70   923.44   926.14
eigval :      926.50   927.25   927.38   928.62   930.20   931.72
eigval :      933.63   933.93   935.66   945.91   974.07  1008.57
eigval :     1008.84  1009.41  1010.83  1012.08  1013.92  1029.08
eigval :     1033.25  1033.34  1071.05  1074.75  1078.45  1086.39
eigval :     1086.96  1100.25  1114.34  1115.49  1122.98  1127.01
eigval :     1127.85  1129.72  1131.80  1135.13  1145.68  1148.38
eigval :     1153.09  1175.05  1176.44  1179.99  1180.69  1181.22
eigval :     1183.41  1187.91  1190.52  1193.17  1198.93  1201.56
eigval :     1203.60  1218.64  1233.06  1233.33  1236.33  1239.63
eigval :     1245.47  1257.44  1259.93  1260.57  1263.79  1265.69
eigval :     1272.48  1277.36  1277.85  1285.82  1300.23  1301.42
eigval :     1314.92  1321.19  1321.65  1322.39  1327.76  1330.76
eigval :     1342.23  1350.24  1356.95  1361.07  1364.77  1367.94
eigval :     1385.44  1388.54  1397.00  1405.37  1405.55  1414.44
eigval :     1414.49  1424.55  1424.79  1427.41  1428.16  1428.43
eigval :     1439.56  1454.11  1465.23  1475.84  1481.17  1482.37
eigval :     1483.42  1486.82  1487.42  1488.08  1488.09  1495.30
eigval :     1495.57  1525.12  1527.95  1539.50  1561.05  1561.70
eigval :     1569.68  1574.81  1575.95  1583.39  1584.23  1586.44
eigval :     1587.35  1589.62  1599.41  1607.47  1609.04  1611.04
eigval :     1614.77  1621.08  2993.87  3001.97  3016.64  3026.56
eigval :     3041.35  3043.81  3065.90  3068.20  3069.83  3070.64
eigval :     3070.98  3072.52  3073.64  3074.37  3075.19  3075.61
eigval :     3076.33  3076.91  3077.49  3078.24  3079.87  3080.59
eigval :     3082.02  3083.12  3083.82  3084.32  3084.72  3084.73
eigval :     3084.81  3085.85  3086.76  3087.52  3088.67  3090.28
eigval :     3091.01  3092.45  3092.53  3093.57  3094.26  3096.13
eigval :     3097.65  3108.58  3109.21

   temp. (K)  partition function   enthalpy   heat capacity  entropy
                                   cal/mol     cal/K/mol   cal/K/mol   J/K/mol
 298.15  VIB  0.444E+29            31585.813    189.569    203.556
         ROT  0.234E+09              888.752      2.981     41.278
         INT  0.104E+38            32474.565    192.550    244.835
         TR   0.225E+29             1481.254      4.968     45.951
         TOT                       33955.8193   197.5182   290.7855  1216.6464

       T/K    H(0)-H(T)+PV         H(T)/Eh          T*S/Eh         G(T)/Eh
   ------------------------------------------------------------------------
    298.15    0.541120E-01    0.870020E+00    0.138162E+00    0.731858E+00
   ------------------------------------------------------------------------

         :::::::::::::::::::::::::::::::::::::::::::::::::::::
         ::                  THERMODYNAMIC                  ::
         :::::::::::::::::::::::::::::::::::::::::::::::::::::
         :: total free energy        -157.928598670845 Eh   ::
         ::.................................................::
         :: total energy             -158.660456865393 Eh   ::
         :: zero point energy           0.815907714214 Eh   ::
         :: G(RRHO) w/o ZPVE           -0.084049519666 Eh   ::
         :: G(RRHO) contrib.            0.731858194548 Eh   ::
         :::::::::::::::::::::::::::::::::::::::::::::::::::::

           -------------------------------------------------
          | TOTAL ENERGY             -158.660456865393 Eh   |
          | TOTAL ENTHALPY           -157.790437108723 Eh   |
          | TOTAL FREE ENERGY        -157.928598670845 Eh   |
          | GRADIENT NORM               0.000064382854 Eh/α |
          | HOMO-LUMO GAP               1.627389456029 eV   |
           -------------------------------------------------

 * finished run on 2025/09/08 at 13:26:55.877
