   * xtb version 6.7.1 (edcfbbe) compiled by 'albert@albert-system' on 2024-07-22

   ID    Z sym.   atoms
    1    6 C      1-5, 7-25, 28-37, 39-62
    2    7 N      6, 38
    3   15 P      26
    4    8 O      27
    5    1 H      63-105

          program call               : xtb data2507/gas/CzA-PPO/CzA-PPO_gas_T1_crest.xyz --gfn 2 --spinpol --tblite --uhf 2 --ohess vtight --parallel 40 --molden --ceasefiles --namespace data2507/gas/CzA-PPO/CzA-PPO_gas_T1_finalOpt
 * total energy  :  -158.6026307 Eh     change       -0.3466252E-07 Eh
 * total energy  :  -158.6026558 Eh     change       -0.2512970E-04 Eh
 * total energy  :  -158.6026629 Eh     change       -0.7088063E-05 Eh
 * total energy  :  -158.6026657 Eh     change       -0.2790501E-05 Eh
 * total energy  :  -158.6026699 Eh     change       -0.4188759E-05 Eh
 * total energy  :  -158.6026733 Eh     change       -0.3395355E-05 Eh
 * total energy  :  -158.6026755 Eh     change       -0.2204489E-05 Eh
 * total energy  :  -158.6026764 Eh     change       -0.8700872E-06 Eh
 * total energy  :  -158.6026769 Eh     change       -0.5454166E-06 Eh
 * total energy  :  -158.6026777 Eh     change       -0.7336887E-06 Eh
 * total energy  :  -158.6026821 Eh     change       -0.4867077E-06 Eh
 * total energy  :  -158.6026826 Eh     change       -0.4922036E-06 Eh
 * total energy  :  -158.6026830 Eh     change       -0.4547861E-06 Eh
 * total energy  :  -158.6026837 Eh     change       -0.6806179E-06 Eh
 * total energy  :  -158.6026839 Eh     change       -0.1839549E-06 Eh
 * total energy  :  -158.6026842 Eh     change       -0.3625767E-06 Eh
 * total energy  :  -158.6026840 Eh     change        0.2223845E-06 Eh
 * total energy  :  -158.6026844 Eh     change       -0.3605460E-06 Eh
 * total energy  :  -158.6026845 Eh     change       -0.9027579E-07 Eh
   *** GEOMETRY OPTIMIZATION CONVERGED AFTER 26 ITERATIONS ***

 final structure:
================
105
 xtb: 6.7.1 (edcfbbe)
C          -10.56006821932399       -2.36262215814469        2.38307807096975
C           -9.48527107146480       -1.51318108969395        1.77868811634027
C           -8.37133832341500       -2.10236089822327        1.18722042536945
C           -7.37037425854498       -1.33693774250988        0.62997371880957
C           -7.45338754972973        0.05754258296162        0.65204709692019
N           -6.42277088307177        0.81462283604439        0.09897467394898
C           -6.66057980779515        2.05849086881339       -0.48153269481266
C           -7.86164375215955        2.34697780663172       -1.13479303442026
C           -8.06026313896627        3.58554218219305       -1.70700309133641
C           -7.07741229858688        4.56966451084079       -1.65893455306594
C           -7.30065336388054        5.90167728988625       -2.30549425493545
C           -5.88032893165420        4.27247222163750       -1.01776364321968
C           -5.66928905970609        3.04043705359153       -0.43473017677271
C           -5.11587122164504        0.31317792447852        0.12863655799423
C           -4.39760132236319        0.15424898966409       -1.09950093824685
C           -4.98615321830065        0.40342189175580       -2.34170000438106
C           -4.30267672371446        0.17017748084438       -3.53003619866746
C           -3.02922683833366       -0.35689383555570       -3.49907878356897
C           -2.43326442683994       -0.64769815657527       -2.27761816941160
C           -3.07532517095305       -0.37786833714313       -1.06477899632192
C           -2.47292066300898       -0.70877368891663        0.18855937457988
C           -1.11145430766672       -1.23752877575232        0.21755176801129
C           -0.83284809155355       -2.47443907086785        0.80975018258792
C            0.45154382783731       -2.97447061635740        0.81880978621901
C            1.49250884329269       -2.25124728291396        0.24768958720953
P            3.13382485688059       -3.03127879992735        0.27727345621917
O            3.33095181112904       -3.94861080286307        1.40553511474810
C            3.31453944501040       -3.83714587970370       -1.34926755513317
C            4.15454988817773       -4.94041783250747       -1.40462129340245
C            4.35575528007475       -5.59933238184798       -2.60381690719144
C            3.71487633031020       -5.15561682475194       -3.74932765521007
C            2.86931746433723       -4.05914084965045       -3.69370346318858
C            2.66650567496736       -3.39775425710576       -2.49555324419766
C            4.33242911473082       -1.65913546083173        0.24996133016877
C            4.68292397353419       -0.97011447948872       -0.90415123892018
C            5.59115812120786        0.06763830569978       -0.84037618102707
C            6.15499293748724        0.43193439523164        0.38157061773234
N            7.07190449749471        1.48647098881324        0.44209835917821
C            6.89590235772124        2.74279232518973       -0.10605306969168
C            5.79776438217194        3.27317726023035       -0.76750887684669
C            5.87251914390705        4.58575868451056       -1.19307115569762
C            7.00557944655469        5.36218125753680       -0.96182044598378
C            8.09103439132300        4.84807525990000       -0.28112826564278
C            8.03929798860169        3.53130633061587        0.15641591216261
C            8.94880870409310        2.69950948028812        0.89397654055991
C           10.22279685395669        2.90126261266758        1.40830715077160
C           10.84510534553874        1.85648238784054        2.06155094128684
C           10.21936813660305        0.61861920024194        2.19077800830563
C            8.95219623257085        0.39376133921641        1.68756311759728
C            8.31161408021145        1.44789569738310        1.05263471558476
C            5.80621303614274       -0.26382814511966        1.53762122154062
C            4.90304770529142       -1.30516686503415        1.46513430970313
C            1.23361858540679       -1.01234548396147       -0.32811164210963
C           -0.05285468885371       -0.51639384593526       -0.34631910804894
C           -3.18953524746326       -0.52957362034551        1.41212879782670
C           -2.58096058993820       -0.74538968199396        2.65273793403758
C           -3.26519037846413       -0.54061679088754        3.84498188313623
C           -4.56117403907267       -0.07104784550275        3.81800110844257
C           -5.17643711956503        0.19889867152095        2.60048228262307
C           -4.52550763906997       -0.03256358846060        1.38650467438847
C           -8.56299335838727        0.65469946216428        1.25338466656181
C           -9.56093776158235       -0.12568120963304        1.80114064129428
H          -10.90342518472590       -3.10983377449168        1.66915654489309
H          -11.40866189981337       -1.75767720768496        2.69200786910183
H          -10.17628650801063       -2.89073976294954        3.25590373455041
H           -8.29452799328548       -3.17962674009577        1.15792541818100
H           -6.51709165898165       -1.80595711856554        0.16279649029623
H           -8.62639154288559        1.58740062932403       -1.20770236390680
H           -8.99352410731151        3.79165490781249       -2.21133178664983
H           -6.62500850885536        6.64967495943144       -1.89811714006191
H           -8.32627080944653        6.23508879672716       -2.16109694583529
H           -7.12072486755807        5.83068289617808       -3.37890476457276
H           -5.10339844250811        5.02149404401302       -0.96629138991643
H           -4.74013586991582        2.82668243935486        0.07252461642903
H           -5.99545237297658        0.77966344695546       -2.39482531149116
H           -4.78353674023139        0.39244074766046       -4.47102134274215
H           -2.49616466291580       -0.56014619194391       -4.41595796849075
H           -1.46005814643011       -1.11381975657932       -2.26793061274313
H           -1.64288912276556       -3.04880831164042        1.23571843617066
H            0.67436634404673       -3.93043826465770        1.27120762551914
H            4.63228023057367       -5.27326401388665       -0.49420441183673
H            5.00915604665287       -6.45838244419143       -2.64722737774084
H            3.86903376707854       -5.66861245475700       -4.68738357098882
H            2.36419225776102       -3.72083131215283       -4.58703186060013
H            1.99720638086465       -2.55007732003195       -2.44648081916014
H            4.26186980527251       -1.26063465787167       -1.85630303857061
H            5.88641349962809        0.59089993825516       -1.73795688428595
H            4.90670116008680        2.68690180428634       -0.93454951701290
H            5.03143861470362        5.02035079050061       -1.71304907322975
H            7.02624935951256        6.38315738047666       -1.31289780973723
H            8.96244664429229        5.45466537507393       -0.08596590538354
H           10.71381132233000        3.85571010943296        1.29247824211596
H           11.83489894745080        1.99271908005267        2.47117009283622
H           10.73751375667409       -0.18534889709267        2.69230933561974
H            8.48472055390119       -0.57519482372269        1.77666088741362
H            6.23440421305943        0.02790198825438        2.48496457518303
H            4.62546447751681       -1.86287666299337        2.34793510015145
H            2.04330562598593       -0.43256619331913       -0.74926980515513
H           -0.25069571504887        0.45496934834930       -0.77724643161519
H           -1.54907947413221       -1.05878533019271        2.68905100507663
H           -2.77094749972840       -0.73725648799643        4.78450763261064
H           -5.10277223007225        0.10272665848253        4.73586880428281
H           -6.17707343942832        0.60121778083072        2.60816241381098
H           -8.62711557406217        1.73175184336811        1.30787010252097
H          -10.41022008689002        0.35488024340933        2.26543790840209

 projected vibrational frequencies (cm⁻¹)
eigval :       -0.00    -0.00    -0.00     0.00     0.00     0.00
eigval :      -17.22   -16.14     4.60     5.24     8.47    12.08
eigval :       15.93    23.19    24.74    34.06    35.77    37.06
eigval :       41.67    45.62    46.28    55.30    60.34    68.18
eigval :       70.97    80.45    88.69   103.08   111.82   114.65
eigval :      122.25   134.00   140.91   142.28   149.51   151.69
eigval :      160.40   160.94   182.79   197.36   212.37   218.66
eigval :      227.50   230.45   243.90   249.14   259.85   271.55
eigval :      274.29   286.64   290.50   305.11   324.13   331.91
eigval :      349.03   349.99   357.61   362.75   363.97   369.93
eigval :      376.86   377.46   385.56   386.81   390.19   390.48
eigval :      397.40   399.81   402.96   419.12   428.28   433.01
eigval :      438.89   439.91   448.29   474.26   477.34   483.83
eigval :      487.72   494.74   506.08   518.36   525.96   534.03
eigval :      540.12   541.20   565.80   576.61   577.20   580.93
eigval :      583.48   586.34   593.50   600.48   609.23   611.48
eigval :      612.44   613.50   630.95   654.94   658.88   661.77
eigval :      663.18   667.36   673.71   678.83   681.70   682.93
eigval :      702.00   706.62   708.60   734.21   738.82   748.31
eigval :      750.46   755.65   760.95   769.50   780.82   790.08
eigval :      791.10   803.08   806.50   810.77   812.68   836.45
eigval :      838.76   858.83   864.61   867.01   871.63   873.17
eigval :      874.14   879.73   882.43   884.12   888.03   891.43
eigval :      897.99   902.23   903.19   903.63   904.39   905.38
eigval :      910.49   915.23   916.54   919.25   920.94   923.70
eigval :      923.81   926.61   927.43   928.71   931.17   932.58
eigval :      932.94   933.35   935.14   954.72   973.99  1006.17
eigval :     1007.77  1008.37  1010.98  1011.45  1012.18  1026.22
eigval :     1030.04  1030.10  1070.85  1074.89  1078.41  1092.74
eigval :     1108.29  1112.99  1114.14  1116.25  1120.45  1122.22
eigval :     1125.84  1127.51  1129.52  1133.78  1143.45  1145.83
eigval :     1152.75  1162.30  1175.95  1179.68  1180.68  1181.05
eigval :     1184.88  1185.22  1187.72  1192.44  1193.10  1197.14
eigval :     1200.65  1201.95  1224.34  1234.99  1236.22  1242.58
eigval :     1245.54  1256.91  1261.08  1261.51  1262.89  1265.19
eigval :     1271.87  1272.41  1277.98  1283.17  1300.52  1301.76
eigval :     1302.65  1309.14  1316.35  1319.76  1320.89  1321.74
eigval :     1327.08  1331.88  1341.36  1357.11  1361.22  1362.10
eigval :     1364.79  1368.88  1381.05  1391.78  1396.64  1402.69
eigval :     1402.87  1412.41  1413.53  1423.69  1424.92  1425.60
eigval :     1426.86  1427.87  1455.14  1458.15  1471.89  1476.37
eigval :     1477.14  1478.03  1479.69  1481.24  1481.80  1483.80
eigval :     1487.20  1489.01  1499.80  1528.69  1533.17  1538.07
eigval :     1554.29  1560.43  1561.78  1565.43  1569.07  1575.38
eigval :     1583.65  1583.70  1587.15  1589.49  1595.03  1598.87
eigval :     1600.48  1614.70  2994.67  3002.00  3020.42  3031.09
eigval :     3042.70  3045.39  3064.25  3066.59  3071.89  3073.51
eigval :     3073.62  3074.33  3074.90  3075.36  3076.31  3077.43
eigval :     3077.53  3077.61  3077.79  3078.71  3078.86  3080.86
eigval :     3081.73  3083.49  3083.72  3084.27  3085.48  3086.34
eigval :     3087.43  3088.36  3088.53  3090.01  3090.36  3090.84
eigval :     3091.18  3091.82  3093.47  3095.31  3097.25  3098.11
eigval :     3099.73  3107.69  3108.22

   temp. (K)  partition function   enthalpy   heat capacity  entropy
                                   cal/mol     cal/K/mol   cal/K/mol   J/K/mol
 298.15  VIB  0.895E+28            31643.509    190.702    202.456
         ROT  0.241E+09              888.752      2.981     41.337
         INT  0.216E+37            32532.261    193.683    243.793
         TR   0.225E+29             1481.254      4.968     45.951
         TOT                       34013.5150   198.6511   289.7440  1212.2887

       T/K    H(0)-H(T)+PV         H(T)/Eh          T*S/Eh         G(T)/Eh
   ------------------------------------------------------------------------
    298.15    0.542040E-01    0.867734E+00    0.137667E+00    0.730067E+00
   ------------------------------------------------------------------------

         :::::::::::::::::::::::::::::::::::::::::::::::::::::
         ::                  THERMODYNAMIC                  ::
         :::::::::::::::::::::::::::::::::::::::::::::::::::::
         :: total free energy        -157.872617478149 Eh   ::
         ::.................................................::
         :: total energy             -158.602684525764 Eh   ::
         :: zero point energy           0.813529763080 Eh   ::
         :: G(RRHO) w/o ZPVE           -0.083462715465 Eh   ::
         :: G(RRHO) contrib.            0.730067047615 Eh   ::
         :::::::::::::::::::::::::::::::::::::::::::::::::::::

           -------------------------------------------------
          | TOTAL ENERGY             -158.602684525764 Eh   |
          | TOTAL ENTHALPY           -157.734950776329 Eh   |
          | TOTAL FREE ENERGY        -157.872617478149 Eh   |
          | GRADIENT NORM               0.000054958328 Eh/α |
           -------------------------------------------------

 * finished run on 2025/09/08 at 13:50:19.491
