   * xtb version 6.7.1 (edcfbbe) compiled by 'albert@albert-system' on 2024-07-22

   ID    Z sym.   atoms
    1    6 C      1-5, 7-25, 28-37, 39-62
    2    7 N      6, 38
    3   15 P      26
    4    8 O      27
    5    1 H      63-105

          program call               : xtb data2507/gas/CzA-PPO/CzA-PPO.xyz --gfn 2 --ohess vtight --parallel 40 --molden --ceasefiles --namespace data2507/gas/CzA-PPO/CzA-PPO_gas_S0_preOpt
          :  Hamiltonian                  GFN2-xTB          :
 * total energy  :  -158.6242024 Eh     change       -0.2724192E-08 Eh
 * total energy  :  -158.6476151 Eh     change       -0.2341261E-01 Eh
 * total energy  :  -158.6553791 Eh     change       -0.7764077E-02 Eh
 * total energy  :  -158.6569806 Eh     change       -0.1601447E-02 Eh
 * total energy  :  -158.6578640 Eh     change       -0.8834527E-03 Eh
 * total energy  :  -158.6582151 Eh     change       -0.3510311E-03 Eh
 * total energy  :  -158.6584627 Eh     change       -0.2476647E-03 Eh
 * total energy  :  -158.6586570 Eh     change       -0.1943003E-03 Eh
 * total energy  :  -158.6588310 Eh     change       -0.1739954E-03 Eh
 * total energy  :  -158.6590006 Eh     change       -0.1695812E-03 Eh
 * total energy  :  -158.6603896 Eh     change       -0.8424374E-06 Eh
 * total energy  :  -158.6603908 Eh     change       -0.1190158E-05 Eh
 * total energy  :  -158.6603922 Eh     change       -0.1415009E-05 Eh
 * total energy  :  -158.6603934 Eh     change       -0.1236334E-05 Eh
 * total energy  :  -158.6603944 Eh     change       -0.1013717E-05 Eh
 * total energy  :  -158.6603953 Eh     change       -0.9016952E-06 Eh
 * total energy  :  -158.6603964 Eh     change       -0.1022367E-05 Eh
 * total energy  :  -158.6603968 Eh     change       -0.4591921E-06 Eh
 * total energy  :  -158.6603969 Eh     change       -0.7134693E-07 Eh
   *** GEOMETRY OPTIMIZATION CONVERGED AFTER 59 ITERATIONS ***

 final structure:
================
105
 xtb: 6.7.1 (edcfbbe)
C           -9.34456923393605        1.00131865846322        4.44901952473682
C           -8.47359165517487        0.90536724989635        3.23325357148503
C           -7.09606039327246        1.06051733411675        3.33036263581060
C           -6.28493282883059        0.96137921642438        2.21848776203532
C           -6.83491258575306        0.69257577277418        0.96520725645827
N           -6.00047834133663        0.57541654998884       -0.14765957318754
C           -6.41735026949903        0.92728266997987       -1.43202911538513
C           -5.89338102176839        0.25927342774009       -2.53870843699773
C           -6.28398681324771        0.60896911532084       -3.81523811495849
C           -7.20927620795455        1.62235422359373       -4.03325609507973
C           -7.61840974479495        2.00472364151904       -5.42340790883399
C           -7.72401363174704        2.28834262396411       -2.92750313307963
C           -7.33451418818565        1.95674541584095       -1.64569290640249
C           -4.69122153330489        0.08338416789695        0.03294041421284
C           -4.49838794326237       -1.20639196348955        0.56055508535857
C           -5.58414718941798       -2.06450766684644        0.87086041520194
C           -5.37715680131334       -3.31350020109408        1.37131271560749
C           -4.06851687450823       -3.78546324194264        1.58812455579754
C           -2.99878725317924       -3.00310755477000        1.27957840215199
C           -3.16947475747492       -1.69490447739406        0.75520127144633
C           -2.07240961052779       -0.90153154923672        0.39199164066403
C           -0.69963645616646       -1.41890052934242        0.57448126661029
C           -0.15120359373333       -1.53673567036888        1.84894507723725
C            1.13443077785030       -2.01479388989542        2.01102579233913
C            1.88729583527813       -2.38419492257855        0.90469177170626
P            3.58027939710275       -2.96869107027771        1.22885833656433
O            3.75827187916642       -3.53725785589446        2.56952727411368
C            3.95308371415871       -4.14515484216180       -0.11274559723093
C            4.38851385848413       -3.75696300770664       -1.37252345600296
C            4.63279180187641       -4.71695024092675       -2.33840122989435
C            4.44433049736207       -6.05922955418628       -2.04976315145781
C            4.01697727009998       -6.44736193016221       -0.79019358056422
C            3.77221815537406       -5.49017022442150        0.17761651773428
C            4.65258423302769       -1.53031888953994        0.90922432483022
C            5.86096762487058       -1.49628172478309        1.59275510579418
C            6.74337270344191       -0.45259500577835        1.40256170957586
C            6.42385927860319        0.57179362025246        0.51265424494366
N            7.31430038305513        1.62992649355399        0.30810979030796
C            8.66436239822474        1.50929393942266        0.03535089374416
C            9.42982107673774        0.36785604744455       -0.15389718197837
C           10.76970864722571        0.53163881551748       -0.44993553311377
C           11.33995761733077        1.79709210737562       -0.56682269567985
C           10.57734415190435        2.93650115588268       -0.40575236822715
C            9.22848872492022        2.79731491801449       -0.10696356465305
C            8.16163363391308        3.73657707968755        0.10051141105659
C            8.10058097565968        5.12374461995780        0.11027096407232
C            6.88963717170025        5.73054566036873        0.37711626661581
C            5.75330604464900        4.97200437710924        0.64809511406383
C            5.78923286557224        3.59051554530679        0.64367993484619
C            6.99744144373661        2.97509948672879        0.35023701114359
C            5.20863971153849        0.53896421726868       -0.16972835341042
C            4.32680745177635       -0.50425022092528        0.03198872210208
C            1.34312623623166       -2.28228576304409       -0.36900370969906
C            0.05868951890427       -1.79970126700151       -0.53008387610159
C           -2.26658306193237        0.37869631939994       -0.14498270433124
C           -1.17147158400183        1.21363193524399       -0.49006406931452
C           -1.36517060165606        2.47320480691057       -0.96700177912414
C           -2.66977232353342        2.98260117187464       -1.11122000032550
C           -3.74737761317387        2.21413085269937       -0.79275144608448
C           -3.59100917665267        0.88793365578441       -0.31492786974609
C           -8.21558012865008        0.52044285393913        0.86411450634409
C           -9.01568608927499        0.63309338413747        1.98315864073387
H           -8.95415009928870        1.73868639070687        5.14719698270648
H           -9.37893883772449        0.03936534365610        4.96227153956703
H          -10.36143522396200        1.27556067692118        4.17805718103229
H           -6.65113452946548        1.27147233341135        4.29239886287917
H           -5.21690295080687        1.09445605877251        2.31169181182043
H           -5.18043808509246       -0.53836268505750       -2.38819039750307
H           -5.86847314194631        0.07732549446095       -4.65953044273505
H           -7.60606534868001        1.13927897793586       -6.08237475995214
H           -6.92616176003089        2.74450343399748       -5.82788780172316
H           -8.61568495262535        2.43856644314286       -5.42924629285347
H           -8.43645407876087        3.08831113782131       -3.07160577536266
H           -7.73142614125770        2.50289577640695       -0.80229214750716
H           -6.59073984485547       -1.71953820466560        0.69454231527583
H           -6.21663635171494       -3.95397887764830        1.59762468852289
H           -3.92150580439153       -4.77793849822433        1.98787404781630
H           -1.99467092364113       -3.37280341121086        1.42508183719732
H           -0.73956893301893       -1.24630836074115        2.70750802381153
H            1.57268402251331       -2.11869982154594        2.99337846987850
H            4.54750502863583       -2.71014586435357       -1.59155993447566
H            4.97402807908844       -4.41808066021594       -3.31909584184511
H            4.63730850221314       -6.80414527499302       -2.80778346774442
H            3.87716077716794       -7.49433120917750       -0.56448663176375
H            3.44987288294524       -5.76602358530683        1.17156728374899
H            6.08372094465255       -2.29243441031857        2.28852373975832
H            7.67260201769079       -0.41121310618009        1.95079580083849
H            8.99504731191268       -0.61788480571149       -0.08348914030106
H           11.38756587047241       -0.34192227754915       -0.59691001783489
H           12.39159428016308        1.88277293565531       -0.79631705155110
H           11.01457945413645        3.91762288450958       -0.51338862429970
H            8.98594305876782        5.71077820660871       -0.08167599182540
H            6.81975467328919        6.80803542266939        0.38791421169774
H            4.82362726448090        5.47425810118974        0.87160750486572
H            4.90697395754106        3.01340145299743        0.87644077948141
H            4.97018523780130        1.32759119038688       -0.86809801308236
H            3.38199367882937       -0.52043268736660       -0.49263774516155
H            1.91895360885822       -2.59161640613622       -1.23014730480461
H           -0.37167931041772       -1.71989422092061       -1.51841452984884
H           -0.17073630080179        0.83023741226488       -0.35611968413138
H           -0.52104762479732        3.09624415508201       -1.22409189906396
H           -2.80875106045871        3.99222993749863       -1.46830975892942
H           -4.74154010410412        2.62048216179809       -0.89208663698957
H           -8.65666925903342        0.28601403158917       -0.09385123325590
H          -10.08327455681617        0.49665754020859        1.88350756704376

          :  Hamiltonian                  GFN2-xTB          :
         :: gradient norm              0.000144612320 Eh/a0 ::
         :: HOMO-LUMO gap              1.623706200236 eV    ::
         :: SCC energy              -161.612071284457 Eh    ::
         :: -> dispersion             -0.153086153276 Eh    ::
         :: repulsion energy           2.951674392398 Eh    ::

    * Orbital Energies and Occupations

         #    Occupation            Energy/Eh            Energy/eV
      -------------------------------------------------------------
         1        2.0000           -0.6920099             -18.8305
       ...           ...                  ...                  ...
       136        2.0000           -0.4087172             -11.1218
       137        2.0000           -0.4081608             -11.1066
       138        2.0000           -0.4064970             -11.0613
       139        2.0000           -0.4029054             -10.9636
       140        2.0000           -0.4015641             -10.9271
       141        2.0000           -0.4009902             -10.9115
       142        2.0000           -0.3997702             -10.8783
       143        2.0000           -0.3996435             -10.8749
       144        2.0000           -0.3904058             -10.6235
       145        2.0000           -0.3797841             -10.3345
       146        2.0000           -0.3674697              -9.9994
       147        2.0000           -0.3651093              -9.9351
       148        2.0000           -0.3423344              -9.3154 (HOMO)
       149                         -0.2826644              -7.6917 (LUMO)
       150                         -0.2563707              -6.9762
       151                         -0.2514338              -6.8419
       152                         -0.2450591              -6.6684
       153                         -0.2400951              -6.5333
       154                         -0.2388435              -6.4993
       155                         -0.2352071              -6.4003
       156                         -0.2347929              -6.3890
       157                         -0.2335247              -6.3545
       158                         -0.2241126              -6.0984
       159                         -0.2229821              -6.0677
       ...                                ...                  ...
       296                          1.1898582              32.3777
      -------------------------------------------------------------
                  HL-Gap            0.0596700 Eh            1.6237 eV

     #   Z          covCN         q      C6AA      α(0)
     1   6 C        3.757    -0.108    22.610     6.779
     2   6 C        2.965     0.008    27.836     8.654
     3   6 C        2.925    -0.039    28.974     8.827
     4   6 C        2.922    -0.051    29.264     8.871
     5   6 C        2.922     0.062    26.611     8.459
     6   7 N        2.751    -0.075    22.700     7.076
     7   6 C        2.922     0.062    26.608     8.459
     8   6 C        2.922    -0.051    29.270     8.872
     9   6 C        2.925    -0.039    28.978     8.828
    10   6 C        2.965     0.008    27.844     8.655
    11   6 C        3.757    -0.108    22.607     6.779
    12   6 C        2.925    -0.040    28.998     8.831
    13   6 C        2.920    -0.052    29.296     8.876
    14   6 C        2.925     0.049    26.890     8.504
    15   6 C        2.981    -0.002    28.072     8.691
    16   6 C        2.917    -0.033    28.826     8.804
    17   6 C        2.915    -0.030    28.743     8.791
    18   6 C        2.914    -0.029    28.714     8.787
    19   6 C        2.918    -0.035    28.866     8.810
    20   6 C        2.984     0.007    27.867     8.659
    21   6 C        2.978    -0.012    28.314     8.728
    22   6 C        2.978     0.022    27.513     8.604
    23   6 C        2.923    -0.031    28.770     8.796
    24   6 C        3.030    -0.021    28.498     8.756
    25   6 C        2.921     0.009    27.814     8.649
    26  15 P        4.080     0.064   157.429    22.539
    27   8 O        0.808    -0.355    20.816     6.116
    28   6 C        2.921     0.013    27.725     8.635
    29   6 C        2.970    -0.027    28.661     8.782
    30   6 C        2.920    -0.028    28.699     8.785
    31   6 C        2.920    -0.025    28.626     8.774
    32   6 C        2.919    -0.026    28.661     8.779
    33   6 C        3.032    -0.019    28.456     8.750
    34   6 C        2.920     0.008    27.844     8.653
    35   6 C        3.031    -0.019    28.462     8.751
    36   6 C        2.921    -0.042    29.035     8.836
    37   6 C        2.913     0.069    26.460     8.435
    38   7 N        2.802    -0.043    22.071     6.978
    39   6 C        3.073     0.047    26.880     8.501
    40   6 C        2.910    -0.050    29.253     8.869
    41   6 C        2.924    -0.033    28.817     8.803
    42   6 C        2.920    -0.040    28.996     8.830
    43   6 C        2.913    -0.032    28.808     8.801
    44   6 C        3.068    -0.016    28.341     8.729
    45   6 C        3.068    -0.016    28.340     8.729
    46   6 C        2.913    -0.032    28.808     8.801
    47   6 C        2.920    -0.040    28.998     8.831
    48   6 C        2.924    -0.033    28.820     8.804
    49   6 C        2.910    -0.050    29.252     8.869
    50   6 C        3.073     0.047    26.878     8.500
    51   6 C        2.922    -0.043    29.077     8.843
    52   6 C        2.968    -0.027    28.661     8.781
    53   6 C        2.970    -0.028    28.703     8.788
    54   6 C        2.924    -0.032    28.802     8.801
    55   6 C        2.984     0.006    27.877     8.661
    56   6 C        2.918    -0.035    28.866     8.810
    57   6 C        2.914    -0.029    28.729     8.789
    58   6 C        2.915    -0.030    28.755     8.793
    59   6 C        2.917    -0.033    28.818     8.803
    60   6 C        2.981    -0.002    28.076     8.692
    61   6 C        2.920    -0.052    29.294     8.876
    62   6 C        2.925    -0.040    28.997     8.831
    63   1 H        0.925     0.042     2.428     2.437
    64   1 H        0.924     0.045     2.384     2.415
    65   1 H        0.925     0.041     2.439     2.442
    66   1 H        0.926     0.030     2.592     2.518
    67   1 H        0.926     0.026     2.645     2.543
    68   1 H        0.926     0.025     2.652     2.547
    69   1 H        0.926     0.029     2.604     2.524
    70   1 H        0.925     0.041     2.435     2.440
    71   1 H        0.924     0.045     2.389     2.417
    72   1 H        0.925     0.041     2.436     2.441
    73   1 H        0.926     0.029     2.594     2.519
    74   1 H        0.926     0.031     2.573     2.509
    75   1 H        0.926     0.036     2.505     2.475
    76   1 H        0.926     0.031     2.579     2.511
    77   1 H        0.926     0.031     2.571     2.507
    78   1 H        0.926     0.032     2.563     2.503
    79   1 H        0.926     0.039     2.459     2.452
    80   1 H        0.926     0.061     2.190     2.314
    81   1 H        0.925     0.036     2.497     2.471
    82   1 H        0.926     0.036     2.508     2.476
    83   1 H        0.926     0.038     2.480     2.463
    84   1 H        0.926     0.040     2.452     2.449
    85   1 H        0.926     0.061     2.193     2.316
    86   1 H        0.926     0.065     2.145     2.290
    87   1 H        0.926     0.048     2.339     2.392
    88   1 H        0.926     0.027     2.624     2.533
    89   1 H        0.926     0.030     2.583     2.513
    90   1 H        0.926     0.029     2.597     2.520
    91   1 H        0.926     0.032     2.558     2.501
    92   1 H        0.926     0.032     2.558     2.501
    93   1 H        0.926     0.029     2.599     2.521
    94   1 H        0.926     0.030     2.588     2.516
    95   1 H        0.926     0.027     2.628     2.535
    96   1 H        0.926     0.045     2.389     2.417
    97   1 H        0.926     0.042     2.426     2.436
    98   1 H        0.926     0.037     2.484     2.465
    99   1 H        0.926     0.035     2.513     2.479
   100   1 H        0.926     0.028     2.612     2.527
   101   1 H        0.926     0.029     2.597     2.520
   102   1 H        0.926     0.030     2.585     2.514
   103   1 H        0.926     0.036     2.504     2.475
   104   1 H        0.926     0.031     2.576     2.510
   105   1 H        0.926     0.029     2.595     2.519

molecular dipole:
                 x           y           z       tot (Debye)
 q only:       -0.725       0.301      -1.176
   full:       -0.762       0.325      -1.423       4.186

 projected vibrational frequencies (cm⁻¹)
eigval :       -0.00    -0.00     0.00     0.00     0.00     0.00
eigval :       -8.05    -5.97     4.05     5.56     7.86    11.04
eigval :       18.04    22.07    25.74    28.74    37.38    39.33
eigval :       41.70    45.53    47.13    49.75    57.15    59.74
eigval :       73.46    77.92    84.98   102.66   109.37   118.28
eigval :      120.14   136.12   138.96   142.06   145.21   150.81
eigval :      159.01   161.71   189.26   195.45   205.10   214.93
eigval :      216.11   228.11   239.62   252.86   260.19   271.67
eigval :      273.08   286.90   291.51   303.37   325.09   329.39
eigval :      346.49   351.52   362.89   364.67   371.36   374.46
eigval :      375.61   376.66   381.37   389.19   392.52   397.81
eigval :      399.97   401.80   414.65   422.57   431.42   436.25
eigval :      437.84   447.53   449.00   460.27   479.55   483.15
eigval :      487.95   488.14   508.78   518.27   525.91   534.29
eigval :      541.11   541.94   578.88   580.11   581.04   585.65
eigval :      586.34   593.49   595.70   609.64   611.84   612.51
eigval :      613.20   628.61   636.44   655.75   658.30   660.87
eigval :      661.29   673.19   673.81   679.31   688.45   692.65
eigval :      702.82   708.76   733.13   734.05   743.87   749.70
eigval :      760.40   770.03   770.16   772.85   781.43   790.57
eigval :      795.32   803.55   806.90   808.96   812.47   860.68
eigval :      866.93   867.72   870.48   872.26   874.31   874.43
eigval :      878.53   880.44   883.51   895.93   897.94   903.20
eigval :      903.43   904.68   909.68   914.13   914.49   916.03
eigval :      918.48   919.03   920.60   921.80   923.49   925.61
eigval :      926.27   926.99   927.24   928.47   929.87   931.73
eigval :      933.58   934.63   935.28   945.35   973.99  1008.69
eigval :     1008.85  1009.65  1010.98  1012.08  1013.87  1029.01
eigval :     1033.04  1033.17  1070.95  1074.60  1078.38  1086.31
eigval :     1086.63  1100.00  1114.22  1115.51  1123.09  1127.12
eigval :     1127.86  1129.24  1131.64  1135.32  1145.78  1148.53
eigval :     1152.99  1174.83  1176.49  1180.05  1180.70  1181.26
eigval :     1183.56  1187.81  1190.39  1193.11  1199.04  1201.41
eigval :     1203.67  1218.57  1233.23  1233.48  1236.41  1239.75
eigval :     1245.34  1257.57  1259.57  1260.54  1263.79  1265.43
eigval :     1272.48  1277.41  1277.85  1286.15  1300.13  1301.47
eigval :     1314.55  1320.96  1321.82  1323.17  1327.81  1330.78
eigval :     1342.21  1350.40  1356.90  1361.08  1364.93  1367.97
eigval :     1385.70  1388.40  1396.98  1405.32  1405.39  1414.33
eigval :     1414.65  1424.73  1424.86  1427.54  1428.19  1428.72
eigval :     1439.72  1454.38  1465.10  1475.88  1481.30  1483.95
eigval :     1484.26  1485.94  1486.48  1488.04  1488.06  1495.59
eigval :     1495.87  1525.47  1528.24  1539.83  1561.07  1561.93
eigval :     1569.46  1574.74  1575.92  1583.47  1584.48  1586.64
eigval :     1587.57  1589.66  1599.44  1607.72  1609.03  1611.02
eigval :     1614.77  1621.39  2991.02  2991.76  3032.24  3033.30
eigval :     3037.08  3038.17  3066.09  3066.59  3070.25  3070.83
eigval :     3072.32  3072.36  3073.11  3074.88  3074.91  3075.30
eigval :     3076.95  3077.22  3077.34  3077.82  3080.08  3080.19
eigval :     3081.94  3083.02  3083.77  3084.52  3084.53  3084.74
eigval :     3085.20  3085.81  3086.57  3087.48  3088.60  3090.13
eigval :     3090.89  3092.13  3092.44  3094.21  3094.70  3096.05
eigval :     3097.60  3108.62  3109.24

   temp. (K)  partition function   enthalpy   heat capacity  entropy
                                   cal/mol     cal/K/mol   cal/K/mol   J/K/mol
 298.15  VIB  0.779E+29            31616.625    189.574    204.301
         ROT  0.239E+09              888.752      2.981     41.322
         INT  0.186E+38            32505.377    192.555    245.623
         TR   0.225E+29             1481.254      4.968     45.951
         TOT                       33986.6312   197.5233   291.5740  1219.9455

       T/K    H(0)-H(T)+PV         H(T)/Eh          T*S/Eh         G(T)/Eh
   ------------------------------------------------------------------------
    298.15    0.541611E-01    0.869998E+00    0.138536E+00    0.731462E+00
   ------------------------------------------------------------------------

         :::::::::::::::::::::::::::::::::::::::::::::::::::::
         ::                  THERMODYNAMIC                  ::
         :::::::::::::::::::::::::::::::::::::::::::::::::::::
         :: total free energy        -157.928934811935 Eh   ::
         ::.................................................::
         :: total energy             -158.660396892048 Eh   ::
         :: zero point energy           0.815837139749 Eh   ::
         :: G(RRHO) w/o ZPVE           -0.084375059636 Eh   ::
         :: G(RRHO) contrib.            0.731462080113 Eh   ::
         :::::::::::::::::::::::::::::::::::::::::::::::::::::

           -------------------------------------------------
          | TOTAL ENERGY             -158.660396892048 Eh   |
          | TOTAL ENTHALPY           -157.790398608013 Eh   |
          | TOTAL FREE ENERGY        -157.928934811935 Eh   |
          | GRADIENT NORM               0.000144566250 Eh/α |
          | HOMO-LUMO GAP               1.623703390573 eV   |
           -------------------------------------------------

 * finished run on 2025/09/08 at 12:58:25.511
