   * xtb version 6.7.1 (edcfbbe) compiled by 'albert@albert-system' on 2024-07-22

   ID    Z sym.   atoms
    1    6 C      1-5, 7-25, 28-37, 39-62
    2    7 N      6, 38
    3   15 P      26
    4    8 O      27
    5    1 H      63-105

          program call               : xtb data2507/gas/CzA-PPO/CzA-PPO_gas_S0_finalOpt.xtbopt.xyz --gfn 2 --spinpol --tblite --uhf 2 --ohess vtight --parallel 40 --molden --ceasefiles --namespace data2507/gas/CzA-PPO/CzA-PPO_gas_T1_preOpt
 * total energy  :  -158.5955558 Eh     change       -0.1171716E-07 Eh
 * total energy  :  -158.6006104 Eh     change       -0.5054568E-02 Eh
 * total energy  :  -158.6018013 Eh     change       -0.1190967E-02 Eh
 * total energy  :  -158.6018920 Eh     change       -0.9069504E-04 Eh
 * total energy  :  -158.6019541 Eh     change       -0.6210564E-04 Eh
 * total energy  :  -158.6019805 Eh     change       -0.2632151E-04 Eh
 * total energy  :  -158.6020168 Eh     change       -0.3630228E-04 Eh
 * total energy  :  -158.6020456 Eh     change       -0.2884272E-04 Eh
 * total energy  :  -158.6020705 Eh     change       -0.2492603E-04 Eh
 * total energy  :  -158.6020917 Eh     change       -0.2122339E-04 Eh
 * total energy  :  -158.6022561 Eh     change       -0.1277366E-05 Eh
 * total energy  :  -158.6022568 Eh     change       -0.7023993E-06 Eh
 * total energy  :  -158.6022572 Eh     change       -0.3546961E-06 Eh
 * total energy  :  -158.6022570 Eh     change        0.1328497E-06 Eh
 * total energy  :  -158.6022577 Eh     change       -0.6929516E-06 Eh
 * total energy  :  -158.6022583 Eh     change       -0.5460042E-06 Eh
 * total energy  :  -158.6022586 Eh     change       -0.3607983E-06 Eh
 * total energy  :  -158.6022589 Eh     change       -0.2254655E-06 Eh
 * total energy  :  -158.6022589 Eh     change       -0.2947252E-07 Eh
   *** GEOMETRY OPTIMIZATION CONVERGED AFTER 44 ITERATIONS ***

 final structure:
================
105
 xtb: 6.7.1 (edcfbbe)
C          -10.54752664178126       -1.53590441240147        2.70789405263580
C           -9.42994198976614       -0.89304578364813        1.94649605806242
C           -8.13019834191081       -0.92429726016128        2.44408768136838
C           -7.09055479979363       -0.33041473833801        1.76254416120125
C           -7.32265851191409        0.31631130741834        0.54607787006709
N           -6.25557371744445        0.89611288707786       -0.13753765492603
C           -6.42883022211503        2.02767821247609       -0.93195288760130
C           -5.61834473170185        2.21088521974922       -2.05493100548407
C           -5.76495566112360        3.33109850117523       -2.84388784896976
C           -6.71918451095712        4.30043564926148       -2.54942911715362
C           -6.85716438688110        5.51764442670379       -3.41053575579751
C           -7.52053088864808        4.11494445609513       -1.42887128896319
C           -7.38083328372846        3.00193802234513       -0.62517595109655
C           -4.98090171002096        0.32886703756504       -0.02306244637813
C           -4.79660110743238       -1.05492740910206       -0.34216040598415
C           -5.82541405618065       -1.84650461610619       -0.85621747580135
C           -5.63586987377702       -3.19875615216447       -1.12373780063660
C           -4.41242749328745       -3.78480013419525       -0.87788473259137
C           -3.35421228114377       -3.00692109276012       -0.42180563735737
C           -3.50417836632341       -1.63647087840967       -0.18639748140906
C           -2.40276003748562       -0.82035273667240        0.21242559325797
C           -1.06916726010911       -1.41172929234379        0.33614135407324
C           -0.38891079205791       -1.38927122411785        1.55777218438537
C            0.87059827895784       -1.93791783051953        1.66771842911677
C            1.48773272007834       -2.50946139666545        0.56037953657702
P            3.17736537961499       -3.12980678432237        0.82403240195909
O            3.37297381898821       -3.78719720969681        2.12152438286735
C            3.55273386292911       -4.20669038148668       -0.59676021752274
C            3.88910943753126       -3.72095801010863       -1.85345840166180
C            4.14602897564549       -4.60743944395433       -2.88384229829267
C            4.06891102018209       -5.97364364387740       -2.66293631433425
C            3.74038937608466       -6.45854485809571       -1.40738005484660
C            3.48337023787847       -5.57474813060634       -0.37479333257458
C            4.22523968803205       -1.65463744726486        0.60561300596361
C            5.41336533348676       -1.61183253443369        1.32235770525018
C            6.25113274166214       -0.51953957253760        1.22288601726270
C            5.90607084718401        0.54494800603397        0.39179574603537
N            6.74545598263155        1.65879638907582        0.28832156977762
C            8.10764992324169        1.62766252341362        0.05593254945798
C            8.93889224452086        0.54360271325301       -0.18620911475762
C           10.27681500161385        0.79679669359345       -0.42173320062762
C           10.78200539384659        2.09492203980669       -0.42780426901326
C            9.95477098075484        3.17912332385957       -0.21354884481889
C            8.60633702446788        2.94986510928951        0.02571091496650
C            7.48465897330898        3.81560683520137        0.26117986738067
C            7.34872546402722        5.19352590352357        0.36608106173371
C            6.09897238071149        5.71656011717936        0.63108179802371
C            4.99704370473594        4.88298989535191        0.80738799397070
C            5.10740861046462        3.50913231360680        0.70761303075599
C            6.35572597435618        2.97913267438222        0.41493455447515
C            4.71376214778309        0.50008002290835       -0.32934239570103
C            3.87583429741384       -0.59132736572070       -0.21687280118228
C            0.82127538787394       -2.54338118951449       -0.65777448510198
C           -0.44640476384089       -2.00775744693620       -0.76394642374556
C           -2.58391598163821        0.56822697183828        0.49286528452318
C           -1.50931452325171        1.39374838322020        0.83907649660413
C           -1.69901413215514        2.72823434681321        1.17994176615304
C           -2.97292962451404        3.25479677345822        1.19811963694258
C           -4.05543918948372        2.46878109079536        0.81579060286165
C           -3.88614260887799        1.14302910213330        0.41155328382948
C           -8.62223879933338        0.34239669135032        0.03677939950557
C           -9.65467095676616       -0.25072756255621        0.73481534739702
H          -10.69920519740046       -1.02591071250072        3.65911316126396
H          -10.31118006701886       -2.57662312767647        2.92484772818518
H          -11.47623532082930       -1.49843602010246        2.14434905421551
H           -7.93491019064350       -1.41716978271733        3.38543562379568
H           -6.08849957199785       -0.35190640115708        2.16461831226769
H           -4.88280627444718        1.45950411893410       -2.30133828402901
H           -5.13332455613047        3.45513987093947       -3.71164493383153
H           -6.83394571118419        5.24757356114495       -4.46469549172262
H           -6.02967876173873        6.20315668372209       -3.22517701635071
H           -7.78696171967358        6.04054162954411       -3.20125470648888
H           -8.26051225516001        4.85989480452893       -1.17344508976891
H           -7.99436332362688        2.89114165991725        0.25709310965534
H           -6.79394409623412       -1.41341835398005       -1.05076371859168
H           -6.45884645686753       -3.78347037272635       -1.50690226611489
H           -4.26493426681704       -4.84100852808108       -1.04667273755466
H           -2.39675903539747       -3.47272008247001       -0.24636832572150
H           -0.87100020765134       -0.95354596322502        2.42111746131804
H            1.39608346581423       -1.94222531115663        2.61264920711021
H            3.95841513653361       -2.65520657109231       -2.02023504821722
H            4.40944053008150       -4.23271189485692       -3.86252662986450
H            4.27100447011365       -6.66091346917267       -3.47146093146324
H            3.68661096037566       -7.52352640344734       -1.23517236823493
H            3.23531475585062       -5.92538735794916        0.61681777832096
H            5.65402389402844       -2.43976396459548        1.97365459789544
H            7.16260336089262       -0.47112292434284        1.79976161362570
H            8.55508912063711       -0.46539288630851       -0.20202501728188
H           10.94493321058203       -0.03095669610775       -0.60861117157477
H           11.83445721264146        2.25068064845995       -0.61251360783521
H           10.34222067560995        4.18653131179357       -0.23484159012708
H            8.20691940875705        5.83760253781725        0.24748033240845
H            5.97078249905420        6.78552593018440        0.71444585025113
H            4.03488054678315        5.31954252697763        1.03144377262289
H            4.25039324414693        2.87223336582013        0.86704470949415
H            4.45716915359553        1.32038491044574       -0.98340753129561
H            2.94426217833766       -0.61639445773268       -0.76506078936566
H            1.29416452698213       -2.99180979215766       -1.52055743382935
H           -0.96050702831269       -2.02281600352397       -1.71463593291494
H           -0.50976017659854        0.98689960171598        0.84641559018369
H           -0.84780671092585        3.33940118674893        1.44042669065518
H           -3.14010188121619        4.28050284852127        1.49129540505944
H           -5.04136964184374        2.90581798767697        0.83348562032658
H           -8.81333099731458        0.80998130712253       -0.91822016353686
H          -10.65312081941950       -0.22367853310171        0.32229102215039

 projected vibrational frequencies (cm⁻¹)
eigval :       -0.00    -0.00    -0.00    -0.00     0.00     0.00
eigval :      -10.53    -9.71    -2.29     4.88     7.50    11.42
eigval :       17.33    21.46    24.49    28.50    37.14    39.57
eigval :       42.92    44.60    48.11    54.35    58.15    59.70
eigval :       72.25    80.04    87.45   102.58   115.11   120.36
eigval :      126.95   133.36   140.41   143.04   145.51   152.54
eigval :      158.59   161.83   190.38   193.19   206.80   216.85
eigval :      221.34   230.07   239.45   253.52   259.85   270.83
eigval :      272.14   288.25   293.22   303.51   324.01   328.91
eigval :      348.70   351.84   354.83   362.41   365.30   368.97
eigval :      374.20   376.97   377.33   390.28   392.14   394.30
eigval :      397.34   400.50   402.98   421.13   422.87   432.97
eigval :      437.78   438.59   446.30   475.13   481.48   483.65
eigval :      489.06   495.02   505.85   518.23   524.75   534.34
eigval :      540.13   541.21   565.72   576.16   577.01   581.07
eigval :      583.58   586.20   593.50   599.13   610.10   610.82
eigval :      612.28   613.95   630.71   655.36   658.26   661.57
eigval :      664.00   670.26   673.76   676.49   679.40   685.02
eigval :      702.80   706.17   708.79   732.35   743.14   747.29
eigval :      748.75   755.47   760.33   769.82   781.05   790.19
eigval :      791.26   801.65   804.90   811.82   812.89   836.60
eigval :      837.33   858.51   864.45   867.58   871.16   874.03
eigval :      874.17   879.97   883.37   883.84   886.28   891.34
eigval :      898.01   902.88   903.14   903.61   903.94   904.63
eigval :      910.59   915.88   916.92   919.54   921.16   922.08
eigval :      923.52   926.49   927.00   928.29   930.81   931.64
eigval :      931.93   933.52   934.87   955.53   974.35  1006.88
eigval :     1007.77  1008.03  1010.65  1011.40  1012.27  1026.01
eigval :     1030.21  1030.56  1071.00  1074.48  1078.07  1092.13
eigval :     1106.27  1110.45  1113.74  1115.47  1119.08  1122.29
eigval :     1126.22  1127.62  1129.75  1132.88  1143.39  1145.50
eigval :     1152.82  1160.44  1175.86  1179.12  1180.27  1180.85
eigval :     1183.82  1184.85  1186.75  1191.86  1193.15  1196.93
eigval :     1200.14  1201.01  1223.81  1234.93  1236.31  1240.85
eigval :     1245.35  1256.50  1260.25  1261.31  1261.89  1263.88
eigval :     1271.31  1271.79  1278.06  1280.53  1300.16  1301.78
eigval :     1302.63  1309.94  1314.54  1317.05  1321.27  1321.85
eigval :     1329.32  1331.35  1342.02  1357.00  1361.18  1364.52
eigval :     1364.60  1370.92  1380.66  1389.89  1397.12  1403.24
eigval :     1403.39  1412.20  1413.90  1423.58  1424.74  1426.06
eigval :     1427.48  1427.67  1453.89  1459.49  1472.76  1476.11
eigval :     1477.94  1478.36  1479.47  1481.20  1482.86  1484.10
eigval :     1487.57  1488.32  1496.73  1526.74  1532.77  1542.36
eigval :     1554.47  1560.70  1562.28  1565.53  1571.86  1575.77
eigval :     1583.36  1584.32  1587.15  1589.56  1595.19  1599.28
eigval :     1600.60  1614.83  2997.22  3002.18  3019.10  3025.44
eigval :     3043.48  3045.29  3064.74  3067.64  3068.58  3068.76
eigval :     3072.97  3074.10  3074.70  3076.10  3076.48  3076.63
eigval :     3076.88  3077.51  3078.21  3078.63  3078.81  3079.64
eigval :     3081.49  3081.77  3082.76  3084.42  3085.53  3085.86
eigval :     3086.47  3087.89  3088.02  3089.54  3090.14  3090.57
eigval :     3090.90  3091.78  3093.02  3094.97  3096.76  3097.71
eigval :     3098.58  3105.26  3105.75

   temp. (K)  partition function   enthalpy   heat capacity  entropy
                                   cal/mol     cal/K/mol   cal/K/mol   J/K/mol
 298.15  VIB  0.714E+29            31691.503    190.626    204.516
         ROT  0.234E+09              888.752      2.981     41.281
         INT  0.167E+38            32580.255    193.607    245.797
         TR   0.225E+29             1481.254      4.968     45.951
         TOT                       34061.5088   198.5749   291.7478  1220.6729

       T/K    H(0)-H(T)+PV         H(T)/Eh          T*S/Eh         G(T)/Eh
   ------------------------------------------------------------------------
    298.15    0.542805E-01    0.867605E+00    0.138619E+00    0.728986E+00
   ------------------------------------------------------------------------

         :::::::::::::::::::::::::::::::::::::::::::::::::::::
         ::                  THERMODYNAMIC                  ::
         :::::::::::::::::::::::::::::::::::::::::::::::::::::
         :: total free energy        -157.873272642398 Eh   ::
         ::.................................................::
         :: total energy             -158.602258905344 Eh   ::
         :: zero point energy           0.813324603577 Eh   ::
         :: G(RRHO) w/o ZPVE           -0.084338340631 Eh   ::
         :: G(RRHO) contrib.            0.728986262947 Eh   ::
         :::::::::::::::::::::::::::::::::::::::::::::::::::::

           -------------------------------------------------
          | TOTAL ENERGY             -158.602258905344 Eh   |
          | TOTAL ENTHALPY           -157.734653832328 Eh   |
          | TOTAL FREE ENERGY        -157.873272642398 Eh   |
          | GRADIENT NORM               0.000042988319 Eh/α |
           -------------------------------------------------

 * finished run on 2025/09/08 at 13:27:11.351
