   * xtb version 6.7.1 (edcfbbe) compiled by 'albert@albert-system' on 2024-07-22

   ID    Z sym.   atoms
    1    6 C      1-16, 18-32, 34-37, 39-54
    2    7 N      17, 33, 38
    3    1 H      55-91

          program call               : xtb data2507/gas/IDFL-2DPA/IDFL-2DPA_gas_T1_crest.xyz --gfn 2 --spinpol --tblite --uhf 2 --ohess vtight --parallel 40 --molden --ceasefiles --namespace data2507/gas/IDFL-2DPA/IDFL-2DPA_gas_T1_finalOpt
 * total energy  :  -136.8543550 Eh     change       -0.7373416E-08 Eh
 * total energy  :  -136.8543651 Eh     change       -0.1014425E-04 Eh
 * total energy  :  -136.8543714 Eh     change       -0.6263255E-05 Eh
 * total energy  :  -136.8543722 Eh     change       -0.8672541E-06 Eh
 * total energy  :  -136.8543726 Eh     change       -0.3999120E-06 Eh
 * total energy  :  -136.8543732 Eh     change       -0.5417808E-06 Eh
 * total energy  :  -136.8543733 Eh     change       -0.1460683E-06 Eh
 * total energy  :  -136.8543738 Eh     change       -0.4873577E-06 Eh
 * total energy  :  -136.8543741 Eh     change       -0.2367300E-06 Eh
 * total energy  :  -136.8543743 Eh     change       -0.2846764E-06 Eh
 * total energy  :  -136.8543753 Eh     change       -0.1994366E-06 Eh
 * total energy  :  -136.8543755 Eh     change       -0.2790489E-06 Eh
 * total energy  :  -136.8543758 Eh     change       -0.3009482E-06 Eh
 * total energy  :  -136.8543761 Eh     change       -0.2075293E-06 Eh
 * total energy  :  -136.8543763 Eh     change       -0.2742167E-06 Eh
 * total energy  :  -136.8543765 Eh     change       -0.1913407E-06 Eh
 * total energy  :  -136.8543767 Eh     change       -0.1911871E-06 Eh
 * total energy  :  -136.8543769 Eh     change       -0.1395482E-06 Eh
 * total energy  :  -136.8543769 Eh     change       -0.9150369E-08 Eh
   *** GEOMETRY OPTIMIZATION CONVERGED AFTER 22 ITERATIONS ***

 final structure:
================
91
 xtb: 6.7.1 (edcfbbe)
C            0.40472066823435        5.52120399420030        1.12842760914649
C           -0.22999314034113        4.79638160715892       -0.06292288429273
C            0.24289796759142        5.42189531980799       -1.37998275974608
C           -1.73564661990586        4.81675726443769        0.03526703278345
C           -2.57179448290978        5.90228409177846        0.07861519081606
C           -3.94609467509074        5.69879417841618        0.19725602693202
C           -4.45552538790267        4.40863809166281        0.28294085059605
C           -3.62543161764441        3.30840195362611        0.23504805241778
C           -2.24436266121621        3.49549427168570        0.09570068233355
C           -1.16479529088805        2.57295445175587        0.02588417649673
C            0.07361490916150        3.31176856543583       -0.03088618404167
C            1.34089540036029        2.78271257947507       -0.04420841050700
C            1.45384738966729        1.36711492294181        0.00501089958614
C            2.42366272826579        0.31231742531618        0.02265410892106
C            3.81084697399585        0.29725787989986        0.01526819920042
C            4.48184934767779       -0.92600970768053        0.03903207652380
N            5.88053912063113       -0.94694913582551        0.02770800347393
C            6.58466923129308       -0.01295294730642       -0.73541495179866
C            6.08657491614851        0.41094698393624       -1.96869893492061
C            6.78250292154474        1.33896752188025       -2.71752422778374
C            7.98385517961239        1.85445157129383       -2.25746947435224
C            8.48416076712433        1.43553245181264       -1.03505172765216
C            7.79319461968044        0.51266745195624       -0.27495568242806
C            6.57063258333018       -1.90202993276801        0.77801621176457
C            7.74483178288989       -2.47627080373211        0.28885919545226
C            8.42176988175406       -3.41860893999250        1.03763864584969
C            7.94046365372473       -3.80831597592029        2.27732936829887
C            6.77288527951975       -3.24409561266561        2.76592205788289
C            6.09119754558525       -2.29680269534900        2.02819038139060
C            3.77023234452333       -2.13644137359499        0.07418058959509
C            2.38366059384599       -2.14790395910190        0.08437431573401
C            1.70990251862013       -0.94629357071609        0.06036406594689
N            0.35891447762888       -0.66122910253027        0.06407154570510
C           -0.90404322195817       -1.18049333715782        0.07334037908141
C           -1.34380112962633       -2.49332601083481        0.10950993357249
C           -2.69825277141603       -2.74546914364527        0.08268980700207
C           -3.62756265924283       -1.67940565201582       -0.00319611961886
N           -4.99216888794367       -1.96202041262277       -0.04198337818950
C           -5.46009852912510       -3.10912175633619       -0.68689500730248
C           -6.55012568959631       -3.81269338840969       -0.17181641366056
C           -7.00945467100069       -4.94667556288866       -0.81149415118870
C           -6.39120259217393       -5.40037839073717       -1.96625819262954
C           -5.30865673284131       -4.70560723377616       -2.48156258471575
C           -4.84476751755030       -3.56663612799099       -1.85372527742650
C           -5.90672879719420       -1.06975684535937        0.53030274577846
C           -5.60612979862285       -0.42025202203564        1.72856372184555
C           -6.50183581069862        0.47622425340752        2.27626271564446
C           -7.71072477356628        0.73234602396355        1.64830404544085
C           -8.01881155014605        0.08186794161530        0.46453233807049
C           -7.12637306282122       -0.81108417576560       -0.09605462833862
C           -3.19756752548669       -0.35934925587166       -0.03578383106858
C           -1.84231276073172       -0.06306169216047        0.03115817170292
C           -1.08134422970040        1.14828226640343        0.02561783430937
C            0.23372826809484        0.70413822592653        0.03296009277390
H            0.11961271987776        6.57086034939274        1.12707538121513
H            1.48924753118315        5.45552714454877        1.08158468488863
H            0.06944923774267        5.07155130941095        2.06069361956681
H           -0.03873562694839        6.47172455825495       -1.42168483121328
H           -0.21260262955198        4.90631417458797       -2.22285199457952
H            1.32421646916262        5.34645238836015       -1.47005524586875
H           -2.17928170596245        6.90832664507133        0.02667676271724
H           -4.61477146376374        6.54620491044116        0.23218362614752
H           -5.52198612157039        4.26480381226888        0.39137196917688
H           -4.04112049878609        2.31825197908480        0.32382248884732
H            2.21475082736599        3.41393120886316       -0.08560868188574
H            4.36790844559552        1.22207819578361        0.00845057713112
H            5.15648965903556        0.00111633384348       -2.33360821963632
H            6.38772584944111        1.65621493081018       -3.67131358647143
H            8.52600861925112        2.57788804943152       -2.84704787999778
H            9.41599965041408        1.83757450509216       -0.66562244373052
H            8.17781160917999        0.19902748773073        0.68445828028262
H            8.11408141331750       -2.18397105225566       -0.68328680176386
H            9.32733320840783       -3.85835113387238        0.64649715471626
H            8.47154247626161       -4.54680567974323        2.85828564900075
H            6.39422570897058       -3.53811879535444        3.73367270833194
H            5.18768013998733       -1.84861180561394        2.41398336426185
H            4.31561926762530       -3.06721809340521        0.07680567339818
H            1.85126702007079       -3.08672561477347        0.09760528430006
H           -0.63926044219437       -3.30891031511180        0.16987932081181
H           -3.06387888113799       -3.75825296861134        0.14429038730688
H           -7.02403697187798       -3.46702576421167        0.73525306617134
H           -7.85092423665558       -5.48519535226784       -0.40145619710522
H           -6.75203771780747       -6.28871095031196       -2.46171792024308
H           -4.82710339815924       -5.04820111021521       -3.38544618507161
H           -4.01168161185063       -3.01562373130617       -2.26405748462083
H           -4.66797077851280       -0.62568687339067        2.22237359201347
H           -6.25590705739343        0.97539318225519        3.20150171966122
H           -8.40748934506234        1.43517264635862        2.07879700631666
H           -8.95652960946759        0.27936193669617       -0.03336997139792
H           -7.36017786589523       -1.30378413774205       -1.02847255226635
H           -3.92511731945727        0.42845618079881       -0.14094525962041

 projected vibrational frequencies (cm⁻¹)
eigval :       -0.00    -0.00    -0.00     0.00     0.00     0.00
eigval :       12.26    12.94    16.06    23.20    23.72    32.17
eigval :       39.74    49.91    51.42    53.97    55.15    66.92
eigval :       76.47    78.53    82.25    90.92    92.72    96.06
eigval :      127.51   138.36   147.25   156.49   162.99   167.59
eigval :      195.99   208.33   215.67   216.14   223.10   234.14
eigval :      237.31   245.98   259.46   263.33   278.13   289.39
eigval :      309.63   311.67   313.71   322.82   326.98   342.31
eigval :      356.38   366.45   376.60   377.57   378.67   383.29
eigval :      385.47   392.69   401.63   411.51   433.34   441.66
eigval :      447.67   457.42   474.24   492.46   498.22   502.37
eigval :      506.16   508.16   529.68   537.07   545.71   560.69
eigval :      569.36   580.04   585.71   586.35   588.66   589.26
eigval :      598.33   610.07   612.98   622.80   630.62   645.49
eigval :      656.14   659.40   660.03   665.21   665.48   666.01
eigval :      672.00   680.67   685.61   700.02   702.12   712.50
eigval :      749.31   751.53   756.55   756.70   757.21   760.22
eigval :      775.96   787.59   793.66   807.52   831.47   841.01
eigval :      844.82   844.88   850.32   871.58   872.05   873.27
eigval :      873.81   875.01   880.88   892.60   893.62   894.75
eigval :      896.01   896.92   898.40   908.81   910.13   912.18
eigval :      926.83   927.00   927.57   928.00   928.28   928.47
eigval :      928.84   929.17   929.78   950.45   963.87   968.54
eigval :      970.37   996.00   998.77  1004.81  1007.82  1011.10
eigval :     1026.23  1043.93  1062.21  1074.05  1081.52  1082.49
eigval :     1082.61  1083.05  1091.85  1102.57  1121.54  1121.70
eigval :     1123.42  1123.86  1136.36  1149.08  1169.10  1171.48
eigval :     1173.30  1178.59  1179.83  1180.06  1180.10  1180.61
eigval :     1187.03  1192.71  1193.34  1198.69  1200.99  1209.07
eigval :     1219.24  1228.29  1235.75  1247.06  1264.50  1269.63
eigval :     1273.28  1275.02  1276.51  1276.95  1282.46  1294.55
eigval :     1305.15  1308.81  1311.27  1319.27  1320.18  1326.95
eigval :     1327.42  1332.91  1345.71  1350.90  1363.34  1372.59
eigval :     1389.02  1393.70  1399.40  1404.20  1409.75  1415.69
eigval :     1432.63  1433.42  1440.80  1441.92  1445.05  1453.01
eigval :     1460.92  1463.65  1464.38  1465.66  1467.57  1473.11
eigval :     1480.40  1488.08  1490.67  1492.58  1498.22  1503.09
eigval :     1511.01  1538.01  1544.20  1567.07  1570.13  1573.09
eigval :     1574.36  1575.56  1581.68  1584.41  1586.78  1590.48
eigval :     1592.87  1610.64  3025.27  3026.05  3028.30  3032.02
eigval :     3036.22  3037.13  3060.51  3063.41  3077.87  3078.64
eigval :     3078.81  3079.76  3080.11  3080.71  3080.82  3083.01
eigval :     3083.08  3083.51  3086.30  3087.71  3088.01  3088.58
eigval :     3089.10  3089.72  3090.33  3092.65  3093.01  3093.20
eigval :     3093.93  3099.23  3099.56  3100.05  3100.79  3101.11
eigval :     3102.57  3110.18  3117.54

   temp. (K)  partition function   enthalpy   heat capacity  entropy
                                   cal/mol     cal/K/mol   cal/K/mol   J/K/mol
 298.15  VIB  0.525E+20            25756.119    164.039    159.645
         ROT  0.134E+09              888.752      2.981     40.173
         INT  0.704E+28            26644.872    167.020    199.818
         TR   0.176E+29             1481.254      4.968     45.463
         TOT                       28126.1255   171.9877   245.2812  1026.2567

       T/K    H(0)-H(T)+PV         H(T)/Eh          T*S/Eh         G(T)/Eh
   ------------------------------------------------------------------------
    298.15    0.448218E-01    0.753829E+00    0.116541E+00    0.637288E+00
   ------------------------------------------------------------------------

         :::::::::::::::::::::::::::::::::::::::::::::::::::::
         ::                  THERMODYNAMIC                  ::
         :::::::::::::::::::::::::::::::::::::::::::::::::::::
         :: total free energy        -136.217088955997 Eh   ::
         ::.................................................::
         :: total energy             -136.854376874575 Eh   ::
         :: zero point energy           0.709007120345 Eh   ::
         :: G(RRHO) w/o ZPVE           -0.071719201767 Eh   ::
         :: G(RRHO) contrib.            0.637287918578 Eh   ::
         :::::::::::::::::::::::::::::::::::::::::::::::::::::

           -------------------------------------------------
          | TOTAL ENERGY             -136.854376874575 Eh   |
          | TOTAL ENTHALPY           -136.100547920140 Eh   |
          | TOTAL FREE ENERGY        -136.217088955997 Eh   |
          | GRADIENT NORM               0.000038759077 Eh/α |
           -------------------------------------------------

 * finished run on 2025/09/11 at 04:05:54.920
