   * xtb version 6.7.1 (edcfbbe) compiled by 'albert@albert-system' on 2024-07-22

   ID    Z sym.   atoms
    1    6 C      1-16, 18-32, 34-37, 39-54
    2    7 N      17, 33, 38
    3    1 H      55-91

          program call               : xtb data2507/gas/IDFL-2DPA/IDFL-2DPA_gas_S0_finalOpt.xtbopt.xyz --gfn 2 --spinpol --tblite --uhf 2 --ohess vtight --parallel 40 --molden --ceasefiles --namespace data2507/gas/IDFL-2DPA/IDFL-2DPA_gas_T1_preOpt
 * total energy  :  -136.8505564 Eh     change       -0.3277518E-07 Eh
 * total energy  :  -136.8533295 Eh     change       -0.2773056E-02 Eh
 * total energy  :  -136.8542477 Eh     change       -0.9182298E-03 Eh
 * total energy  :  -136.8543028 Eh     change       -0.5504603E-04 Eh
 * total energy  :  -136.8543240 Eh     change       -0.2120841E-04 Eh
 * total energy  :  -136.8543320 Eh     change       -0.8012844E-05 Eh
 * total energy  :  -136.8543390 Eh     change       -0.6983068E-05 Eh
 * total energy  :  -136.8543438 Eh     change       -0.4834570E-05 Eh
 * total energy  :  -136.8543472 Eh     change       -0.3364056E-05 Eh
 * total energy  :  -136.8543501 Eh     change       -0.2953537E-05 Eh
 * total energy  :  -136.8543715 Eh     change       -0.2077039E-06 Eh
 * total energy  :  -136.8543717 Eh     change       -0.2296547E-06 Eh
 * total energy  :  -136.8543719 Eh     change       -0.1795210E-06 Eh
 * total energy  :  -136.8543721 Eh     change       -0.1960814E-06 Eh
 * total energy  :  -136.8543723 Eh     change       -0.1540646E-06 Eh
 * total energy  :  -136.8543724 Eh     change       -0.1663223E-06 Eh
 * total energy  :  -136.8543726 Eh     change       -0.1832362E-06 Eh
 * total energy  :  -136.8543726 Eh     change        0.2095541E-07 Eh
 * total energy  :  -136.8543726 Eh     change       -0.2949463E-07 Eh
   *** GEOMETRY OPTIMIZATION CONVERGED AFTER 45 ITERATIONS ***

 final structure:
================
91
 xtb: 6.7.1 (edcfbbe)
C            0.41262619410548        5.52245793635304        1.11809418137055
C           -0.22843815497856        4.79646425108937       -0.06908328272500
C            0.23782415718317        5.42035196692692       -1.38932525760225
C           -1.73361533644477        4.81753386332852        0.03617544012948
C           -2.56908220398114        5.90339380074696        0.08377798770066
C           -3.94296140891048        5.70045237603373        0.20827900132072
C           -4.45264557476366        4.41046884405190        0.29526173812263
C           -3.62328011490083        3.30989795270034        0.24318941309242
C           -2.24268998285955        3.49645177652636        0.09817532002210
C           -1.16387728744393        2.57349813979719        0.02387524582346
C            0.07474591620772        3.31172453611187       -0.03726415752567
C            1.34166784657349        2.78200259734869       -0.05403110273152
C            1.45414949483880        1.36632214738222       -0.00414556672735
C            2.42349107079071        0.31107287548515        0.01322109059508
C            3.81073253115837        0.29515614401654        0.00510608853490
C            4.48084447252166       -0.92844843873557        0.03298655078516
N            5.87971852915269       -0.95068250000861        0.02356446958194
C            6.58565968231324       -0.02356549241223       -0.74591052244729
C            6.08776124744887        0.39329382276981       -1.98170654449226
C            6.78559885703539        1.31428173998425       -2.73738799024349
C            7.98867296741324        1.82970279395238       -2.28179646562061
C            8.48864764538413        1.41799619385853       -1.05679197575042
C            7.79580079059360        0.50225729850436       -0.28984148489025
C            6.56685146454079       -1.90041823572201        0.78327166952194
C            7.74139298980955       -2.48054498267425        0.30196809399994
C            8.41498622410146       -3.41750144834214        1.06048059072106
C            7.92996576653510       -3.79597480547980        2.30219886761333
C            6.76192481866915       -3.22601492915141        2.78295361190713
C            6.08355842884473       -2.28403660148337        2.03544718967611
C            3.76869770286971       -2.13838490240151        0.07160011919685
C            2.38209766180248       -2.14908332572417        0.08114029207485
C            1.70912910960890       -0.94713049949242        0.05388226962689
N            0.35824578802245       -0.66142342849631        0.05865745133134
C           -0.90496853224371       -1.18008661542752        0.07051402612608
C           -1.34526658108275       -2.49277953345791        0.10535881571174
C           -2.69992363912199       -2.74425584669411        0.08086734202150
C           -3.62875227264233       -1.67749775083902        0.00020899290212
N           -4.99385249219051       -1.95894028385620       -0.03436296811130
C           -5.46559245043850       -3.10082866651808       -0.68535878002222
C           -6.55602026140749       -3.80545462611153       -0.17251727448681
C           -7.01932191561966       -4.93406916621469       -0.81877946995070
C           -6.40474767813515       -5.38134796388139       -1.97800014799591
C           -5.32167435460492       -4.68566359614716       -2.49095892024781
C           -4.85373952842469       -3.55205548399201       -1.85647826189104
C           -5.90422575392583       -1.06902871029586        0.54807426015225
C           -5.59657449225729       -0.42871182012294        1.74948939443369
C           -6.48781383808075        0.46559161421686        2.30787748655522
C           -7.69899628401755        0.72885851991893        1.68733038383777
C           -8.01390018542418        0.08773876651336        0.50025214571543
C           -7.12610839726759       -0.80320019487312       -0.07084467823799
C           -3.19833861704877       -0.35761308121897       -0.03127192433291
C           -1.84270705549189       -0.06211863647759        0.03131871831670
C           -1.08110622825621        1.14876017534428        0.02343223175561
C            0.23374593529048        0.70395055587138        0.02701372994776
H            0.12779821599969        6.57218618428793        1.11701169941257
H            1.49687508050780        5.45649459031380        1.06564955422835
H            0.08213350200761        5.07397055305855        2.05262303943356
H           -0.04316934553672        6.47037951972876       -1.43040106555918
H           -0.22277818723094        4.90443112705843       -2.22921440497512
H            1.31856028348872        5.34386860055267       -1.48526943741113
H           -2.17637455981290        6.90929563068735        0.03077203289450
H           -4.61108611632693        6.54813762638254        0.24670054836180
H           -5.51869956932450        4.26706607046054        0.40811464901205
H           -4.03899720763472        2.31988082223894        0.33314974967355
H            2.21572202888332        3.41276529370323       -0.09835264649237
H            4.36856008178068        1.21950120103693       -0.00453810880890
H            5.15637900736652       -0.01662237336512       -2.34318785810961
H            6.39098572918701        1.62595750426412       -3.69308408771777
H            8.53238691560115        2.54752238620924       -2.87678137798070
H            9.42178088755293        1.82014866059508       -0.69075652320237
H            8.18024488745715        0.19443897302198        0.67151932640122
H            8.11355191419840       -2.19711654287889       -0.67168969673230
H            9.32087304894859       -3.86190920359513        0.67540476677960
H            8.45849417318843       -4.53024915848132        2.89077892675226
H            6.38031223638227       -3.51127021556851        3.75216880731294
H            5.17966466123719       -1.83133956060142        2.41504835800556
H            4.31373165443573       -3.06935721237191        0.07787342179037
H            1.84915784151934       -3.08754524594253        0.09712528498257
H           -0.64096550496013       -3.30881364445524        0.16243682531337
H           -3.06608326981093       -3.75697632492053        0.14052921399793
H           -7.02712302274395       -3.46485565399809        0.73792327123523
H           -7.86108654182909       -5.47344669894581       -0.41047065902965
H           -6.76882028101315       -6.26541175349728       -2.47870476132755
H           -4.84294970268108       -5.02321206824665       -3.39823998068222
H           -4.02028443590111       -3.00021387863301       -2.26494001867040
H           -4.65645555221393       -0.63962583780063        2.23722847289839
H           -6.23660452183314        0.95743693047954        3.23561891336927
H           -8.39223307803455        1.43004985855222        2.12610975461314
H           -8.95336892403014        0.29105700148960        0.00802766801356
H           -7.36523127695436       -1.28863838014945       -1.00571561846157
H           -3.92608115332016        0.43056424077907       -0.13232175379298

 projected vibrational frequencies (cm⁻¹)
eigval :       -0.00    -0.00    -0.00     0.00     0.00     0.00
eigval :       12.12    13.13    16.16    23.11    23.69    32.03
eigval :       39.75    49.80    51.25    53.69    55.06    66.95
eigval :       77.10    78.51    82.16    91.16    92.84    96.11
eigval :      127.44   138.24   147.00   156.52   162.87   167.49
eigval :      195.97   208.32   215.43   216.04   222.99   234.11
eigval :      237.12   245.95   259.33   263.22   278.10   289.41
eigval :      309.68   311.51   313.77   322.86   326.88   342.46
eigval :      356.39   366.53   376.83   377.54   378.65   383.18
eigval :      385.13   392.43   401.60   411.43   433.32   441.59
eigval :      447.66   457.37   474.13   492.39   498.34   502.17
eigval :      506.05   508.03   529.61   536.97   545.61   560.50
eigval :      569.29   580.05   585.70   586.33   588.65   589.25
eigval :      598.37   610.14   613.03   622.84   630.67   645.49
eigval :      656.05   659.36   659.95   665.24   665.42   666.02
eigval :      672.07   680.86   685.64   700.11   701.88   712.46
eigval :      749.37   751.52   756.49   756.58   757.26   760.17
eigval :      775.89   787.36   793.45   807.58   831.50   840.92
eigval :      844.67   844.87   850.32   871.73   872.00   873.66
eigval :      873.95   874.84   880.90   892.52   893.48   894.67
eigval :      895.98   896.75   898.44   908.73   910.02   912.17
eigval :      926.84   927.00   927.61   928.10   928.24   928.40
eigval :      929.00   929.09   929.78   950.53   963.79   968.69
eigval :      970.26   996.05   998.79  1004.72  1007.82  1011.05
eigval :     1026.14  1043.87  1062.18  1074.07  1081.42  1082.24
eigval :     1082.47  1082.94  1091.66  1102.40  1121.38  1121.59
eigval :     1123.28  1123.84  1136.00  1148.33  1169.43  1171.33
eigval :     1172.88  1178.25  1179.78  1180.01  1180.04  1180.18
eigval :     1186.91  1192.74  1193.49  1198.90  1201.51  1209.03
eigval :     1219.51  1228.34  1235.87  1246.98  1264.64  1269.83
eigval :     1273.27  1275.04  1276.56  1277.01  1282.60  1294.30
eigval :     1305.35  1308.89  1311.32  1319.23  1320.14  1326.88
eigval :     1327.34  1332.86  1345.70  1350.96  1363.48  1372.74
eigval :     1388.89  1393.62  1399.30  1404.17  1409.59  1415.39
eigval :     1432.26  1433.05  1440.69  1441.61  1444.94  1453.02
eigval :     1460.88  1463.59  1464.52  1465.61  1467.63  1473.31
eigval :     1480.38  1488.11  1490.51  1493.12  1498.09  1502.98
eigval :     1510.98  1537.91  1544.00  1567.17  1570.02  1572.79
eigval :     1574.18  1575.43  1581.84  1584.17  1586.50  1590.73
eigval :     1593.08  1610.66  3025.06  3025.80  3028.00  3031.87
eigval :     3035.29  3036.22  3060.33  3063.23  3077.68  3078.46
eigval :     3078.60  3079.52  3079.97  3080.54  3080.65  3082.81
eigval :     3082.88  3083.32  3086.00  3087.58  3087.86  3088.42
eigval :     3088.89  3089.50  3090.02  3092.45  3092.79  3092.91
eigval :     3093.59  3099.02  3099.27  3099.81  3100.57  3100.93
eigval :     3102.43  3110.11  3117.50

   temp. (K)  partition function   enthalpy   heat capacity  entropy
                                   cal/mol     cal/K/mol   cal/K/mol   J/K/mol
 298.15  VIB  0.528E+20            25758.652    164.038    159.650
         ROT  0.134E+09              888.752      2.981     40.173
         INT  0.709E+28            26647.404    167.019    199.823
         TR   0.176E+29             1481.254      4.968     45.463
         TOT                       28128.6582   171.9874   245.2859  1026.2761

       T/K    H(0)-H(T)+PV         H(T)/Eh          T*S/Eh         G(T)/Eh
   ------------------------------------------------------------------------
    298.15    0.448259E-01    0.753793E+00    0.116543E+00    0.637250E+00
   ------------------------------------------------------------------------

         :::::::::::::::::::::::::::::::::::::::::::::::::::::
         ::                  THERMODYNAMIC                  ::
         :::::::::::::::::::::::::::::::::::::::::::::::::::::
         :: total free energy        -136.217122468547 Eh   ::
         ::.................................................::
         :: total energy             -136.854372643367 Eh   ::
         :: zero point energy           0.708967533133 Eh   ::
         :: G(RRHO) w/o ZPVE           -0.071717358312 Eh   ::
         :: G(RRHO) contrib.            0.637250174821 Eh   ::
         :::::::::::::::::::::::::::::::::::::::::::::::::::::

           -------------------------------------------------
          | TOTAL ENERGY             -136.854372643367 Eh   |
          | TOTAL ENTHALPY           -136.100579240076 Eh   |
          | TOTAL FREE ENERGY        -136.217122468547 Eh   |
          | GRADIENT NORM               0.000061616914 Eh/α |
           -------------------------------------------------

 * finished run on 2025/09/11 at 03:55:53.324
