   * xtb version 6.7.1 (edcfbbe) compiled by 'albert@albert-system' on 2024-07-22

   ID    Z sym.   atoms
    1    6 C      1-16, 18-32, 34-37, 39-54
    2    7 N      17, 33, 38
    3    1 H      55-91

          program call               : xtb data2507/gas/IDFL-2DPA/IDFL-2DPA_gas_S0_crest.xyz --gfn 2 --ohess vtight --parallel 40 --molden --ceasefiles --namespace data2507/gas/IDFL-2DPA/IDFL-2DPA_gas_S0_finalOpt
          :  Hamiltonian                  GFN2-xTB          :
 * total energy  :  -136.9326015 Eh     change       -0.1277954E-08 Eh
 * total energy  :  -136.9326024 Eh     change       -0.8835286E-06 Eh
 * total energy  :  -136.9326030 Eh     change       -0.6672622E-06 Eh
 * total energy  :  -136.9326043 Eh     change       -0.1258378E-05 Eh
 * total energy  :  -136.9326047 Eh     change       -0.3768363E-06 Eh
 * total energy  :  -136.9326054 Eh     change       -0.7193864E-06 Eh
 * total energy  :  -136.9326063 Eh     change       -0.9377531E-06 Eh
 * total energy  :  -136.9326069 Eh     change       -0.5444295E-06 Eh
 * total energy  :  -136.9326073 Eh     change       -0.3850817E-06 Eh
 * total energy  :  -136.9326077 Eh     change       -0.4293892E-06 Eh
 * total energy  :  -136.9326090 Eh     change       -0.3500907E-06 Eh
 * total energy  :  -136.9326094 Eh     change       -0.3811721E-06 Eh
 * total energy  :  -136.9326098 Eh     change       -0.3787871E-06 Eh
 * total energy  :  -136.9326101 Eh     change       -0.3196608E-06 Eh
 * total energy  :  -136.9326103 Eh     change       -0.2456953E-06 Eh
 * total energy  :  -136.9326105 Eh     change       -0.2004391E-06 Eh
 * total energy  :  -136.9326107 Eh     change       -0.1703829E-06 Eh
 * total energy  :  -136.9326109 Eh     change       -0.1416530E-06 Eh
 * total energy  :  -136.9326109 Eh     change       -0.3941011E-08 Eh
   *** GEOMETRY OPTIMIZATION CONVERGED AFTER 22 ITERATIONS ***

 final structure:
================
91
 xtb: 6.7.1 (edcfbbe)
C            0.38577305938534        5.49755656530518        1.12916615918073
C           -0.23985818867060        4.77061012132189       -0.06571477675805
C            0.23691723946327        5.39705161162685       -1.38089996811209
C           -1.74470245815721        4.78685586468871        0.02556195849715
C           -2.58583701361932        5.87734593357475        0.06954470015164
C           -3.95256050846669        5.66781197757676        0.18992947380152
C           -4.46043170237218        4.38150600071064        0.27783854487888
C           -3.62060269574375        3.28178952989631        0.22874976121888
C           -2.25551046814328        3.48129292314543        0.08682712067533
C           -1.14755310834981        2.54336221476327        0.02107979792216
C            0.06240229542734        3.28618578017258       -0.03248417214495
C            1.34397337866474        2.75162788711788       -0.04846201644767
C            1.45776419032112        1.36400443471719       -0.00403540098489
C            2.43773524377672        0.29578966979973        0.01896427165139
C            3.82032300598239        0.29456197423933        0.01762329167674
C            4.49855346739756       -0.92228681296695        0.03891109712846
N            5.90092963706607       -0.94449966515378        0.02570832833551
C            6.60328331380984       -0.02550500338792       -0.75929018346008
C            6.10382614265342        0.37427147685923       -1.99924048657903
C            6.79727294818222        1.28812483889153       -2.76813382691790
C            7.99967078192983        1.81263433644950       -2.32293022184427
C            8.50193899662667        1.41741401878849       -1.09386372117299
C            7.81157162651022        0.51100688864357       -0.31335158367024
C            6.58853295923050       -1.88214176961758        0.80198513263166
C            7.76495115298404       -2.46655952934904        0.33204780533003
C            8.43957450257122       -3.39193823036136        1.10393255020622
C            7.95265506407997       -3.75789764200983        2.34820028437761
C            6.78182263524908       -3.18525643100232        2.81743778919288
C            6.10437891168154       -2.25256697296920        2.05689910221536
C            3.78476345816941       -2.12584981342611        0.07007964845893
C            2.40301126366236       -2.14832463778402        0.08909329352712
C            1.72456294381165       -0.94405453420990        0.06023895755264
N            0.36848900329085       -0.66530691152999        0.06073187358208
C           -0.91498333336351       -1.18092035773860        0.06871134891979
C           -1.35406861438108       -2.49142000264958        0.10378137715181
C           -2.71403010182477       -2.73567081107171        0.09123229482912
C           -3.63644067571715       -1.68787817570908        0.00470013462810
N           -5.01066445029239       -1.95793938441474       -0.03181731714276
C           -5.49135035731441       -3.08228466627790       -0.71043032486070
C           -6.58446274889825       -3.79107638333315       -0.21149965106282
C           -7.06015638343079       -4.90060012121209       -0.88216206715792
C           -6.45347860208341       -5.32760875732261       -2.05214323780147
C           -5.36579996885255       -4.62938210474140       -2.55050354115881
C           -4.88784289060541       -3.51352855920207       -1.89176751699096
C           -5.90831501014589       -1.06998701334305        0.57261692311435
C           -5.58409314920828       -0.44354057435404        1.77658848898123
C           -6.46139873464014        0.45272128242606        2.35460584353250
C           -7.67843049382355        0.73091047549631        1.75383575486036
C           -8.01101710326147        0.10316584450992        0.56470263683169
C           -7.13525239814541       -0.78615636502008       -0.02711916634296
C           -3.19409979504384       -0.36738657834619       -0.04008551705423
C           -1.84162028667612       -0.08955008406966        0.02609702993813
C           -1.07136318018904        1.14560052071184        0.01991907463907
C            0.24354820263847        0.68874477458393        0.02387157390479
H            0.09740891164802        6.54604933254627        1.12637807647053
H            1.47047280619636        5.43653027735351        1.08655103580199
H            0.04868828412084        5.04703972359598        2.06032846065719
H           -0.04962193435716        6.44519925664438       -1.42486702655282
H           -0.21012713308600        4.87877263130785       -2.22660410581473
H            1.31891147897478        5.32826485479028       -1.46412323329467
H           -2.19341380659049        6.88267315619093        0.01715322625213
H           -4.62380060865133        6.51342631774966        0.22563486851946
H           -5.52471903885920        4.23172090313775        0.38868072933944
H           -4.03346228941791        2.29116661114971        0.31919788573255
H            2.20980044748427        3.39486312613088       -0.08836326943072
H            4.37060818015377        1.22323187782227       -0.00129265580757
H            5.17140352201891       -0.03952201702182       -2.35452155183098
H            6.39917326424708        1.58633023954220       -3.72708500986587
H            8.54067680084130        2.52379077932510       -2.92856833314800
H            9.43554760777226        1.82529217447492       -0.73475961855340
H            8.20090941220225        0.21430610612748        0.64960772147486
H            8.14149707173181       -2.19181557736676       -0.64246391638403
H            9.34825939820169       -3.83769773649666        0.72646297229733
H            8.48124606941624       -4.48391959351816        2.94707771774937
H            6.39664841480467       -3.46050114185769        3.78844155242733
H            5.19668428417757       -1.80078959926664        2.42960906866459
H            4.33317069047258       -3.05593600686396        0.07830049986494
H            1.87286209245480       -3.08762497574878        0.11412925134981
H           -0.65286613671977       -3.31009066764853        0.14968372340415
H           -3.07578924545881       -3.75167185589245        0.13934449946838
H           -7.05349599660765       -3.46544615300211        0.70556216012321
H           -7.90603655406843       -5.44110781741659       -0.48320081449193
H           -6.82580153735055       -6.19742375354726       -2.57171285019190
H           -4.89030465768846       -4.95075808549111       -3.46569791287380
H           -4.04655678214049       -2.96476593454711       -2.28927894328553
H           -4.63933700117113       -0.66334577063593        2.25215213233763
H           -6.19467576849175        0.93280418740824        3.28476023318405
H           -8.36221334185064        1.43106015144311        2.20932023150572
H           -8.95603565833232        0.31583779184323        0.08659157716265
H           -7.39201752291787       -1.26283929219935       -0.96188176686039
H           -3.91892356970415        0.42343798599862       -0.13846820706026

          :  Hamiltonian                  GFN2-xTB          :
         :: gradient norm              0.000038317614 Eh/a0 ::
         :: HOMO-LUMO gap              1.926109598427 eV    ::
         :: SCC energy              -139.492960099991 Eh    ::
         :: -> dispersion             -0.130899165639 Eh    ::
         :: repulsion energy           2.560349238178 Eh    ::

    * Orbital Energies and Occupations

         #    Occupation            Energy/Eh            Energy/eV
      -------------------------------------------------------------
         1        2.0000           -0.6820529             -18.5596
       ...           ...                  ...                  ...
       116        2.0000           -0.4051953             -11.0259
       117        2.0000           -0.4047635             -11.0142
       118        2.0000           -0.4042192             -10.9994
       119        2.0000           -0.4034650             -10.9788
       120        2.0000           -0.4023341             -10.9481
       121        2.0000           -0.4017257             -10.9315
       122        2.0000           -0.4014643             -10.9244
       123        2.0000           -0.3959196             -10.7735
       124        2.0000           -0.3866430             -10.5211
       125        2.0000           -0.3757012             -10.2234
       126        2.0000           -0.3676264             -10.0036
       127        2.0000           -0.3483731              -9.4797
       128        2.0000           -0.3395751              -9.2403 (HOMO)
       129                         -0.2687919              -7.3142 (LUMO)
       130                         -0.2338383              -6.3631
       131                         -0.2323312              -6.3221
       132                         -0.2279853              -6.2038
       133                         -0.2274555              -6.1894
       134                         -0.2239630              -6.0943
       135                         -0.2227182              -6.0605
       136                         -0.2203929              -5.9972
       137                         -0.2193304              -5.9683
       138                         -0.2187213              -5.9517
       139                         -0.2170735              -5.9069
       ...                                ...                  ...
       253                          0.7798203              21.2200
      -------------------------------------------------------------
                  HL-Gap            0.0707832 Eh            1.9261 eV

     #   Z          covCN         q      C6AA      α(0)
     1   6 C        3.759    -0.099    22.438     6.753
     2   6 C        3.936     0.019    20.194     6.386
     3   6 C        3.759    -0.098    22.429     6.752
     4   6 C        3.053    -0.000    27.988     8.676
     5   6 C        2.915    -0.034    28.849     8.808
     6   6 C        2.922    -0.033    28.810     8.802
     7   6 C        2.920    -0.033    28.831     8.805
     8   6 C        2.916    -0.035    28.860     8.809
     9   6 C        3.029     0.002    27.951     8.672
    10   6 C        3.047    -0.001    28.007     8.680
    11   6 C        3.049    -0.013    28.280     8.722
    12   6 C        2.927    -0.036    28.894     8.815
    13   6 C        3.031    -0.021    28.489     8.755
    14   6 C        3.107    -0.012    28.164     8.695
    15   6 C        2.914    -0.051    29.259     8.870
    16   6 C        2.923     0.057    26.723     8.477
    17   7 N        2.753    -0.077    22.726     7.080
    18   6 C        2.923     0.065    26.541     8.448
    19   6 C        2.922    -0.048    29.204     8.862
    20   6 C        2.919    -0.030    28.740     8.791
    21   6 C        2.919    -0.040    28.983     8.828
    22   6 C        2.919    -0.030    28.741     8.791
    23   6 C        2.922    -0.049    29.206     8.862
    24   6 C        2.924     0.065    26.544     8.449
    25   6 C        2.922    -0.048    29.200     8.862
    26   6 C        2.919    -0.030    28.740     8.791
    27   6 C        2.919    -0.039    28.977     8.827
    28   6 C        2.919    -0.030    28.740     8.791
    29   6 C        2.922    -0.048    29.204     8.862
    30   6 C        2.926    -0.050    29.252     8.870
    31   6 C        2.908    -0.047    29.154     8.854
    32   6 C        3.081     0.042    26.979     8.515
    33   7 N        2.836    -0.029    21.809     6.936
    34   6 C        3.084     0.041    26.981     8.515
    35   6 C        2.908    -0.047    29.165     8.855
    36   6 C        2.925    -0.051    29.268     8.872
    37   6 C        2.922     0.057    26.732     8.479
    38   7 N        2.753    -0.077    22.726     7.080
    39   6 C        2.923     0.065    26.543     8.449
    40   6 C        2.923    -0.048    29.192     8.860
    41   6 C        2.919    -0.030    28.737     8.791
    42   6 C        2.919    -0.039    28.971     8.827
    43   6 C        2.920    -0.030    28.740     8.791
    44   6 C        2.922    -0.048    29.199     8.861
    45   6 C        2.924     0.065    26.543     8.449
    46   6 C        2.922    -0.048    29.184     8.859
    47   6 C        2.919    -0.029    28.728     8.789
    48   6 C        2.919    -0.039    28.963     8.825
    49   6 C        2.919    -0.029    28.733     8.790
    50   6 C        2.922    -0.048    29.192     8.860
    51   6 C        2.917    -0.052    29.295     8.876
    52   6 C        3.106    -0.010    28.114     8.688
    53   6 C        3.014    -0.023    28.553     8.765
    54   6 C        3.453     0.032    22.404     7.151
    55   1 H        0.925     0.040     2.449     2.447
    56   1 H        0.925     0.040     2.448     2.447
    57   1 H        0.925     0.036     2.508     2.477
    58   1 H        0.925     0.040     2.447     2.446
    59   1 H        0.925     0.036     2.505     2.475
    60   1 H        0.925     0.040     2.447     2.446
    61   1 H        0.926     0.027     2.628     2.535
    62   1 H        0.926     0.028     2.609     2.526
    63   1 H        0.926     0.028     2.613     2.528
    64   1 H        0.926     0.033     2.547     2.496
    65   1 H        0.926     0.031     2.575     2.509
    66   1 H        0.926     0.036     2.496     2.471
    67   1 H        0.926     0.030     2.580     2.512
    68   1 H        0.926     0.030     2.585     2.514
    69   1 H        0.926     0.029     2.606     2.525
    70   1 H        0.926     0.030     2.585     2.514
    71   1 H        0.926     0.031     2.573     2.509
    72   1 H        0.926     0.031     2.570     2.507
    73   1 H        0.926     0.030     2.582     2.513
    74   1 H        0.926     0.029     2.602     2.523
    75   1 H        0.926     0.030     2.584     2.514
    76   1 H        0.926     0.030     2.580     2.512
    77   1 H        0.926     0.035     2.515     2.480
    78   1 H        0.926     0.033     2.539     2.492
    79   1 H        0.926     0.033     2.542     2.493
    80   1 H        0.926     0.035     2.519     2.482
    81   1 H        0.926     0.031     2.571     2.507
    82   1 H        0.926     0.031     2.579     2.511
    83   1 H        0.926     0.029     2.599     2.521
    84   1 H        0.926     0.030     2.582     2.513
    85   1 H        0.926     0.031     2.574     2.509
    86   1 H        0.926     0.031     2.571     2.508
    87   1 H        0.926     0.031     2.574     2.509
    88   1 H        0.926     0.029     2.601     2.522
    89   1 H        0.926     0.030     2.580     2.512
    90   1 H        0.926     0.031     2.575     2.509
    91   1 H        0.926     0.038     2.474     2.460

molecular dipole:
                 x           y           z       tot (Debye)
 q only:        0.055       0.244      -0.003
   full:        0.064       0.119      -0.002       0.344

 projected vibrational frequencies (cm⁻¹)
eigval :       -0.00    -0.00    -0.00     0.00     0.00     0.00
eigval :       12.29    13.05    15.34    22.99    24.26    31.34
eigval :       39.88    48.97    49.94    53.13    55.15    66.60
eigval :       78.44    80.17    83.13    92.16    92.99    95.03
eigval :      126.75   138.86   144.03   157.80   166.31   168.78
eigval :      199.29   206.41   215.29   216.48   221.27   233.54
eigval :      236.81   246.63   262.13   267.97   289.01   290.31
eigval :      310.99   312.59   320.76   325.47   332.93   345.83
eigval :      358.39   368.70   378.15   378.58   383.08   384.27
eigval :      389.82   399.92   410.00   412.29   436.87   450.57
eigval :      451.78   465.30   475.98   489.44   491.55   503.13
eigval :      507.68   514.56   544.54   548.59   552.07   565.21
eigval :      577.26   582.93   586.63   589.72   590.86   594.09
eigval :      603.39   613.92   616.88   630.53   636.12   653.99
eigval :      659.14   661.05   662.03   666.80   667.61   685.35
eigval :      686.66   697.42   706.92   707.55   720.29   725.47
eigval :      753.28   756.39   756.82   758.53   761.39   774.67
eigval :      780.44   812.44   816.38   847.16   855.12   856.85
eigval :      861.33   871.63   871.98   874.34   874.72   876.46
eigval :      876.62   890.33   891.43   892.74   893.43   901.55
eigval :      904.60   908.66   908.91   910.39   924.88   926.75
eigval :      927.03   927.44   928.22   928.24   928.81   929.11
eigval :      929.51   930.11   945.07   960.73   965.44   972.31
eigval :      975.48  1001.10  1003.59  1006.91  1012.76  1013.56
eigval :     1038.60  1067.03  1080.04  1083.43  1083.45  1084.36
eigval :     1084.45  1107.56  1114.41  1122.12  1122.27  1124.42
eigval :     1124.55  1130.12  1147.50  1154.40  1173.01  1178.16
eigval :     1178.23  1180.74  1180.82  1180.88  1180.90  1189.13
eigval :     1190.55  1196.05  1196.18  1200.81  1206.66  1213.36
eigval :     1228.14  1237.46  1248.46  1253.71  1265.60  1275.89
eigval :     1278.30  1278.87  1279.89  1281.98  1301.78  1309.81
eigval :     1312.74  1319.24  1321.34  1322.52  1325.95  1327.21
eigval :     1327.66  1328.19  1344.92  1360.69  1391.65  1396.02
eigval :     1400.23  1412.85  1419.49  1423.98  1428.71  1434.70
eigval :     1436.24  1443.50  1444.78  1446.47  1458.48  1461.88
eigval :     1471.34  1473.13  1473.85  1477.81  1479.47  1487.84
eigval :     1489.24  1498.07  1499.83  1505.13  1559.54  1564.99
eigval :     1575.92  1576.46  1580.61  1580.65  1582.31  1592.88
eigval :     1595.20  1595.50  1599.64  1600.09  1602.89  1609.17
eigval :     1611.44  1625.08  3029.65  3030.70  3033.49  3034.47
eigval :     3039.20  3040.84  3070.35  3074.52  3074.83  3074.89
eigval :     3075.32  3075.70  3076.02  3076.20  3076.22  3076.62
eigval :     3085.37  3085.39  3086.09  3086.14  3086.42  3087.32
eigval :     3087.76  3088.12  3088.45  3089.21  3089.29  3089.81
eigval :     3093.11  3096.35  3096.63  3096.89  3097.14  3098.87
eigval :     3101.31  3117.37  3125.25

   temp. (K)  partition function   enthalpy   heat capacity  entropy
                                   cal/mol     cal/K/mol   cal/K/mol   J/K/mol
 298.15  VIB  0.452E+20            25538.966    162.334    158.481
         ROT  0.134E+09              888.752      2.981     40.173
         INT  0.607E+28            26427.718    165.315    198.654
         TR   0.176E+29             1481.254      4.968     45.463
         TOT                       27908.9721   170.2832   244.1173  1021.3866

       T/K    H(0)-H(T)+PV         H(T)/Eh          T*S/Eh         G(T)/Eh
   ------------------------------------------------------------------------
    298.15    0.444758E-01    0.757617E+00    0.115988E+00    0.641629E+00
   ------------------------------------------------------------------------

         :::::::::::::::::::::::::::::::::::::::::::::::::::::
         ::                  THERMODYNAMIC                  ::
         :::::::::::::::::::::::::::::::::::::::::::::::::::::
         :: total free energy        -136.290981918976 Eh   ::
         ::.................................................::
         :: total energy             -136.932610861811 Eh   ::
         :: zero point energy           0.713141154776 Eh   ::
         :: G(RRHO) w/o ZPVE           -0.071512211941 Eh   ::
         :: G(RRHO) contrib.            0.641628942835 Eh   ::
         :::::::::::::::::::::::::::::::::::::::::::::::::::::

           -------------------------------------------------
          | TOTAL ENERGY             -136.932610861811 Eh   |
          | TOTAL ENTHALPY           -136.174993929005 Eh   |
          | TOTAL FREE ENERGY        -136.290981918976 Eh   |
          | GRADIENT NORM               0.000038308105 Eh/α |
          | HOMO-LUMO GAP               1.926109727006 eV   |
           -------------------------------------------------

 * finished run on 2025/09/11 at 03:55:39.179
