   * xtb version 6.7.1 (edcfbbe) compiled by 'albert@albert-system' on 2024-07-22

   ID    Z sym.   atoms
    1    6 C      1-16, 18-32, 34-37, 39-54
    2    7 N      17, 33, 38
    3    1 H      55-91

          program call               : xtb data2507/gas/IDFL-2DPA/IDFL-2DPA.xyz --gfn 2 --ohess vtight --parallel 40 --molden --ceasefiles --namespace data2507/gas/IDFL-2DPA/IDFL-2DPA_gas_S0_preOpt
          :  Hamiltonian                  GFN2-xTB          :
 * total energy  :  -136.8915242 Eh     change       -0.9126211E-09 Eh
 * total energy  :  -136.9180508 Eh     change       -0.2652661E-01 Eh
 * total energy  :  -136.9277774 Eh     change       -0.9726532E-02 Eh
 * total energy  :  -136.9302643 Eh     change       -0.2486967E-02 Eh
 * total energy  :  -136.9312541 Eh     change       -0.9897529E-03 Eh
 * total energy  :  -136.9316329 Eh     change       -0.3788100E-03 Eh
 * total energy  :  -136.9318519 Eh     change       -0.2189636E-03 Eh
 * total energy  :  -136.9320239 Eh     change       -0.1719912E-03 Eh
 * total energy  :  -136.9321693 Eh     change       -0.1454000E-03 Eh
 * total energy  :  -136.9322555 Eh     change       -0.8625754E-04 Eh
 * total energy  :  -136.9325957 Eh     change       -0.1673451E-05 Eh
 * total energy  :  -136.9325972 Eh     change       -0.1548537E-05 Eh
 * total energy  :  -136.9325987 Eh     change       -0.1425228E-05 Eh
 * total energy  :  -136.9325998 Eh     change       -0.1106195E-05 Eh
 * total energy  :  -136.9326005 Eh     change       -0.7470674E-06 Eh
 * total energy  :  -136.9326011 Eh     change       -0.6078082E-06 Eh
 * total energy  :  -136.9326016 Eh     change       -0.4676087E-06 Eh
 * total energy  :  -136.9326021 Eh     change       -0.4876492E-06 Eh
 * total energy  :  -136.9326021 Eh     change       -0.6803504E-08 Eh
   *** GEOMETRY OPTIMIZATION CONVERGED AFTER 44 ITERATIONS ***

 final structure:
================
91
 xtb: 6.7.1 (edcfbbe)
C            0.37770658516032        5.34225411212845        1.16369943965932
C           -0.24367511312260        4.62493295840712       -0.03918729925118
C            0.23766368405442        5.26167427458150       -1.34773477628293
C           -1.74881819180996        4.64013597076402        0.04662266404765
C           -2.59038645121667        5.73009795232291        0.09504636260157
C           -3.95756366360722        5.51941467249429        0.20795629000947
C           -4.46549921202650        4.23237884103424        0.28392457796703
C           -3.62518806219295        3.13325316075179        0.23035899803254
C           -2.25950785175349        3.33401134536374        0.09613826940396
C           -1.15106325272039        2.39681213787647        0.02772884812712
C            0.05879599960013        3.14041342524424       -0.01628614976641
C            1.34063128720475        2.60654529888047       -0.03122368848043
C            1.45473947782921        1.21871361836672        0.00327407007017
C            2.43509377053563        0.15096918404849        0.02543216368848
C            3.81757906541217        0.15061909600155        0.03476624934650
C            4.49594457554962       -1.06591570236023        0.05928921926792
N            5.89883001575779       -1.08664486646470        0.05975710674787
C            6.60481369322520       -0.17485947686897       -0.73002790623941
C            6.11173981315448        0.20926339266518       -1.97753502032250
C            6.80695754894897        1.11642687882321       -2.75264409446163
C            8.00487985440716        1.64989167910739       -2.30604435890469
C            8.50044185376210        1.27078696168520       -1.06920124084626
C            7.80822732006343        0.37112704600684       -0.28249984987836
C            6.57860814157748       -2.01079228869610        0.85811642857908
C            7.76673025619664       -2.59340151905010        0.41615150188286
C            8.43325256937558       -3.50503344942469        1.21109178893217
C            7.92657043939514       -3.85939525416322        2.45082133426608
C            6.74365446312692       -3.28928571786224        2.89193025924359
C            6.07415851632636       -2.37007483880141        2.10836903742045
C            3.78323076978007       -2.27014865886889        0.08117235804714
C            2.40132438894953       -2.29363858148943        0.08664966131466
C            1.72251846319132       -1.08958760784906        0.05562524238652
N            0.36632593745981       -0.81156276396654        0.04833797159284
C           -0.91683598087516       -1.32789170218793        0.04700544370774
C           -1.35493099644359       -2.63911094438338        0.06554377017013
C           -2.71471316226611       -2.88424085735044        0.04629328259083
C           -3.63713321222436       -1.83575120085360       -0.02765314060703
N           -5.01192250587594       -2.10495375868482       -0.06598934513635
C           -5.49477778609432       -3.20845634759659       -0.77565011936612
C           -6.59243082840267       -3.92655849740392       -0.30045559917633
C           -7.07038250262671       -5.01465306916909       -1.00380083721167
C           -6.46133353393464       -5.41136514115389       -2.18318552988029
C           -5.36833861503737       -4.70470377457296       -2.65739487221439
C           -4.88813337438449       -3.60984418712025       -1.96596065355327
C           -5.90382524642043       -1.23264676521595        0.56854702353674
C           -5.56725037287222       -0.63829257177103        1.78540969786404
C           -6.43773144294000        0.24324027812167        2.39535804601766
C           -7.66010073799657        0.53843597269109        1.81387744641394
C           -8.00449158289215       -0.05681432055159        0.61146721581494
C           -7.13563985299914       -0.93109107928434       -0.01217537322849
C           -3.19602003790930       -0.51457677012246       -0.05739657980462
C           -1.84384227334206       -0.23645349082621        0.01185224624054
C           -1.07423832721390        0.99908575599560        0.01667701254708
C            0.24080321475732        0.54272767597116        0.02074518215507
H            0.09038573886899        6.39101935313424        1.16778923617095
H            1.46250637719828        5.28043957784224        1.12500758817086
H            0.03642583799611        4.88492166034043        2.09000111456034
H           -0.04667610105283        6.31073045291622       -1.38344079988593
H           -0.20831599527497        4.75155364435867       -2.19894568836756
H            1.31971120869688        5.19140004220017       -1.42887885805139
H           -2.19794262917123        6.73583923992121        0.05171123506741
H           -4.62917180063441        6.36458287605643        0.24694436459204
H           -5.53024217487592        4.08156909566586        0.38879430974582
H           -4.03827448463349        2.14191503070370        0.31121796399739
H            2.20640126183691        3.25030922040698       -0.06271435242088
H            4.36789037144737        1.07940658051527        0.02291823671668
H            5.18271773853856       -0.21147576531857       -2.33359042428673
H            6.41384742906981        1.40230474738206       -3.71739395208671
H            8.54750059909782        2.35561223397508       -2.91657686129350
H            9.43026582223948        1.68617563711875       -0.70887485183578
H            8.19216835948672        0.08754517533164        0.68655059857456
H            8.15879715532065       -2.32816362911079       -0.55484916735425
H            9.35146112738256       -3.94914934286383        0.85535002142632
H            8.44915313415692       -4.57444755193325        3.06788250169558
H            6.34264125623858       -3.55571480854768        3.85897824376394
H            5.15707166818888       -1.92002615320822        2.45956059731945
H            4.33282696394812       -3.19950412042290        0.09352112685481
H            1.87138456453532       -3.23321937542720        0.10445717567215
H           -0.65306810552166       -3.45761782681138        0.10349865092016
H           -3.07645914727997       -3.90084990962459        0.07997014759770
H           -7.06329513381373       -3.62505043428554        0.62386986673587
H           -7.92018883944731       -5.56228795528616       -0.62332688075495
H           -6.83587900755123       -6.26422129027684       -2.72860865916414
H           -4.89049510782083       -5.00261754998206       -3.57928279666738
H           -4.04282437267229       -3.05412093267879       -2.34483466464565
H           -4.61817533419536       -0.87143533584607        2.24577231719013
H           -6.16146743218188        0.69818517038767        3.33530732178245
H           -8.33871863657066        1.22673532029718        2.29444438536033
H           -8.95356042593673        0.16982869502355        0.14801872725633
H           -7.40168649400538       -1.38183487423920       -0.95714040613283
H           -3.92216692522100        0.27619761707699       -0.14609714329799

          :  Hamiltonian                  GFN2-xTB          :
         :: gradient norm              0.000059130467 Eh/a0 ::
         :: HOMO-LUMO gap              1.924825721149 eV    ::
         :: SCC energy              -139.493145399236 Eh    ::
         :: -> dispersion             -0.130834418985 Eh    ::
         :: repulsion energy           2.560543313812 Eh    ::

    * Orbital Energies and Occupations

         #    Occupation            Energy/Eh            Energy/eV
      -------------------------------------------------------------
         1        2.0000           -0.6823471             -18.5676
       ...           ...                  ...                  ...
       116        2.0000           -0.4050564             -11.0221
       117        2.0000           -0.4047118             -11.0128
       118        2.0000           -0.4042100             -10.9991
       119        2.0000           -0.4033553             -10.9759
       120        2.0000           -0.4022303             -10.9452
       121        2.0000           -0.4017125             -10.9312
       122        2.0000           -0.4014484             -10.9240
       123        2.0000           -0.3960688             -10.7776
       124        2.0000           -0.3867154             -10.5231
       125        2.0000           -0.3758701             -10.2279
       126        2.0000           -0.3678188             -10.0089
       127        2.0000           -0.3483616              -9.4794
       128        2.0000           -0.3397744              -9.2457 (HOMO)
       129                         -0.2690384              -7.3209 (LUMO)
       130                         -0.2340658              -6.3693
       131                         -0.2325506              -6.3280
       132                         -0.2278651              -6.2005
       133                         -0.2273392              -6.1862
       134                         -0.2239970              -6.0953
       135                         -0.2225809              -6.0567
       136                         -0.2204372              -5.9984
       137                         -0.2192127              -5.9651
       138                         -0.2186351              -5.9494
       139                         -0.2172085              -5.9105
       ...                                ...                  ...
       253                          0.7796657              21.2158
      -------------------------------------------------------------
                  HL-Gap            0.0707361 Eh            1.9248 eV

     #   Z          covCN         q      C6AA      α(0)
     1   6 C        3.759    -0.099    22.438     6.753
     2   6 C        3.936     0.019    20.194     6.386
     3   6 C        3.759    -0.098    22.430     6.752
     4   6 C        3.053    -0.000    27.988     8.676
     5   6 C        2.915    -0.034    28.848     8.808
     6   6 C        2.922    -0.032    28.810     8.802
     7   6 C        2.920    -0.033    28.831     8.805
     8   6 C        2.916    -0.034    28.858     8.809
     9   6 C        3.029     0.002    27.951     8.672
    10   6 C        3.047    -0.001    28.006     8.679
    11   6 C        3.049    -0.012    28.278     8.721
    12   6 C        2.927    -0.036    28.893     8.815
    13   6 C        3.031    -0.021    28.488     8.755
    14   6 C        3.107    -0.012    28.162     8.695
    15   6 C        2.914    -0.050    29.252     8.869
    16   6 C        2.924     0.057    26.722     8.477
    17   7 N        2.753    -0.077    22.727     7.080
    18   6 C        2.923     0.065    26.541     8.448
    19   6 C        2.923    -0.049    29.206     8.862
    20   6 C        2.919    -0.030    28.739     8.791
    21   6 C        2.919    -0.040    28.984     8.828
    22   6 C        2.919    -0.030    28.741     8.791
    23   6 C        2.922    -0.049    29.208     8.863
    24   6 C        2.923     0.065    26.544     8.449
    25   6 C        2.922    -0.049    29.204     8.862
    26   6 C        2.920    -0.030    28.740     8.791
    27   6 C        2.919    -0.039    28.980     8.828
    28   6 C        2.919    -0.030    28.739     8.791
    29   6 C        2.923    -0.049    29.209     8.863
    30   6 C        2.926    -0.050    29.246     8.869
    31   6 C        2.908    -0.046    29.154     8.854
    32   6 C        3.081     0.042    26.976     8.515
    33   7 N        2.836    -0.029    21.808     6.936
    34   6 C        3.084     0.041    26.978     8.515
    35   6 C        2.908    -0.047    29.165     8.855
    36   6 C        2.925    -0.051    29.261     8.871
    37   6 C        2.922     0.057    26.731     8.479
    38   7 N        2.753    -0.077    22.727     7.080
    39   6 C        2.923     0.065    26.543     8.449
    40   6 C        2.923    -0.048    29.196     8.861
    41   6 C        2.919    -0.030    28.738     8.791
    42   6 C        2.919    -0.039    28.974     8.827
    43   6 C        2.920    -0.030    28.739     8.791
    44   6 C        2.922    -0.048    29.204     8.862
    45   6 C        2.924     0.065    26.543     8.449
    46   6 C        2.922    -0.048    29.186     8.859
    47   6 C        2.919    -0.029    28.727     8.789
    48   6 C        2.919    -0.039    28.964     8.825
    49   6 C        2.919    -0.029    28.734     8.790
    50   6 C        2.922    -0.048    29.194     8.861
    51   6 C        2.917    -0.052    29.287     8.874
    52   6 C        3.107    -0.009    28.112     8.687
    53   6 C        3.014    -0.023    28.552     8.765
    54   6 C        3.453     0.032    22.401     7.151
    55   1 H        0.925     0.040     2.448     2.447
    56   1 H        0.925     0.040     2.447     2.446
    57   1 H        0.925     0.036     2.508     2.477
    58   1 H        0.925     0.040     2.447     2.446
    59   1 H        0.925     0.036     2.505     2.475
    60   1 H        0.925     0.040     2.447     2.446
    61   1 H        0.926     0.027     2.627     2.535
    62   1 H        0.926     0.028     2.608     2.525
    63   1 H        0.926     0.028     2.612     2.527
    64   1 H        0.926     0.033     2.548     2.496
    65   1 H        0.926     0.031     2.573     2.509
    66   1 H        0.926     0.037     2.495     2.470
    67   1 H        0.926     0.030     2.583     2.513
    68   1 H        0.926     0.030     2.586     2.515
    69   1 H        0.926     0.029     2.607     2.525
    70   1 H        0.926     0.030     2.586     2.515
    71   1 H        0.926     0.031     2.572     2.508
    72   1 H        0.926     0.031     2.570     2.507
    73   1 H        0.926     0.030     2.583     2.513
    74   1 H        0.926     0.029     2.604     2.523
    75   1 H        0.926     0.030     2.585     2.514
    76   1 H        0.926     0.030     2.584     2.514
    77   1 H        0.926     0.035     2.513     2.479
    78   1 H        0.926     0.034     2.537     2.491
    79   1 H        0.926     0.033     2.540     2.492
    80   1 H        0.926     0.035     2.517     2.481
    81   1 H        0.926     0.031     2.571     2.508
    82   1 H        0.926     0.030     2.580     2.512
    83   1 H        0.926     0.029     2.601     2.522
    84   1 H        0.926     0.030     2.583     2.513
    85   1 H        0.926     0.031     2.577     2.510
    86   1 H        0.926     0.031     2.575     2.509
    87   1 H        0.926     0.031     2.575     2.509
    88   1 H        0.926     0.029     2.602     2.522
    89   1 H        0.926     0.030     2.581     2.512
    90   1 H        0.926     0.031     2.574     2.509
    91   1 H        0.926     0.038     2.473     2.459

molecular dipole:
                 x           y           z       tot (Debye)
 q only:        0.054       0.257      -0.001
   full:        0.063       0.133       0.001       0.375

 projected vibrational frequencies (cm⁻¹)
eigval :       -0.00    -0.00    -0.00     0.00     0.00     0.00
eigval :       12.08    12.88    15.19    22.83    24.02    31.15
eigval :       39.59    48.86    49.68    52.90    55.12    66.61
eigval :       78.71    80.21    83.12    92.06    93.23    95.13
eigval :      126.47   138.71   143.82   157.96   166.17   168.66
eigval :      199.25   206.26   215.33   216.38   221.08   233.26
eigval :      236.65   246.64   262.16   267.82   288.80   290.37
eigval :      310.95   312.61   320.66   325.53   332.59   346.34
eigval :      358.32   368.73   378.08   378.47   383.22   384.39
eigval :      389.33   399.73   409.72   412.19   437.09   450.72
eigval :      451.84   465.28   475.82   489.35   491.51   502.94
eigval :      507.31   514.46   544.54   548.50   552.07   564.82
eigval :      576.95   582.92   586.64   589.73   590.81   594.07
eigval :      603.58   614.17   617.06   630.97   636.23   654.08
eigval :      659.12   660.89   661.96   666.66   667.50   685.45
eigval :      686.77   697.55   706.91   707.60   720.31   725.46
eigval :      753.31   756.26   756.67   758.53   761.36   774.49
eigval :      780.37   812.30   816.32   847.16   854.77   856.59
eigval :      861.35   871.58   872.00   874.07   874.47   876.39
eigval :      876.54   890.04   891.12   892.75   893.32   901.41
eigval :      904.51   908.61   908.97   910.44   924.75   926.72
eigval :      926.91   927.33   928.08   928.13   928.63   928.89
eigval :      929.70   930.33   945.05   960.74   965.46   972.32
eigval :      975.48  1001.11  1003.59  1006.88  1012.76  1013.54
eigval :     1038.67  1066.99  1080.02  1083.51  1083.54  1084.41
eigval :     1084.49  1107.49  1114.32  1122.20  1122.34  1124.52
eigval :     1124.70  1130.07  1147.49  1153.91  1173.05  1178.12
eigval :     1178.20  1180.75  1180.84  1180.88  1180.91  1188.99
eigval :     1190.44  1196.14  1196.25  1200.92  1206.69  1213.30
eigval :     1228.12  1237.34  1248.21  1253.68  1265.58  1275.94
eigval :     1278.38  1278.93  1279.88  1282.03  1301.69  1309.65
eigval :     1312.75  1319.46  1321.65  1323.20  1326.27  1327.37
eigval :     1327.81  1328.31  1344.92  1360.68  1391.65  1396.03
eigval :     1400.03  1412.85  1419.48  1423.83  1428.66  1434.75
eigval :     1436.25  1443.57  1444.85  1446.51  1458.51  1461.87
eigval :     1471.39  1473.23  1473.94  1477.98  1479.56  1487.82
eigval :     1489.23  1498.05  1499.84  1505.14  1559.56  1565.11
eigval :     1575.91  1576.46  1580.62  1580.67  1582.34  1592.88
eigval :     1595.30  1595.58  1599.76  1600.19  1602.91  1609.21
eigval :     1611.29  1625.28  3029.69  3030.78  3033.57  3034.47
eigval :     3039.24  3040.90  3070.46  3074.48  3074.81  3074.84
eigval :     3075.32  3075.67  3076.02  3076.18  3076.31  3076.63
eigval :     3085.39  3085.43  3086.08  3086.17  3086.51  3087.30
eigval :     3087.85  3088.11  3088.43  3089.23  3089.33  3089.75
eigval :     3093.01  3096.34  3096.66  3096.89  3097.18  3098.82
eigval :     3101.29  3117.29  3125.34

   temp. (K)  partition function   enthalpy   heat capacity  entropy
                                   cal/mol     cal/K/mol   cal/K/mol   J/K/mol
 298.15  VIB  0.490E+20            25544.108    162.321    158.552
         ROT  0.134E+09              888.752      2.981     40.171
         INT  0.657E+28            26432.860    165.302    198.723
         TR   0.176E+29             1481.254      4.968     45.463
         TOT                       27914.1138   170.2703   244.1857  1021.6730

       T/K    H(0)-H(T)+PV         H(T)/Eh          T*S/Eh         G(T)/Eh
   ------------------------------------------------------------------------
    298.15    0.444840E-01    0.757613E+00    0.116021E+00    0.641593E+00
   ------------------------------------------------------------------------

         :::::::::::::::::::::::::::::::::::::::::::::::::::::
         ::                  THERMODYNAMIC                  ::
         :::::::::::::::::::::::::::::::::::::::::::::::::::::
         :: total free energy        -136.291009280053 Eh   ::
         ::.................................................::
         :: total energy             -136.932602085423 Eh   ::
         :: zero point energy           0.713129340621 Eh   ::
         :: G(RRHO) w/o ZPVE           -0.071536535251 Eh   ::
         :: G(RRHO) contrib.            0.641592805370 Eh   ::
         :::::::::::::::::::::::::::::::::::::::::::::::::::::

           -------------------------------------------------
          | TOTAL ENERGY             -136.932602085423 Eh   |
          | TOTAL ENTHALPY           -136.174988772874 Eh   |
          | TOTAL FREE ENERGY        -136.291009280053 Eh   |
          | GRADIENT NORM               0.000059131642 Eh/α |
          | HOMO-LUMO GAP               1.924826100291 eV   |
           -------------------------------------------------

 * finished run on 2025/09/11 at 03:47:01.449
