   * xtb version 6.7.1 (edcfbbe) compiled by 'albert@albert-system' on 2024-07-22

   ID    Z sym.   atoms
    1    6 C      1-9, 11-19, 21-39, 41-43, 45-60, 62, 63, 65-71
    2    7 N      10, 20, 40, 44, 64
    3   35 Br     61
    4    1 H      72-121

          program call               : xtb data2507/gas/3DMAC-BP-Br/3DMAC-BP-Br_gas_T1_crest.xyz --gfn 2 --spinpol --tblite --uhf 2 --ohess vtight --parallel 40 --molden --ceasefiles --namespace data2507/gas/3DMAC-BP-Br/3DMAC-BP-Br_gas_T1_finalOpt
 * total energy  :  -183.5103333 Eh     change       -0.1861329E-07 Eh
 * total energy  :  -183.5103559 Eh     change       -0.2261583E-04 Eh
 * total energy  :  -183.5103623 Eh     change       -0.6445558E-05 Eh
 * total energy  :  -183.5103642 Eh     change       -0.1918676E-05 Eh
 * total energy  :  -183.5103662 Eh     change       -0.1958697E-05 Eh
 * total energy  :  -183.5103665 Eh     change       -0.3054256E-06 Eh
 * total energy  :  -183.5103676 Eh     change       -0.1084340E-05 Eh
 * total energy  :  -183.5103693 Eh     change       -0.1719377E-05 Eh
 * total energy  :  -183.5103705 Eh     change       -0.1226033E-05 Eh
 * total energy  :  -183.5103717 Eh     change       -0.1177120E-05 Eh
 * total energy  :  -183.5103877 Eh     change       -0.5444383E-06 Eh
 * total energy  :  -183.5103882 Eh     change       -0.4775930E-06 Eh
 * total energy  :  -183.5103887 Eh     change       -0.5302558E-06 Eh
 * total energy  :  -183.5103895 Eh     change       -0.7691127E-06 Eh
 * total energy  :  -183.5103902 Eh     change       -0.7580686E-06 Eh
 * total energy  :  -183.5103911 Eh     change       -0.8847128E-06 Eh
 * total energy  :  -183.5103919 Eh     change       -0.7313087E-06 Eh
 * total energy  :  -183.5103925 Eh     change       -0.6870018E-06 Eh
 * total energy  :  -183.5103926 Eh     change       -0.2630310E-07 Eh
   *** GEOMETRY OPTIMIZATION CONVERGED AFTER 44 ITERATIONS ***

 final structure:
================
121
 xtb: 6.7.1 (edcfbbe)
C           -8.60274266382999       -4.02364108905782       -0.21847127709779
C           -7.24698197385184       -4.72016811247651        0.00104476258752
C           -7.45425873965049       -6.22829496886791        0.23287402837738
C           -6.39910241315968       -4.53111521650780       -1.24151901311738
C           -6.85432125765439       -5.01058368266067       -2.46191431192460
C           -6.12802397991398       -4.85525915756951       -3.62817129916817
C           -4.91245701170670       -4.19474205935259       -3.58748744137523
C           -4.43525159634302       -3.70917730978734       -2.38936656074381
C           -5.16136548513314       -3.87802103848638       -1.20526714480499
N           -4.65265657356006       -3.38396588910460       -0.01758408728444
C           -3.36008468449316       -2.78786464398730       -0.01961383759076
C           -2.22324011270916       -3.60680125881501       -0.00396437962262
C           -0.98229440729953       -3.03002767136929       -0.00192209441310
C           -0.83327460310476       -1.63317731540191       -0.01027988807153
C           -1.97645032817524       -0.79880831529391       -0.02570209165972
C           -3.23488944287098       -1.41602520351332       -0.03343372169200
C           -1.80781675470240        0.63431397382442       -0.03069863431765
C           -2.88864806161839        1.52668554675704       -0.04389517157170
C           -2.69214039312208        2.89020493247700       -0.03967618616266
N           -3.81109376807734        3.76985430975491       -0.04407802039030
C           -4.18918011089353        4.36227302772908       -1.23559981411129
C           -3.51752624511536        4.02635768601602       -2.41620704498371
C           -3.86684255896469        4.60332442174285       -3.61792789308388
C           -4.89858648605264        5.52452847270837       -3.66592383112566
C           -5.57360572352133        5.84711731021227       -2.50314162110924
C           -5.24401673388085        5.28160462481235       -1.27919548483064
C           -6.02961738833168        5.66584242757458       -0.04069378805786
C           -7.50815583907329        5.29682100443435       -0.26221209878204
C           -5.88696487244358        7.18257774091053        0.18369585680297
C           -5.52722793871771        4.94499266144340        1.19506969222705
C           -6.13600185839503        5.18101897540754        2.41994337334734
C           -5.71025434331891        4.56463060504033        3.58200598252370
C           -4.63893151539719        3.68996983419384        3.53198727909788
C           -4.01520847874730        3.43674620786905        2.32953760494737
C           -4.45227664260384        4.04900320073312        1.14977662258846
C           -1.39624532519839        3.42293718123969       -0.02831499685754
C           -0.32303749141617        2.57395411076947       -0.02143308625420
C           -0.50222335113036        1.18063023202898       -0.02028582014319
C            0.64888263290602        0.33303348583660       -0.00708119548188
N            1.87177467422015        0.85889638522806        0.00008871929400
C            2.95171030608061        0.07475070736886        0.00866247791693
C            4.24170546635691        0.60340115262614        0.01405683400001
C            5.35408898717784       -0.22710558602870        0.02501202530264
N            6.66453536402836        0.31835487952247        0.02918276611367
C            7.30992651961233        0.50882116572335       -1.17913374704074
C            6.60393589789247        0.32728275402920       -2.37309198093344
C            7.22128238238622        0.50377065779399       -3.59195258093016
C            8.55679537015114        0.86463117463678       -3.64079476756394
C            9.25542397294859        1.04668519697170       -2.46153093454291
C            8.65895311488506        0.87977953120616       -1.21963840684112
C            9.47807325008160        1.07303234321085        0.04057840205256
C           10.59991696429800        0.01790779815434        0.05411535571613
C           10.07476310462073        2.49233062303203        0.03465302721015
C            8.64425938616163        0.89651505299085        1.29360179472792
C            9.22613612531837        1.08022863080461        2.54003715845041
C            8.51378041209617        0.91378530651733        3.71338147958316
C            7.17900827781355        0.55178437016760        3.65377808973454
C            6.57596604777387        0.35884631883213        2.43025541685779
C            7.29580340727432        0.52479698489451        1.24231610839897
C            5.17497748769867       -1.60883562376828        0.03164369228740
Br           6.71256983455142       -2.73228690136212        0.04701332769739
C            3.91340064749087       -2.17484565015405        0.02699687716282
C            2.78269370748936       -1.35819514916675        0.01491836388965
N            1.55063501378831       -1.87056744637582        0.01121436820063
C            0.48301775348148       -1.07567082298877       -0.00169879918727
C           -5.33671626682969       -3.50262954613216        1.17913999219878
C           -4.76706454100186       -3.00061511497723        2.35441928065357
C           -5.42823893346404       -3.09792039388293        3.55955413587817
C           -6.67125701266344       -3.70369930416234        3.61682550043159
C           -7.23087492454562       -4.21202140739352        2.45923119168100
C           -6.58842255641425       -4.12788438692220        1.23171420430057
H           -8.44934892253883       -2.95869364446507       -0.38305221620318
H           -9.11407836682217       -4.43420527593347       -1.08459209510246
H           -9.24726497229598       -4.14752429346400        0.64724952458871
H           -8.07292562123585       -6.40488509337643        1.10828227382958
H           -6.49292722921713       -6.71452431444329        0.38818335811771
H           -7.93727797787769       -6.68948487620032       -0.62403209359862
H           -7.80388246302838       -5.52169144796800       -2.51074638071131
H           -6.51082323620537       -5.24252496266582       -4.55994455806711
H           -4.33455642752667       -4.05525420602044       -4.48869623583451
H           -3.48987283663293       -3.18963718623976       -2.36367721071853
H           -2.34355618915586       -4.67944745999289        0.00522843184852
H           -0.08578758284552       -3.63012840614382        0.01071545414178
H           -4.13845912180518       -0.82707357391605       -0.04477806555964
H           -3.90421965370553        1.16344109856012       -0.05213728045042
H           -2.71665597199555        3.30389797396564       -2.38507131438330
H           -3.33337118668566        4.33119148737221       -4.51625539209558
H           -5.17962457772633        5.98507109613681       -4.60061250620939
H           -6.38079606702543        6.56179654915162       -2.55763285737311
H           -8.10963053514359        5.57014264983181        0.60020601539816
H           -7.60215329271630        4.22407157563317       -0.42060864807013
H           -7.90948538802685        5.80829519560482       -1.13257698943418
H           -6.24977056677020        7.73766235062414       -0.67685361138106
H           -4.84021654182564        7.43676661113567        0.34001906081458
H           -6.45074595796566        7.50053911861333        1.05623240986702
H           -6.96716912540924        5.86752873990520        2.47599262217209
H           -6.20746257443203        4.77025736813884        4.51753785721900
H           -4.28558710171005        3.20483235256759        4.42944359122311
H           -3.17544366990637        2.76002314793109        2.29805140180032
H           -1.26434219839414        4.49429870795478       -0.02642053226004
H            0.68830416029671        2.94966228458625       -0.01206300939850
H            4.37098961359867        1.67406395672983        0.00869035198207
H            5.56257095709033        0.04538475010694       -2.33896844532409
H            6.65953931746066        0.35703357020840       -4.50212068875025
H            9.05250592275497        1.00078797046849       -4.58974527192883
H           10.29791081781124        1.32069845434405       -2.51751044210966
H           10.16604315957768       -0.98020927350175        0.05758763995151
H           11.22108831296266        0.12601275368523        0.93904448080773
H           11.23211167387995        0.11510428994242       -0.82424933461288
H           10.68717026035197        2.66040729113391        0.91577146552508
H           10.69599142123962        2.64938408220629       -0.84231423849103
H            9.27475213603760        3.23039232538281        0.02600192908530
H           10.26785918333923        1.35527815129101        2.60451536668002
H            8.99832024725197        1.06284521588920        4.66615592202534
H            6.60670400435082        0.41701213275596        4.55920423092344
H            5.53513320919977        0.07613317179556        2.38773076223529
H            3.78487377162904       -3.24498722457336        0.03170433029593
H           -3.79475248247797       -2.53439806258994        2.31729136067989
H           -4.97020465643192       -2.70197677844523        4.45344926718320
H           -7.19911278744343       -3.78529916075921        4.55459666979700
H           -8.19693916202552       -4.68968641120423        2.52102616140939

 projected vibrational frequencies (cm⁻¹)
eigval :       -0.00    -0.00     0.00     0.00     0.00     0.00
eigval :        0.38     4.34     6.03     9.22    12.33    12.74
eigval :       15.74    18.96    24.83    34.26    35.56    36.32
eigval :       46.82    64.86    68.52    80.43    85.84    90.20
eigval :       94.63    95.39    95.98    96.91   100.05   101.65
eigval :      113.92   123.81   127.61   129.03   129.09   129.76
eigval :      146.72   148.76   162.27   190.91   191.01   192.82
eigval :      196.61   207.63   212.82   218.71   218.99   219.59
eigval :      229.30   231.98   236.13   238.65   250.07   259.06
eigval :      264.17   295.11   302.44   303.59   305.12   313.11
eigval :      328.35   329.62   329.87   330.75   332.54   344.27
eigval :      344.82   349.52   352.61   355.47   376.98   377.92
eigval :      380.00   385.49   387.15   394.45   399.05   410.29
eigval :      411.40   419.63   431.50   435.15   439.10   442.44
eigval :      450.15   450.70   450.90   466.78   472.95   478.66
eigval :      497.77   503.65   511.04   512.31   512.55   512.71
eigval :      532.68   542.15   543.94   545.13   546.12   546.27
eigval :      546.27   549.42   553.37   578.93   584.74   585.79
eigval :      586.46   593.00   600.52   605.64   607.75   627.42
eigval :      630.77   650.63   651.32   654.26   655.20   662.64
eigval :      683.88   683.91   684.77   686.54   690.19   691.55
eigval :      695.38   695.53   696.93   700.49   712.84   725.36
eigval :      726.47   747.46   774.48   775.11   775.63   776.04
eigval :      776.71   777.08   802.82   810.74   815.90   818.78
eigval :      819.03   825.77   828.25   828.65   837.35   858.93
eigval :      860.83   866.19   866.44   866.78   866.80   867.02
eigval :      867.29   872.54   900.22   913.05   913.41   913.51
eigval :      913.59   913.80   914.23   914.30   915.40   915.91
eigval :      916.86   917.02   921.12   921.14   921.27   921.29
eigval :      921.44   921.47   938.06   938.17   938.51   957.30
eigval :      957.34   958.79   960.18   998.69  1003.23  1013.91
eigval :     1013.93  1014.34  1039.77  1063.97  1076.97  1077.04
eigval :     1077.16  1085.30  1086.56  1090.55  1109.95  1110.95
eigval :     1111.85  1116.85  1117.66  1117.69  1140.24  1140.30
eigval :     1140.61  1140.86  1142.56  1157.08  1157.91  1158.00
eigval :     1163.82  1167.91  1169.11  1183.57  1186.02  1186.29
eigval :     1186.45  1186.56  1186.59  1186.93  1190.53  1191.71
eigval :     1195.26  1220.32  1223.94  1238.17  1241.20  1242.26
eigval :     1245.96  1247.62  1247.95  1248.00  1259.76  1262.87
eigval :     1264.87  1265.75  1275.96  1282.53  1285.09  1294.71
eigval :     1294.74  1295.16  1299.81  1310.19  1313.46  1315.50
eigval :     1324.96  1325.06  1325.53  1334.79  1334.99  1335.57
eigval :     1336.53  1338.20  1338.95  1340.02  1351.56  1364.44
eigval :     1399.82  1401.51  1402.17  1402.21  1402.42  1412.45
eigval :     1419.41  1420.17  1420.28  1423.96  1434.75  1435.14
eigval :     1436.07  1436.38  1439.01  1439.50  1459.37  1468.08
eigval :     1469.15  1470.77  1471.28  1480.63  1482.80  1488.07
eigval :     1488.64  1488.78  1488.79  1488.96  1489.95  1490.04
eigval :     1491.69  1493.17  1499.70  1499.72  1500.23  1502.57
eigval :     1503.60  1503.67  1514.82  1521.16  1535.57  1567.62
eigval :     1569.15  1569.40  1574.58  1580.77  1582.04  1584.65
eigval :     1586.31  1586.76  1587.96  1588.14  1596.25  1598.47
eigval :     1598.82  3027.01  3027.13  3027.46  3029.05  3029.16
eigval :     3032.30  3040.49  3040.55  3040.57  3043.01  3043.12
eigval :     3044.70  3048.38  3049.54  3049.59  3052.90  3053.33
eigval :     3055.35  3080.46  3080.58  3080.63  3080.77  3081.18
eigval :     3081.29  3084.96  3085.11  3085.20  3085.28  3085.83
eigval :     3085.93  3090.57  3091.06  3094.61  3094.87  3095.71
eigval :     3095.83  3095.88  3096.31  3097.70  3100.46  3100.57
eigval :     3102.22  3102.69  3102.75  3103.84  3104.17  3104.47
eigval :     3104.76  3108.25  3111.63

   temp. (K)  partition function   enthalpy   heat capacity  entropy
                                   cal/mol     cal/K/mol   cal/K/mol   J/K/mol
 298.15  VIB  0.321E+29            35521.309    222.841    222.210
         ROT  0.371E+09              888.752      2.981     42.194
         INT  0.119E+38            36410.061    225.822    264.405
         TR   0.297E+29             1481.254      4.968     46.503
         TOT                       37891.3152   230.7900   310.9079  1300.8387

       T/K    H(0)-H(T)+PV         H(T)/Eh          T*S/Eh         G(T)/Eh
   ------------------------------------------------------------------------
    298.15    0.603837E-01    0.100680E+01    0.147722E+00    0.859082E+00
   ------------------------------------------------------------------------

         :::::::::::::::::::::::::::::::::::::::::::::::::::::
         ::                  THERMODYNAMIC                  ::
         :::::::::::::::::::::::::::::::::::::::::::::::::::::
         :: total free energy        -182.651310090767 Eh   ::
         ::.................................................::
         :: total energy             -183.510392541823 Eh   ::
         :: zero point energy           0.946421175701 Eh   ::
         :: G(RRHO) w/o ZPVE           -0.087338724644 Eh   ::
         :: G(RRHO) contrib.            0.859082451057 Eh   ::
         :::::::::::::::::::::::::::::::::::::::::::::::::::::

           -------------------------------------------------
          | TOTAL ENERGY             -183.510392541823 Eh   |
          | TOTAL ENTHALPY           -182.503587711693 Eh   |
          | TOTAL FREE ENERGY        -182.651310090767 Eh   |
          | GRADIENT NORM               0.000066596130 Eh/α |
           -------------------------------------------------

 * finished run on 2025/07/17 at 19:57:58.981
