   * xtb version 6.7.1 (edcfbbe) compiled by 'albert@albert-system' on 2024-07-22

   ID    Z sym.   atoms
    1    6 C      1-9, 11-19, 21-39, 41-43, 45-60, 62, 63, 65-71
    2    7 N      10, 20, 40, 44, 64
    3   35 Br     61
    4    1 H      72-121

          program call               : xtb data2507/gas/3DMAC-BP-Br/3DMAC-BP-Br_gas_S0_crest.xyz --gfn 2 --ohess vtight --parallel 40 --molden --ceasefiles --namespace data2507/gas/3DMAC-BP-Br/3DMAC-BP-Br_gas_S0_finalOpt
          :  Hamiltonian                  GFN2-xTB          :
 * total energy  :  -183.5482166 Eh     change       -0.3585598E-08 Eh
 * total energy  :  -183.5482178 Eh     change       -0.1206392E-05 Eh
 * total energy  :  -183.5482196 Eh     change       -0.1839895E-05 Eh
 * total energy  :  -183.5482232 Eh     change       -0.3617193E-05 Eh
 * total energy  :  -183.5482272 Eh     change       -0.3948050E-05 Eh
 * total energy  :  -183.5482299 Eh     change       -0.2727212E-05 Eh
 * total energy  :  -183.5482320 Eh     change       -0.2125110E-05 Eh
 * total energy  :  -183.5482343 Eh     change       -0.2216410E-05 Eh
 * total energy  :  -183.5482365 Eh     change       -0.2206699E-05 Eh
 * total energy  :  -183.5482380 Eh     change       -0.1504097E-05 Eh
 * total energy  :  -183.5482544 Eh     change       -0.2709886E-06 Eh
 * total energy  :  -183.5482547 Eh     change       -0.3556066E-06 Eh
 * total energy  :  -183.5482551 Eh     change       -0.4065212E-06 Eh
 * total energy  :  -183.5482555 Eh     change       -0.3596477E-06 Eh
 * total energy  :  -183.5482558 Eh     change       -0.2990320E-06 Eh
 * total energy  :  -183.5482561 Eh     change       -0.2748364E-06 Eh
 * total energy  :  -183.5482564 Eh     change       -0.3207717E-06 Eh
 * total energy  :  -183.5482568 Eh     change       -0.4184155E-06 Eh
 * total energy  :  -183.5482568 Eh     change       -0.3884594E-08 Eh
   *** GEOMETRY OPTIMIZATION CONVERGED AFTER 44 ITERATIONS ***

 final structure:
================
121
 xtb: 6.7.1 (edcfbbe)
C           -8.56037653679179       -4.05637801583714       -0.61156011166402
C           -7.24184011575427       -4.66317570965607       -0.09762998457372
C           -7.48642769058334       -6.07644527113832        0.46207073363283
C           -6.27192585976392       -4.75786414698299       -1.25876293704940
C           -6.62142254888433       -5.50102315105830       -2.37848246135509
C           -5.80047252267401       -5.59046619798829       -3.48655880854519
C           -4.60287811626479       -4.89877086638709       -3.49564981633595
C           -4.22963070321414       -4.15746123947625       -2.39476376244232
C           -5.03804833105914       -4.10028607320752       -1.25525342428259
N           -4.62463104377489       -3.36020984580772       -0.15394482058896
C           -3.33323763246782       -2.78358492512182       -0.16147955506587
C           -2.20088394923147       -3.60263689465432       -0.15065668340263
C           -0.95363633824977       -3.02923480301866       -0.13962966090629
C           -0.80142813851003       -1.63868016213660       -0.12506505695447
C           -1.93453746918672       -0.80062213662503       -0.13457131505336
C           -3.19259623555580       -1.40615706366266       -0.16516811705047
C           -1.76901228453080        0.64530736426510       -0.08624018481566
C           -2.85744171004876        1.52028113336047       -0.08685208046479
C           -2.68501610207692        2.89053105557813        0.01275759508328
N           -3.81312689425336        3.74282997880303        0.04108982717798
C           -4.01180702296647        4.63160991104526       -1.00900889180657
C           -3.17012620834230        4.58622289391853       -2.12476767114660
C           -3.32855640269775        5.46831884747681       -3.17243160659016
C           -4.34171083541515        6.40891506569103       -3.13392249675540
C           -5.20252754829608        6.42715785708306       -2.05302661575834
C           -5.06834345641511        5.54716690248182       -0.98724572666641
C           -6.07936557561464        5.58864641504671        0.14142374858764
C           -7.47773804726735        5.32605099129881       -0.44730028917605
C           -6.03038643408891        6.97814239289985        0.80268044776966
C           -5.78783958173975        4.54286941623333        1.19995912925408
C           -6.63027115893683        4.44047716997993        2.29921077717487
C           -6.40056208304431        3.53911146290477        3.32102513511123
C           -5.28101567022903        2.72960867393486        3.26431438758081
C           -4.42703726889521        2.81224906990825        2.18509573768246
C           -4.67888902894029        3.69313646959624        1.12847951271503
C           -1.39806713500649        3.42913783579107        0.09661409366273
C           -0.31218594421286        2.58949258702240        0.07435669928280
C           -0.47668535991965        1.20303802603148       -0.01350864892826
C            0.68746997330402        0.34919876246398       -0.02389344098331
N            1.88622369995715        0.89987583225842        0.02374219636590
C            2.95146688245478        0.08751861946090        0.01220592669330
C            4.24970442579535        0.63287771826852        0.07455870349471
C            5.34915966666251       -0.18450964999539        0.06022637422878
N            6.65732141799584        0.34280597192221        0.12057301818273
C            7.25072518555767        0.83751527892867       -1.03485788331426
C            6.50008329844933        0.95169578858989       -2.20695240286809
C            7.06722084880631        1.43572337040671       -3.36716460258406
C            8.39857961892107        1.80836823229921       -3.37797537731770
C            9.14581964335142        1.68146088331457       -2.22201852365704
C            8.60041617599099        1.20054676379967       -1.03932454992030
C            9.48533300193053        1.05145679821616        0.18367817418616
C           10.58227138164489        0.01961388650394       -0.13603032953626
C           10.11153133548979        2.41770138541697        0.51624341717218
C            8.70910017966529        0.56418210968010        1.39131042187603
C            9.35332823731129        0.42116826937799        2.61248796737902
C            8.69161274533135       -0.01673045014582        3.74458256379400
C            7.34272124369436       -0.31125625678759        3.67039523783734
C            6.67884667944714       -0.18039815006403        2.46889109436464
C            7.35308082189058        0.23848783246888        1.31936116596698
C            5.16932268457140       -1.59010803230092       -0.02467671885395
Br           6.71820378877090       -2.68810349365733       -0.09375390079036
C            3.92963975358365       -2.15726222823106       -0.07978135168838
C            2.78869933868983       -1.32825881572012       -0.05699652364223
N            1.56859370168870       -1.87852806728270       -0.10542872214287
C            0.52505257667188       -1.07031546660460       -0.08666748672058
C           -5.43431809201145       -3.20360786397644        0.96585364656875
C           -4.97066470337431       -2.48209619501832        2.07048220363025
C           -5.76176317611051       -2.29582824344703        3.18416126944317
C           -7.03156437034583       -2.84138361660404        3.22679186886000
C           -7.47759146241637       -3.58985348720047        2.15429261931672
C           -6.70270621468357       -3.79116271984567        1.01961319070746
H           -8.37899241278615       -3.05808753023546       -1.00566033442825
H           -8.98599662298837       -4.66526586690521       -1.40410591354830
H           -9.29205522762962       -3.98154487806887        0.18790590158034
H           -8.19375505778635       -6.05075869414853        1.28637025219126
H           -6.55088537809659       -6.49728425480870        0.82606559806307
H           -7.88240067964261       -6.73454557345786       -0.30642284782921
H           -7.56384605617785       -6.02717731199981       -2.39213590921114
H           -6.10048186472377       -6.18166810015302       -4.33810449205048
H           -3.95740680275005       -4.93069199664931       -4.36061142406355
H           -3.30128838985636       -3.60808012330451       -2.42097498346928
H           -2.32106271737664       -4.67543691793346       -0.14765369609760
H           -0.06083824689431       -3.63381417453225       -0.12654167029581
H           -4.09283917717558       -0.81271418398995       -0.18005331918578
H           -3.86701142794067        1.14802536852590       -0.15740624845319
H           -2.38706099414473        3.84564300749726       -2.17550438530699
H           -2.66087916652828        5.41537851159483       -4.01932098825565
H           -4.47114140803496        7.11128850203066       -3.94297879139085
H           -6.00386100538838        7.15032485957764       -2.04522362595455
H           -8.23847354791848        5.35744182448434        0.32755895957570
H           -7.50357425417750        4.34319146254029       -0.91433638988146
H           -7.72907845210401        6.06895353841820       -1.19894822797042
H           -6.24158961516304        7.75993977939952        0.07836423811168
H           -5.04064985586518        7.15465204685957        1.21992990795775
H           -6.75848262768145        7.05203662369928        1.60569329756212
H           -7.49291087706368        5.08574856513623        2.36674340565588
H           -7.07978622947723        3.48148114801838        4.15763097655794
H           -5.06520393287676        2.03455800803952        4.06186249913518
H           -3.54579562137137        2.19025917454119        2.16819091342967
H           -1.27383361014931        4.49844407013058        0.17758191791615
H            0.69318332559884        2.97443906127127        0.13645724442517
H            4.36349275500235        1.70427706913787        0.13295169517122
H            5.46233751745039        0.65407146962281       -2.21194799972608
H            6.46685076099298        1.51600064067717       -4.26102111086484
H            8.85521513731160        2.18645480092529       -4.27982299408310
H           10.18817797052763        1.96016844409857       -2.25001056937751
H           10.12785365459117       -0.94359476052636       -0.36068328224199
H           11.25192104358767       -0.10641197985826        0.71042632903345
H           11.16933742979542        0.33190858582674       -0.99549184045174
H           10.76657493992670        2.34604275850874        1.37967744117276
H           10.69610648168308        2.79241827636301       -0.31898116216189
H            9.32783143283348        3.13969312542686        0.73868093218953
H           10.40531861670186        0.65070538126899        2.68729923290725
H            9.22495760334265       -0.12240109103653        4.67684449290304
H            6.80351795762766       -0.64285736937287        4.54508311941333
H            5.62277468067296       -0.40317083899828        2.42065745614946
H            3.79444113109831       -3.22499668517942       -0.14789523566804
H           -3.97396371728230       -2.06944970594392        2.06341022028051
H           -5.37989683507073       -1.72798124169238        4.01934708222237
H           -7.66294383635425       -2.69955509568959        4.09040909281562
H           -8.46028981654958       -4.03294572881598        2.20954480830315

          :  Hamiltonian                  GFN2-xTB          :
         :: gradient norm              0.000043910600 Eh/a0 ::
         :: HOMO-LUMO gap              0.893528606089 eV    ::
         :: SCC energy              -186.784366755249 Eh    ::
         :: -> dispersion             -0.184116878001 Eh    ::
         :: repulsion energy           3.236109949385 Eh    ::

    * Orbital Energies and Occupations

         #    Occupation            Energy/Eh            Energy/eV
      -------------------------------------------------------------
         1        2.0000           -0.8399904             -22.8573
       ...           ...                  ...                  ...
       159        2.0000           -0.4026363             -10.9563
       160        2.0000           -0.4023696             -10.9490
       161        2.0000           -0.4000060             -10.8847
       162        2.0000           -0.3997685             -10.8783
       163        2.0000           -0.3988410             -10.8530
       164        2.0000           -0.3970295             -10.8037
       165        2.0000           -0.3946616             -10.7393
       166        2.0000           -0.3944482             -10.7335
       167        2.0000           -0.3917080             -10.6589
       168        2.0000           -0.3633441              -9.8871
       169        2.0000           -0.3503057              -9.5323
       170        2.0000           -0.3496926              -9.5156
       171        2.0000           -0.3486333              -9.4868 (HOMO)
       172                         -0.3157968              -8.5933 (LUMO)
       173                         -0.2813251              -7.6552
       174                         -0.2681028              -7.2954
       175                         -0.2426102              -6.6018
       176                         -0.2385699              -6.4918
       177                         -0.2267451              -6.1700
       178                         -0.2264712              -6.1626
       179                         -0.2233418              -6.0774
       180                         -0.2221989              -6.0463
       181                         -0.2214759              -6.0267
       182                         -0.2206586              -6.0044
       ...                                ...                  ...
       339                          0.7008105              19.0700
      -------------------------------------------------------------
                  HL-Gap            0.0328365 Eh            0.8935 eV

     #   Z          covCN         q      C6AA      α(0)
     1   6 C        3.761    -0.103    22.520     6.765
     2   6 C        3.909     0.022    20.155     6.381
     3   6 C        3.761    -0.103    22.513     6.764
     4   6 C        2.980    -0.013    28.331     8.731
     5   6 C        2.928    -0.036    28.894     8.815
     6   6 C        2.917    -0.043    29.078     8.843
     7   6 C        2.920    -0.033    28.814     8.803
     8   6 C        2.924    -0.058    29.444     8.899
     9   6 C        2.927     0.058    26.711     8.476
    10   7 N        2.754    -0.068    22.559     7.054
    11   6 C        2.925     0.073    26.368     8.421
    12   6 C        2.919    -0.038    28.943     8.822
    13   6 C        2.923    -0.027    28.669     8.781
    14   6 C        2.988    -0.004    28.116     8.698
    15   6 C        2.976     0.008    27.828     8.653
    16   6 C        2.925    -0.045    29.111     8.848
    17   6 C        2.976     0.008    27.828     8.653
    18   6 C        2.925    -0.045    29.113     8.848
    19   6 C        2.925     0.073    26.371     8.421
    20   7 N        2.754    -0.068    22.556     7.054
    21   6 C        2.927     0.057    26.711     8.476
    22   6 C        2.924    -0.058    29.445     8.899
    23   6 C        2.920    -0.033    28.815     8.803
    24   6 C        2.917    -0.043    29.078     8.843
    25   6 C        2.928    -0.036    28.894     8.815
    26   6 C        2.980    -0.013    28.330     8.731
    27   6 C        3.909     0.022    20.155     6.381
    28   6 C        3.761    -0.103    22.520     6.765
    29   6 C        3.761    -0.103    22.513     6.764
    30   6 C        2.980    -0.013    28.331     8.731
    31   6 C        2.928    -0.036    28.893     8.815
    32   6 C        2.917    -0.043    29.077     8.843
    33   6 C        2.920    -0.032    28.805     8.801
    34   6 C        2.924    -0.059    29.460     8.901
    35   6 C        2.926     0.057    26.715     8.476
    36   6 C        2.919    -0.038    28.946     8.823
    37   6 C        2.923    -0.027    28.672     8.781
    38   6 C        2.988    -0.004    28.118     8.698
    39   6 C        2.962     0.086    26.087     8.378
    40   7 N        1.849    -0.236    27.033     7.706
    41   6 C        2.966     0.079    26.233     8.401
    42   6 C        2.922    -0.053    29.305     8.877
    43   6 C        2.993     0.071    26.403     8.429
    44   7 N        2.761    -0.066    22.510     7.046
    45   6 C        2.927     0.060    26.647     8.466
    46   6 C        2.924    -0.057    29.413     8.894
    47   6 C        2.920    -0.032    28.794     8.800
    48   6 C        2.917    -0.043    29.067     8.841
    49   6 C        2.929    -0.035    28.870     8.812
    50   6 C        2.980    -0.011    28.274     8.722
    51   6 C        3.909     0.022    20.141     6.379
    52   6 C        3.762    -0.104    22.533     6.767
    53   6 C        3.761    -0.104    22.532     6.767
    54   6 C        2.980    -0.010    28.257     8.720
    55   6 C        2.928    -0.034    28.858     8.810
    56   6 C        2.918    -0.042    29.045     8.838
    57   6 C        2.920    -0.031    28.781     8.797
    58   6 C        2.925    -0.054    29.336     8.882
    59   6 C        2.931     0.062    26.614     8.460
    60   6 C        2.914     0.069    26.449     8.433
    61  35 Br       1.079    -0.143   188.991    22.166
    62   6 C        2.996    -0.048    29.187     8.862
    63   6 C        2.970     0.080    26.220     8.399
    64   7 N        1.849    -0.236    27.026     7.705
    65   6 C        2.963     0.086    26.085     8.377
    66   6 C        2.926     0.057    26.714     8.476
    67   6 C        2.924    -0.059    29.461     8.901
    68   6 C        2.920    -0.032    28.805     8.801
    69   6 C        2.917    -0.043    29.078     8.843
    70   6 C        2.928    -0.036    28.893     8.815
    71   6 C        2.980    -0.013    28.331     8.731
    72   1 H        0.925     0.031     2.568     2.506
    73   1 H        0.925     0.040     2.453     2.449
    74   1 H        0.925     0.040     2.453     2.449
    75   1 H        0.925     0.040     2.454     2.450
    76   1 H        0.925     0.032     2.564     2.504
    77   1 H        0.925     0.040     2.452     2.449
    78   1 H        0.926     0.031     2.573     2.508
    79   1 H        0.926     0.027     2.622     2.532
    80   1 H        0.926     0.029     2.607     2.525
    81   1 H        0.926     0.025     2.656     2.548
    82   1 H        0.926     0.048     2.344     2.394
    83   1 H        0.926     0.067     2.121     2.277
    84   1 H        0.926     0.048     2.343     2.393
    85   1 H        0.926     0.048     2.343     2.394
    86   1 H        0.926     0.025     2.655     2.548
    87   1 H        0.926     0.029     2.607     2.525
    88   1 H        0.926     0.027     2.622     2.532
    89   1 H        0.926     0.031     2.572     2.508
    90   1 H        0.925     0.040     2.452     2.449
    91   1 H        0.925     0.031     2.568     2.506
    92   1 H        0.925     0.040     2.452     2.449
    93   1 H        0.925     0.040     2.452     2.449
    94   1 H        0.925     0.032     2.564     2.504
    95   1 H        0.925     0.040     2.454     2.450
    96   1 H        0.926     0.031     2.571     2.507
    97   1 H        0.926     0.028     2.622     2.532
    98   1 H        0.926     0.028     2.615     2.529
    99   1 H        0.926     0.025     2.661     2.551
   100   1 H        0.926     0.048     2.347     2.396
   101   1 H        0.926     0.066     2.125     2.280
   102   1 H        0.926     0.069     2.097     2.265
   103   1 H        0.926     0.019     2.753     2.594
   104   1 H        0.926     0.028     2.617     2.530
   105   1 H        0.926     0.027     2.624     2.533
   106   1 H        0.926     0.032     2.562     2.503
   107   1 H        0.925     0.038     2.476     2.461
   108   1 H        0.925     0.040     2.450     2.448
   109   1 H        0.925     0.039     2.456     2.451
   110   1 H        0.925     0.040     2.453     2.449
   111   1 H        0.925     0.040     2.453     2.449
   112   1 H        0.925     0.031     2.570     2.507
   113   1 H        0.926     0.032     2.560     2.502
   114   1 H        0.926     0.028     2.617     2.530
   115   1 H        0.926     0.028     2.615     2.529
   116   1 H        0.926     0.016     2.793     2.613
   117   1 H        0.926     0.074     2.041     2.234
   118   1 H        0.926     0.025     2.664     2.552
   119   1 H        0.926     0.028     2.618     2.530
   120   1 H        0.926     0.027     2.623     2.533
   121   1 H        0.926     0.031     2.571     2.507

molecular dipole:
                 x           y           z       tot (Debye)
 q only:       -1.189       0.513       0.047
   full:       -1.517       0.730       0.088       4.285

 projected vibrational frequencies (cm⁻¹)
eigval :       -0.00    -0.00    -0.00     0.00     0.00     0.00
eigval :        5.75     7.78     8.98    10.06    12.16    12.61
eigval :       17.01    17.74    28.78    33.75    36.34    38.74
eigval :       49.05    66.51    69.02    81.76    86.02    89.80
eigval :       92.80    95.98   100.79   101.15   103.60   112.95
eigval :      116.00   124.15   126.48   127.39   128.07   129.21
eigval :      149.54   151.63   164.36   189.09   189.19   194.85
eigval :      196.05   212.35   218.15   219.52   221.59   227.70
eigval :      232.50   234.69   240.03   244.24   250.35   257.37
eigval :      272.02   299.41   302.09   305.28   307.23   321.30
eigval :      328.64   329.20   332.96   333.49   333.87   345.22
eigval :      346.19   350.06   356.60   365.74   377.14   377.89
eigval :      380.35   386.15   390.00   393.35   394.93   411.28
eigval :      411.50   417.24   430.94   441.21   445.51   448.11
eigval :      450.21   454.23   455.06   464.95   468.31   479.20
eigval :      493.29   499.92   506.77   514.58   514.74   515.17
eigval :      539.89   542.55   547.32   547.52   547.82   548.70
eigval :      553.09   555.39   557.84   578.78   585.56   587.07
eigval :      587.53   601.43   602.42   609.24   611.44   633.01
eigval :      651.01   651.58   655.44   659.76   665.04   678.38
eigval :      683.29   683.37   683.48   693.86   694.38   694.43
eigval :      696.79   698.42   708.03   715.69   729.44   731.37
eigval :      754.95   769.39   776.11   776.39   777.53   777.76
eigval :      778.51   778.77   804.40   823.75   824.33   824.77
eigval :      834.15   836.20   841.23   846.40   864.58   865.18
eigval :      865.79   867.45   867.64   869.53   869.70   874.31
eigval :      875.16   887.12   909.72   912.74   913.17   913.53
eigval :      913.80   914.41   914.74   915.57   915.91   916.18
eigval :      920.75   921.44   921.58   921.76   921.83   922.12
eigval :      928.69   929.02   938.49   938.64   939.22   957.42
eigval :      957.44   958.68   976.11   996.30  1002.66  1014.54
eigval :     1014.56  1015.05  1047.69  1062.39  1076.98  1077.06
eigval :     1077.52  1082.45  1085.48  1091.23  1114.25  1115.58
eigval :     1115.78  1120.11  1120.93  1121.16  1141.21  1141.48
eigval :     1141.85  1142.07  1144.67  1160.13  1160.19  1161.10
eigval :     1163.07  1171.98  1172.59  1181.88  1187.02  1187.17
eigval :     1187.39  1188.56  1188.65  1189.68  1192.00  1193.80
eigval :     1195.41  1224.76  1224.83  1237.19  1243.91  1244.67
eigval :     1249.05  1251.29  1251.60  1252.53  1267.83  1268.32
eigval :     1269.19  1274.60  1278.42  1278.85  1292.86  1295.23
eigval :     1295.55  1295.61  1309.95  1316.84  1319.49  1321.68
eigval :     1325.55  1326.05  1332.45  1333.55  1334.61  1335.00
eigval :     1338.74  1339.78  1341.58  1350.12  1377.74  1401.04
eigval :     1403.38  1403.40  1403.62  1406.18  1421.43  1421.48
eigval :     1421.49  1431.77  1432.92  1436.18  1437.09  1437.80
eigval :     1441.19  1441.62  1442.89  1448.27  1469.26  1478.05
eigval :     1479.08  1479.91  1481.30  1489.40  1489.74  1489.87
eigval :     1490.05  1490.95  1490.97  1493.42  1494.98  1495.14
eigval :     1496.28  1500.63  1500.68  1501.21  1504.93  1505.05
eigval :     1505.23  1520.16  1541.56  1550.95  1575.33  1575.64
eigval :     1576.60  1577.45  1578.51  1586.85  1590.73  1591.53
eigval :     1593.07  1593.39  1593.44  1593.85  1602.28  1602.39
eigval :     1602.65  3026.52  3026.62  3026.80  3028.67  3028.69
eigval :     3030.65  3039.38  3040.02  3040.09  3043.07  3043.16
eigval :     3044.02  3047.51  3048.99  3049.09  3053.93  3054.04
eigval :     3055.46  3075.91  3078.98  3079.67  3079.81  3079.84
eigval :     3080.21  3082.32  3084.30  3084.50  3084.55  3084.81
eigval :     3085.26  3088.94  3092.50  3093.41  3093.71  3095.50
eigval :     3095.59  3095.99  3096.60  3098.50  3099.46  3101.58
eigval :     3101.86  3102.18  3103.60  3103.64  3104.48  3108.87
eigval :     3113.42  3113.48  3113.60

   temp. (K)  partition function   enthalpy   heat capacity  entropy
                                   cal/mol     cal/K/mol   cal/K/mol   J/K/mol
 298.15  VIB  0.206E+30            35860.228    222.824    225.183
         ROT  0.367E+09              888.752      2.981     42.173
         INT  0.755E+38            36748.980    225.805    267.356
         TR   0.297E+29             1481.254      4.968     46.503
         TOT                       38230.2339   230.7733   313.8593  1313.1873

       T/K    H(0)-H(T)+PV         H(T)/Eh          T*S/Eh         G(T)/Eh
   ------------------------------------------------------------------------
    298.15    0.609238E-01    0.101019E+01    0.149125E+00    0.861067E+00
   ------------------------------------------------------------------------

         :::::::::::::::::::::::::::::::::::::::::::::::::::::
         ::                  THERMODYNAMIC                  ::
         :::::::::::::::::::::::::::::::::::::::::::::::::::::
         :: total free energy        -182.687189780474 Eh   ::
         ::.................................................::
         :: total energy             -183.548256805875 Eh   ::
         :: zero point energy           0.949267951872 Eh   ::
         :: G(RRHO) w/o ZPVE           -0.088200926471 Eh   ::
         :: G(RRHO) contrib.            0.861067025401 Eh   ::
         :::::::::::::::::::::::::::::::::::::::::::::::::::::

           -------------------------------------------------
          | TOTAL ENERGY             -183.548256805875 Eh   |
          | TOTAL ENTHALPY           -182.538065098310 Eh   |
          | TOTAL FREE ENERGY        -182.687189780474 Eh   |
          | GRADIENT NORM               0.000043916584 Eh/α |
          | HOMO-LUMO GAP               0.893526836745 eV   |
           -------------------------------------------------

 * finished run on 2025/07/17 at 19:38:10.838
