   * xtb version 6.7.1 (edcfbbe) compiled by 'albert@albert-system' on 2024-07-22

   ID    Z sym.   atoms
    1    6 C      1-9, 11-19, 21-39, 41-43, 45-60, 62, 63, 65-71
    2    7 N      10, 20, 40, 44, 64
    3   35 Br     61
    4    1 H      72-121

          program call               : xtb data2507/gas/3DMAC-BP-Br/3DMAC-BP-Br.xyz --gfn 2 --ohess vtight --parallel 40 --molden --ceasefiles --namespace data2507/gas/3DMAC-BP-Br/3DMAC-BP-Br_gas_S0_preOpt
          :  Hamiltonian                  GFN2-xTB          :
 * total energy  :  -183.4984704 Eh     change       -0.3144635E-08 Eh
 * total energy  :  -183.5289295 Eh     change       -0.3045908E-01 Eh
 * total energy  :  -183.5410954 Eh     change       -0.1216595E-01 Eh
 * total energy  :  -183.5439917 Eh     change       -0.2896287E-02 Eh
 * total energy  :  -183.5455289 Eh     change       -0.1537213E-02 Eh
 * total energy  :  -183.5464223 Eh     change       -0.8933610E-03 Eh
 * total energy  :  -183.5467921 Eh     change       -0.3698411E-03 Eh
 * total energy  :  -183.5469303 Eh     change       -0.1381822E-03 Eh
 * total energy  :  -183.5469751 Eh     change       -0.4474517E-04 Eh
 * total energy  :  -183.5469950 Eh     change       -0.1990653E-04 Eh
 * total energy  :  -183.5479084 Eh     change       -0.5647397E-06 Eh
 * total energy  :  -183.5479090 Eh     change       -0.5482690E-06 Eh
 * total energy  :  -183.5479095 Eh     change       -0.5172451E-06 Eh
 * total energy  :  -183.5479101 Eh     change       -0.5935992E-06 Eh
 * total energy  :  -183.5479106 Eh     change       -0.4871080E-06 Eh
 * total energy  :  -183.5479110 Eh     change       -0.4061980E-06 Eh
 * total energy  :  -183.5479113 Eh     change       -0.3384231E-06 Eh
 * total energy  :  -183.5479116 Eh     change       -0.2740095E-06 Eh
 * total energy  :  -183.5479116 Eh     change       -0.1337497E-08 Eh
   *** GEOMETRY OPTIMIZATION CONVERGED AFTER 152 ITERATIONS ***

 final structure:
================
121
 xtb: 6.7.1 (edcfbbe)
C           -8.21722040175521       -3.58661089227079       -0.71125587012572
C           -6.95209494928251       -4.37836590929512       -0.33276174386652
C           -7.31774651221734       -5.83065166940996        0.02439720436975
C           -6.01638563927090       -4.38949586274854       -1.52572041151322
C           -6.44952962722564       -4.93628921474000       -2.72624428553174
C           -5.65665163085341       -4.94452845593712       -3.85829104235456
C           -4.39909977933172       -4.37145567055111       -3.80531393304826
C           -3.94338920491457       -3.82347356484629       -2.62503833400683
C           -4.72909373086136       -3.84667420191041       -1.46875307316676
N           -4.23665174600096       -3.29791094149877       -0.29162948888064
C           -2.89953116739027       -2.83332968613206       -0.26034960766237
C           -1.84413819251482       -3.74580303577127       -0.33361972791279
C           -0.55148354188414       -3.28503958278597       -0.29803035453693
C           -0.27923801507366       -1.91785371064244       -0.18300718433894
C           -1.33419227450198       -0.98633433816694       -0.10360169492862
C           -2.64110754682335       -1.47768878855082       -0.15267162277296
C           -1.04013958803074        0.43509005244633        0.01823549493071
C           -2.04543095183911        1.40124034764450        0.10714488480977
C           -1.74514782753045        2.74832868932430        0.21370794244951
N           -2.78858198237546        3.70248280983227        0.28694411493633
C           -3.55641603082732        3.95979457712611       -0.84203260644862
C           -3.30380201591869        3.26738094428497       -2.03019455630345
C           -4.05915958434593        3.49444933484833       -3.16117560054233
C           -5.07818051972272        4.42879254134124       -3.13307967513506
C           -5.30880927736716        5.13859709319715       -1.96988555041177
C           -4.56350986836185        4.93028324180801       -0.81700733538191
C           -4.84442747286941        5.77659859765333        0.40962601371567
C           -6.30649043855282        5.55893299084093        0.84043003664710
C           -4.60869033849692        7.25429354547296        0.04723058636671
C           -3.94065342799656        5.40823796272972        1.56988780461031
C           -4.07646088067528        6.07788959220622        2.77861035024714
C           -3.30696817305332        5.76396166363362        3.88294577660906
C           -2.38624232836048        4.73589895874478        3.79340094399097
C           -2.22918850240280        4.05643760504024        2.60401064034027
C           -2.97991356542615        4.39686934408097        1.47465281801342
C           -0.41373201058720        3.17053299751502        0.24532872294508
C            0.59091652654212        2.23804178383925        0.17071527530074
C            0.29849932543271        0.87492504368275        0.05664331638400
C            1.38199638355556       -0.07636130515032       -0.02062596198844
N            2.62543850536908        0.36374205304787        0.02889846457009
C            3.61398672360903       -0.53654507831950       -0.05009401279251
C            4.95668481677719       -0.10924841064043       -0.00381424851808
C            5.97784061589941       -1.01784088890707       -0.08911836714720
N            7.32943598895379       -0.61096727481329       -0.03819656239469
C            8.04521643795776       -0.55153081612257       -1.22775148063931
C            7.36808894392038       -0.68313371941360       -2.44231807101231
C            8.04965911810333       -0.63900787286178       -3.64030549481673
C            9.42004030392259       -0.45529971350465       -3.64368809293378
C           10.08757147993694       -0.30713771027948       -2.44205305905255
C            9.42651519667211       -0.34599395017469       -1.22216880214086
C           10.21164372843122       -0.18218278180764        0.06457846750817
C           11.20542580472260       -1.35264491492348        0.17705830415044
C           10.96323487154320        1.16028334366212        0.01947289889074
C            9.31288908144797       -0.20085643713773        1.28642025604621
C            9.86812697790058       -0.02459786175875        2.54654436114288
C            9.10397186537664       -0.06052371920499        3.69796712600229
C            7.74358249410789       -0.28719604444404        3.60078591470206
C            7.16568687799044       -0.46844756266702        2.36172460784016
C            7.93578258741490       -0.42125738075605        1.19771257178821
C            5.67308309093198       -2.39779935259753       -0.22323114372509
Br           7.11891974417876       -3.62681683416088       -0.30531674567346
C            4.38727140793762       -2.85145648419075       -0.27286587553738
C            3.32525865717584       -1.92711618828823       -0.18743118037497
N            2.06034686803796       -2.36540530776125       -0.22926693021478
C            1.09327250720138       -1.47102084769646       -0.14561582520880
C           -5.00322084858961       -3.24197569294378        0.86569606919239
C           -4.45383251331666       -2.72191984420007        2.04157472350349
C           -5.19656702658263       -2.64359018326961        3.20064525611516
C           -6.50369212625434       -3.09466962342852        3.21320177619425
C           -7.03909224078928       -3.63926213684446        2.06131807421284
C           -6.31375846075042       -3.73072829731858        0.88085398056492
H           -7.95014575166808       -2.56275400098588       -0.96661476129228
H           -8.71451753477450       -4.03437228451910       -1.56704167005931
H           -8.92160020564203       -3.56117822398881        0.11547128790380
H           -8.00586204465308       -5.86294533853620        0.86451285925483
H           -6.41943321748298       -6.38233045708745        0.29552811697546
H           -7.78614216049022       -6.33121572565405       -0.81847618175802
H           -7.43651787647976       -5.36931890713465       -2.78585558406826
H           -6.02291940368211       -5.38259893047651       -4.77406098270386
H           -3.77060256855872       -4.34557259551582       -4.68291383239314
H           -2.96695226899940       -3.36471834275333       -2.59952959585251
H           -2.05881632777955       -4.80036691082021       -0.41780839708491
H            0.28561143754672       -3.96278164911035       -0.34983499914823
H           -3.48677794151494       -0.81026217218185       -0.10517215569618
H           -3.08666624373397        1.12111239443876        0.09285552526575
H           -2.49956565260801        2.54927123099260       -2.07207498916860
H           -3.84542077667311        2.94244250525189       -4.06425394963445
H           -5.67933793013062        4.61348441410623       -4.01010311082490
H           -6.09292004603382        5.88042449061136       -1.96679311308061
H           -6.55081136362873        6.16608360870951        1.70749801964586
H           -6.46426014500237        4.51327645069416        1.09831181816972
H           -6.99115646764629        5.82148201275878        0.03884766306858
H           -3.57481014284985        7.39924891246282       -0.26088501736977
H           -4.80604969431549        7.89883128687702        0.89931748124041
H           -5.25558320982879        7.56214382514806       -0.76954524232890
H           -4.80516074908665        6.86933437569500        2.86705131021108
H           -3.43495922828132        6.30837263330127        4.80594618391234
H           -1.79029388093307        4.45702333271219        4.64951808890759
H           -1.51917089390102        3.24556781857182        2.55024419329168
H           -0.19262149247066        4.22382380755449        0.32911721804892
H            1.62857096302683        2.53069372104651        0.19048427929168
H            5.16638025338410        0.94387391726802        0.10158319947556
H            6.29630277520813       -0.81905611221894       -2.44714631712977
H            7.50742150051167       -0.74826122394699       -4.56758302297956
H            9.96634316093391       -0.42494293259258       -4.57394625427110
H           11.15715305377875       -0.16355089358444       -2.46141992665139
H           11.88202741838925       -1.36769957086124       -0.67307884323380
H           10.66250460490434       -2.29574888829866        0.20066664151240
H           11.79658050014456       -1.27326790796521        1.08535607974247
H           11.55631852537364        1.30507559015114        0.91787061815241
H           11.63150987097385        1.20385538124654       -0.83569281657933
H           10.25168407558318        1.98038031998183       -0.05847874566410
H           10.93098098433845        0.13897401775284        2.63921977330867
H            9.56911763279001        0.07990331134380        4.66166312199511
H            7.12850209470665       -0.32773986010939        4.48730440008707
H            6.10377110028438       -0.65266995051550        2.29642672621232
H            4.15646751969347       -3.90055635829200       -0.36814652737118
H           -3.42928078629249       -2.38359296009520        2.05115421986059
H           -4.74887108271646       -2.23352390872837        4.09359658272608
H           -7.09718534293016       -3.03570738713686        4.11262886541220
H           -8.05355801088660       -4.00699221871977        2.08944153665026

          :  Hamiltonian                  GFN2-xTB          :
         :: gradient norm              0.000028054697 Eh/a0 ::
         :: HOMO-LUMO gap              0.857755243800 eV    ::
         :: SCC energy              -186.784325820612 Eh    ::
         :: -> dispersion             -0.183278312553 Eh    ::
         :: repulsion energy           3.236414247560 Eh    ::

    * Orbital Energies and Occupations

         #    Occupation            Energy/Eh            Energy/eV
      -------------------------------------------------------------
         1        2.0000           -0.8407071             -22.8768
       ...           ...                  ...                  ...
       159        2.0000           -0.4033163             -10.9748
       160        2.0000           -0.4026283             -10.9561
       161        2.0000           -0.4002935             -10.8925
       162        2.0000           -0.3997689             -10.8783
       163        2.0000           -0.3993130             -10.8659
       164        2.0000           -0.3971168             -10.8061
       165        2.0000           -0.3945245             -10.7356
       166        2.0000           -0.3943246             -10.7301
       167        2.0000           -0.3918044             -10.6615
       168        2.0000           -0.3646649              -9.9230
       169        2.0000           -0.3497092              -9.5161
       170        2.0000           -0.3495062              -9.5105
       171        2.0000           -0.3486913              -9.4884 (HOMO)
       172        0.0000           -0.3171694              -8.6306 (LUMO)
       173                         -0.2825321              -7.6881
       174                         -0.2693161              -7.3285
       175                         -0.2436752              -6.6307
       176                         -0.2394992              -6.5171
       177                         -0.2263658              -6.1597
       178                         -0.2261404              -6.1536
       179                         -0.2233612              -6.0780
       180                         -0.2221667              -6.0455
       181                         -0.2212215              -6.0197
       182                         -0.2204508              -5.9988
       ...                                ...                  ...
       339                          0.6995515              19.0358
      -------------------------------------------------------------
                  HL-Gap            0.0315219 Eh            0.8578 eV

     #   Z          covCN         q      C6AA      α(0)
     1   6 C        3.761    -0.103    22.518     6.765
     2   6 C        3.909     0.022    20.155     6.381
     3   6 C        3.761    -0.103    22.514     6.764
     4   6 C        2.980    -0.013    28.335     8.732
     5   6 C        2.928    -0.036    28.892     8.815
     6   6 C        2.917    -0.044    29.083     8.843
     7   6 C        2.920    -0.033    28.813     8.802
     8   6 C        2.924    -0.058    29.448     8.899
     9   6 C        2.928     0.058    26.707     8.475
    10   7 N        2.754    -0.069    22.585     7.058
    11   6 C        2.926     0.074    26.348     8.418
    12   6 C        2.919    -0.037    28.928     8.820
    13   6 C        2.923    -0.026    28.662     8.780
    14   6 C        2.988    -0.004    28.105     8.696
    15   6 C        2.976     0.009    27.819     8.652
    16   6 C        2.925    -0.044    29.092     8.845
    17   6 C        2.976     0.009    27.819     8.652
    18   6 C        2.925    -0.044    29.094     8.845
    19   6 C        2.926     0.074    26.350     8.418
    20   7 N        2.754    -0.069    22.584     7.058
    21   6 C        2.926     0.058    26.709     8.475
    22   6 C        2.924    -0.059    29.469     8.902
    23   6 C        2.920    -0.033    28.816     8.803
    24   6 C        2.917    -0.044    29.087     8.844
    25   6 C        2.928    -0.036    28.893     8.815
    26   6 C        2.980    -0.013    28.337     8.732
    27   6 C        3.909     0.022    20.155     6.381
    28   6 C        3.761    -0.103    22.519     6.765
    29   6 C        3.761    -0.103    22.513     6.764
    30   6 C        2.980    -0.013    28.334     8.732
    31   6 C        2.928    -0.036    28.893     8.815
    32   6 C        2.917    -0.044    29.083     8.843
    33   6 C        2.920    -0.033    28.813     8.802
    34   6 C        2.924    -0.058    29.447     8.899
    35   6 C        2.928     0.058    26.708     8.475
    36   6 C        2.919    -0.037    28.930     8.820
    37   6 C        2.923    -0.027    28.665     8.780
    38   6 C        2.988    -0.004    28.106     8.696
    39   6 C        2.962     0.086    26.084     8.377
    40   7 N        1.849    -0.235    27.008     7.702
    41   6 C        2.966     0.079    26.227     8.400
    42   6 C        2.922    -0.052    29.289     8.875
    43   6 C        2.995     0.072    26.383     8.426
    44   7 N        2.762    -0.067    22.531     7.050
    45   6 C        2.931     0.062    26.616     8.461
    46   6 C        2.924    -0.054    29.349     8.884
    47   6 C        2.920    -0.031    28.783     8.798
    48   6 C        2.918    -0.042    29.051     8.839
    49   6 C        2.928    -0.034    28.859     8.810
    50   6 C        2.980    -0.010    28.261     8.720
    51   6 C        3.909     0.022    20.141     6.379
    52   6 C        3.762    -0.104    22.535     6.767
    53   6 C        3.761    -0.104    22.531     6.767
    54   6 C        2.980    -0.011    28.273     8.722
    55   6 C        2.929    -0.035    28.868     8.811
    56   6 C        2.917    -0.043    29.067     8.841
    57   6 C        2.920    -0.032    28.794     8.799
    58   6 C        2.924    -0.057    29.410     8.893
    59   6 C        2.928     0.061    26.642     8.465
    60   6 C        2.914     0.070    26.445     8.433
    61  35 Br       1.080    -0.142   188.955    22.164
    62   6 C        2.996    -0.048    29.182     8.861
    63   6 C        2.970     0.080    26.215     8.398
    64   7 N        1.849    -0.235    27.006     7.702
    65   6 C        2.963     0.086    26.079     8.376
    66   6 C        2.926     0.058    26.709     8.475
    67   6 C        2.924    -0.059    29.468     8.902
    68   6 C        2.920    -0.033    28.816     8.803
    69   6 C        2.917    -0.044    29.088     8.844
    70   6 C        2.928    -0.036    28.893     8.815
    71   6 C        2.980    -0.013    28.337     8.732
    72   1 H        0.925     0.031     2.568     2.506
    73   1 H        0.925     0.040     2.453     2.449
    74   1 H        0.925     0.040     2.455     2.450
    75   1 H        0.925     0.040     2.455     2.450
    76   1 H        0.925     0.032     2.565     2.505
    77   1 H        0.925     0.040     2.453     2.449
    78   1 H        0.926     0.031     2.574     2.509
    79   1 H        0.926     0.027     2.624     2.533
    80   1 H        0.926     0.028     2.611     2.527
    81   1 H        0.926     0.024     2.673     2.557
    82   1 H        0.926     0.049     2.338     2.391
    83   1 H        0.926     0.067     2.114     2.274
    84   1 H        0.926     0.049     2.338     2.391
    85   1 H        0.926     0.049     2.337     2.391
    86   1 H        0.926     0.024     2.678     2.559
    87   1 H        0.926     0.028     2.618     2.530
    88   1 H        0.926     0.027     2.627     2.535
    89   1 H        0.926     0.031     2.573     2.508
    90   1 H        0.925     0.040     2.453     2.449
    91   1 H        0.925     0.031     2.566     2.505
    92   1 H        0.925     0.040     2.454     2.450
    93   1 H        0.925     0.031     2.567     2.505
    94   1 H        0.925     0.040     2.453     2.449
    95   1 H        0.925     0.040     2.455     2.450
    96   1 H        0.926     0.031     2.574     2.509
    97   1 H        0.926     0.027     2.624     2.533
    98   1 H        0.926     0.028     2.611     2.527
    99   1 H        0.926     0.024     2.672     2.556
   100   1 H        0.926     0.048     2.343     2.394
   101   1 H        0.926     0.067     2.118     2.276
   102   1 H        0.926     0.070     2.090     2.261
   103   1 H        0.926     0.016     2.797     2.615
   104   1 H        0.926     0.028     2.617     2.530
   105   1 H        0.926     0.028     2.619     2.531
   106   1 H        0.926     0.032     2.561     2.503
   107   1 H        0.925     0.040     2.450     2.448
   108   1 H        0.925     0.038     2.476     2.461
   109   1 H        0.925     0.039     2.455     2.450
   110   1 H        0.925     0.040     2.454     2.450
   111   1 H        0.925     0.040     2.453     2.449
   112   1 H        0.925     0.031     2.571     2.507
   113   1 H        0.926     0.032     2.562     2.503
   114   1 H        0.926     0.027     2.624     2.533
   115   1 H        0.926     0.028     2.619     2.531
   116   1 H        0.926     0.018     2.770     2.603
   117   1 H        0.926     0.074     2.037     2.232
   118   1 H        0.926     0.024     2.680     2.560
   119   1 H        0.926     0.028     2.618     2.530
   120   1 H        0.926     0.027     2.627     2.535
   121   1 H        0.926     0.031     2.573     2.508

molecular dipole:
                 x           y           z       tot (Debye)
 q only:       -1.058       0.593       0.034
   full:       -1.356       0.835       0.036       4.049

 projected vibrational frequencies (cm⁻¹)
eigval :       -0.00    -0.00    -0.00    -0.00     0.00     0.00
eigval :        4.52     7.20     7.93     9.69    12.01    12.48
eigval :       15.61    17.87    26.84    33.62    35.80    37.25
eigval :       47.76    65.89    69.23    80.56    85.87    90.12
eigval :       93.23    96.17    99.46   100.09   102.83   107.17
eigval :      116.33   121.64   126.62   127.96   128.29   128.96
eigval :      148.88   150.30   163.64   189.53   189.61   194.59
eigval :      195.15   211.52   218.56   219.61   220.19   226.20
eigval :      230.88   236.59   237.55   240.32   249.39   256.05
eigval :      270.19   299.21   301.75   305.25   307.09   320.84
eigval :      328.84   330.18   332.16   332.72   332.97   345.00
eigval :      345.56   349.54   356.09   364.57   376.89   377.49
eigval :      380.36   386.39   387.65   391.87   394.63   411.03
eigval :      411.10   417.04   432.13   441.22   445.62   447.88
eigval :      449.32   452.60   453.49   464.89   468.35   478.55
eigval :      493.22   496.93   507.00   514.83   514.87   515.25
eigval :      537.17   542.55   547.34   547.42   547.84   548.78
eigval :      552.35   555.95   557.36   578.55   585.85   587.18
eigval :      587.52   601.53   602.64   609.04   609.85   634.19
eigval :      651.26   651.68   655.69   660.55   664.82   678.49
eigval :      682.96   683.08   683.27   693.68   694.04   694.07
eigval :      696.86   699.03   708.00   715.65   729.55   731.76
eigval :      755.13   769.82   776.30   776.75   777.26   777.58
eigval :      778.15   778.37   804.48   822.85   823.80   824.61
eigval :      833.11   835.04   841.24   846.16   865.18   865.29
eigval :      865.70   866.86   867.04   868.18   868.24   871.34
eigval :      873.92   882.89   909.93   912.67   913.46   913.49
eigval :      913.53   914.36   914.42   915.90   916.03   916.49
eigval :      921.37   921.49   921.58   921.61   921.68   921.70
eigval :      927.62   927.69   938.50   938.69   939.26   957.42
eigval :      957.44   958.73   976.16   996.33  1002.31  1014.52
eigval :     1014.53  1015.10  1047.14  1062.23  1077.15  1077.17
eigval :     1077.58  1082.37  1085.60  1091.23  1114.01  1114.84
eigval :     1114.98  1119.88  1120.58  1120.62  1141.04  1141.39
eigval :     1141.63  1141.88  1144.27  1160.28  1160.32  1161.19
eigval :     1162.79  1171.35  1172.18  1181.58  1186.84  1187.07
eigval :     1187.53  1188.45  1188.75  1189.00  1191.57  1192.59
eigval :     1195.26  1224.24  1224.37  1237.02  1243.61  1244.41
eigval :     1248.64  1250.93  1251.16  1251.78  1267.91  1268.48
eigval :     1269.23  1274.62  1276.99  1278.69  1292.70  1295.13
eigval :     1295.33  1295.35  1310.40  1316.86  1318.50  1323.14
eigval :     1325.69  1325.97  1332.45  1333.83  1334.74  1335.59
eigval :     1339.87  1341.29  1342.07  1349.90  1377.62  1400.25
eigval :     1403.33  1403.35  1403.59  1406.05  1421.31  1421.36
eigval :     1421.44  1432.18  1433.25  1436.43  1437.26  1438.05
eigval :     1441.46  1442.74  1443.17  1447.71  1468.76  1479.04
eigval :     1479.66  1479.74  1481.75  1489.47  1489.83  1489.86
eigval :     1490.13  1491.03  1491.06  1494.46  1495.37  1495.93
eigval :     1496.94  1500.65  1500.67  1501.03  1505.02  1505.13
eigval :     1505.22  1520.69  1542.02  1551.18  1575.54  1575.78
eigval :     1577.40  1577.92  1578.75  1587.20  1590.95  1591.86
eigval :     1593.04  1593.37  1593.71  1593.92  1602.35  1602.51
eigval :     1602.81  3026.51  3026.58  3026.75  3028.64  3028.70
eigval :     3030.54  3039.62  3040.01  3040.02  3042.82  3042.90
eigval :     3043.85  3047.68  3049.03  3049.05  3053.56  3053.68
eigval :     3055.05  3075.92  3078.61  3079.32  3079.37  3079.50
eigval :     3079.53  3082.24  3083.82  3084.18  3084.21  3084.45
eigval :     3084.49  3088.83  3091.46  3093.74  3094.04  3095.00
eigval :     3095.09  3095.31  3095.62  3098.36  3099.16  3100.72
eigval :     3100.93  3101.58  3101.78  3102.90  3105.05  3108.96
eigval :     3113.22  3113.69  3113.77

   temp. (K)  partition function   enthalpy   heat capacity  entropy
                                   cal/mol     cal/K/mol   cal/K/mol   J/K/mol
 298.15  VIB  0.484E+30            35917.289    222.812    226.200
         ROT  0.369E+09              888.752      2.981     42.181
         INT  0.179E+39            36806.042    225.793    268.381
         TR   0.297E+29             1481.254      4.968     46.503
         TOT                       38287.2955   230.7610   314.8844  1317.4765

       T/K    H(0)-H(T)+PV         H(T)/Eh          T*S/Eh         G(T)/Eh
   ------------------------------------------------------------------------
    298.15    0.610147E-01    0.101008E+01    0.149612E+00    0.860470E+00
   ------------------------------------------------------------------------

         :::::::::::::::::::::::::::::::::::::::::::::::::::::
         ::                  THERMODYNAMIC                  ::
         :::::::::::::::::::::::::::::::::::::::::::::::::::::
         :: total free energy        -182.687441359113 Eh   ::
         ::.................................................::
         :: total energy             -183.547911573050 Eh   ::
         :: zero point energy           0.949067282393 Eh   ::
         :: G(RRHO) w/o ZPVE           -0.088597068455 Eh   ::
         :: G(RRHO) contrib.            0.860470213938 Eh   ::
         :::::::::::::::::::::::::::::::::::::::::::::::::::::

           -------------------------------------------------
          | TOTAL ENERGY             -183.547911573050 Eh   |
          | TOTAL ENTHALPY           -182.537829601604 Eh   |
          | TOTAL FREE ENERGY        -182.687441359113 Eh   |
          | GRADIENT NORM               0.000028051736 Eh/α |
          | HOMO-LUMO GAP               0.857753750421 eV   |
           -------------------------------------------------

 * finished run on 2025/07/17 at 19:25:26.046
