   * xtb version 6.7.1 (edcfbbe) compiled by 'albert@albert-system' on 2024-07-22

   ID    Z sym.   atoms
    1    6 C      1-9, 11-19, 21-39, 41-43, 45-60, 62, 63, 65-71
    2    7 N      10, 20, 40, 44, 64
    3   35 Br     61
    4    1 H      72-121

          program call               : xtb data2507/gas/3DMAC-BP-Br/3DMAC-BP-Br_gas_S0_finalOpt.xtbopt.xyz --gfn 2 --spinpol --tblite --uhf 2 --ohess vtight --parallel 40 --molden --ceasefiles --namespace data2507/gas/3DMAC-BP-Br/3DMAC-BP-Br_gas_T1_preOpt
 * total energy  :  -183.5064553 Eh     change        0.1215747E-06 Eh
 * total energy  :  -183.5089076 Eh     change       -0.2452324E-02 Eh
 * total energy  :  -183.5096621 Eh     change       -0.7545033E-03 Eh
 * total energy  :  -183.5097538 Eh     change       -0.9173228E-04 Eh
 * total energy  :  -183.5098085 Eh     change       -0.5464591E-04 Eh
 * total energy  :  -183.5098199 Eh     change       -0.1145968E-04 Eh
 * total energy  :  -183.5098402 Eh     change       -0.2024940E-04 Eh
 * total energy  :  -183.5098486 Eh     change       -0.8435797E-05 Eh
 * total energy  :  -183.5098642 Eh     change       -0.1559343E-04 Eh
 * total energy  :  -183.5098735 Eh     change       -0.9274018E-05 Eh
 * total energy  :  -183.5103774 Eh     change       -0.3622833E-06 Eh
 * total energy  :  -183.5103778 Eh     change       -0.4199443E-06 Eh
 * total energy  :  -183.5103785 Eh     change       -0.7025488E-06 Eh
 * total energy  :  -183.5103795 Eh     change       -0.1024658E-05 Eh
 * total energy  :  -183.5103808 Eh     change       -0.1297130E-05 Eh
 * total energy  :  -183.5103822 Eh     change       -0.1337558E-05 Eh
 * total energy  :  -183.5103824 Eh     change       -0.2651171E-06 Eh
 * total energy  :  -183.5103829 Eh     change       -0.5006569E-06 Eh
 * total energy  :  -183.5103830 Eh     change       -0.9189898E-07 Eh
   *** GEOMETRY OPTIMIZATION CONVERGED AFTER 96 ITERATIONS ***

 final structure:
================
121
 xtb: 6.7.1 (edcfbbe)
C           -8.57977130814341       -4.04666929797716       -0.63609060732477
C           -7.23525906420219       -4.72494858408502       -0.31414191293827
C           -7.44898817517435       -6.22279028202514       -0.02785827468140
C           -6.32339685628763       -4.58375921778474       -1.51677865668989
C           -6.71430203546261       -5.11449710044947       -2.73835501803439
C           -5.93331587203597       -4.99698149278779       -3.87307305090995
C           -4.72979212668685       -4.31763754334041       -3.79983328548506
C           -4.31590085460913       -3.78216896472666       -2.59944915582927
C           -5.09260945924700       -3.92089327035151       -1.44374199289491
N           -4.64312930720719       -3.38282781642117       -0.25018618042313
C           -3.35366976140542       -2.78470598543160       -0.21052519369331
C           -2.21327663090365       -3.59943710228116       -0.22165928700137
C           -0.97453874865825       -3.01991941319903       -0.17745956543072
C           -0.82996216209685       -1.62409481155874       -0.11022286070348
C           -1.97603338581813       -0.79391833589900       -0.09596937102195
C           -3.23179754695967       -1.41320851082987       -0.15521149997619
C           -1.81307478598768        0.63756834451057       -0.01456189607617
C           -2.89741866591744        1.52505533616288        0.00696985362701
C           -2.70877299955612        2.88637730492330        0.10714470061337
N           -3.83111930400456        3.75876428650140        0.14330323376882
C           -4.12933283524044        4.50890981607873       -0.98114575843946
C           -3.38277335806735        4.32676318721590       -2.15058032523212
C           -3.64666173030979        5.06744883721073       -3.28228649260409
C           -4.66802582953202        6.00123382696263       -3.27226311610831
C           -5.42304305625508        6.16610527144567       -2.12590648398991
C           -5.18084425070382        5.43288857615899       -0.97245932250182
C           -6.05915529888773        5.64270419007801        0.24509907845632
C           -7.51499566092322        5.31968835535383       -0.13902005098238
C           -5.93973434391220        7.11062446791195        0.69466123470294
C           -5.64862562551149        4.75016091696220        1.39986307932302
C           -6.35341010783715        4.81216842481782        2.59418145894280
C           -6.01123404949534        4.04138961783478        3.68955762420651
C           -4.92441061179286        3.18904483120348        3.60427966205792
C           -4.20627880275436        3.10730653157920        2.43099237282366
C           -4.56305378182829        3.87005275246486        1.31342118884036
C           -1.41520664062030        3.42090131721209        0.17931740514389
C           -0.33821769686319        2.57745551763186        0.14692912643461
C           -0.51027433025201        1.18625056027139        0.05366972216646
C            0.64394009780562        0.34339614027839        0.03115665059171
N            1.86470607966623        0.87114728972863        0.08854229274567
C            2.94776027222011        0.09200824375983        0.05969219631409
C            4.23561441940047        0.62295592744046        0.11581405426970
C            5.35105449887633       -0.20307651116286        0.08534578705064
N            6.65962248411239        0.34416031221603        0.14115299083751
C            7.31507610832524        0.62445878469744       -1.04405777799931
C            6.61808510537851        0.53720143425229       -2.25380241354123
C            7.24530501721414        0.80534691585100       -3.45071116700290
C            8.58195674749362        1.16513927688006       -3.46147203835998
C            9.27194023451226        1.25318833850087       -2.26646869204995
C            8.66549757778525        0.99260209963079       -1.04570488971934
C            9.47590931476846        1.08374882257095        0.23154067426805
C           10.59457493755615        0.02694298641517        0.17023640743766
C           10.07662013181112        2.49711325897867        0.34120311883065
C            8.63248195555091        0.81249014080579        1.46092266249057
C            9.20605642599955        0.89444208302014        2.72196351695167
C            8.48442155613137        0.63945063209446        3.87351976731145
C            7.14827431250229        0.29087512042720        3.77635413461955
C            6.55332720193326        0.19818816310506        2.53728180859628
C            7.28296502699983        0.45229441879496        1.37110854465456
C            5.17719675329402       -1.58273695556557       -0.00156348062054
Br           6.71855167464717       -2.70028761348363       -0.04472077926877
C            3.91791652504718       -2.15113779942032       -0.05706034503307
C            2.78429353229012       -1.33907275746371       -0.02843026307359
N            1.55443074935215       -1.85391724142786       -0.07694623866909
C            0.48362167326438       -1.06367720015659       -0.05302080120781
C           -5.38972417850550       -3.45661262953687        0.91366072520822
C           -4.87998807015315       -2.91981636979699        2.10116794527167
C           -5.60687775102291       -2.96784121341251        3.27089934917922
C           -6.85714644954638       -3.56089739614364        3.28197385704905
C           -7.35442479620466       -4.11158245331995        2.11558673484320
C           -6.64475417935019       -4.07748153576254        0.92303125858916
H           -8.42162100550646       -2.98880565956267       -0.83764955699994
H           -9.04196596908895       -4.49672005603260       -1.51013783276742
H           -9.27003075047839       -4.13746784356776        0.19785721947930
H           -8.11434726720084       -6.36485776089796        0.81913713249109
H           -6.49573359806191       -6.69541368441863        0.20155793995903
H           -7.88193118452428       -6.72420400712367       -0.88891814281888
H           -7.65634161021624       -5.63621487041521       -2.81328581124213
H           -6.26597734123464       -5.42492904704883       -4.80627378499909
H           -4.11206213612720       -4.20153687520118       -4.67761962345852
H           -3.38136970174620       -3.24513463441499       -2.55147945432320
H           -2.32923476259062       -4.67172714219696       -0.26627970231810
H           -0.07638543230768       -3.61764808900156       -0.18438257096414
H           -4.13688344994903       -0.82643845776272       -0.14885945951818
H           -3.91070151386051        1.15911705093141       -0.04623603997992
H           -2.59162290890154        3.59339106735095       -2.16825693722849
H           -3.05494109744696        4.91241008345109       -4.17192082412925
H           -4.88121988401330        6.59075668457899       -4.15072549264555
H           -6.22445849376692        6.88920509352355       -2.13668656647055
H           -8.18209238230007        5.47147780711565        0.70485040768088
H           -7.59234040781012        4.28121865749229       -0.45572945083645
H           -7.85055558501156        5.95285902581350       -0.95549299019811
H           -6.23587223786428        7.78585372822721       -0.10325159252344
H           -4.90930641223188        7.33151571874167        0.96697391513852
H           -6.57111051911008        7.30488777824060        1.55716698862530
H           -7.19480250621381        5.48300025726336        2.67933864595597
H           -6.58283635119599        4.11264673475473        4.60216818766171
H           -4.63161363051029        2.58808333267217        4.45206069100007
H           -3.35321179740949        2.44917945857744        2.37682483000598
H           -1.28788408297116        4.49003716420179        0.25717074717592
H            0.67082501217243        2.95577304283301        0.19963019104076
H            4.36098766612891        1.69206032580214        0.18187487229679
H            5.57598755269393        0.25605026611615       -2.24942756519346
H            6.69038642903972        0.73054479073577       -4.37372856814558
H            9.08533363710633        1.37266075269340       -4.39330720013002
H           10.31557034288581        1.52725406818943       -2.29326125202895
H           10.15778689106620       -0.96698983779970        0.09390609871767
H           11.21046320984701        0.06419363454182        1.06461036985256
H           11.23263382861397        0.18959634370792       -0.69408339806154
H           10.68184901563567        2.59387732434256        1.23786221089998
H           10.70579929361555        2.71979999000590       -0.51565537676337
H            9.27879460320280        3.23639221288338        0.38341876299257
H           10.24851070107676        1.15826349985829        2.81514254870530
H            8.96276227009389        0.71001512303175        4.83839231123594
H            6.56862031826286        0.08861752019613        4.66436978426928
H            5.51126198632362       -0.07390161957207        2.46529130544470
H            3.79348881580294       -3.21964948369880       -0.12430714581473
H           -3.90113055654833       -2.46640251716920        2.10419465266191
H           -5.19354123055387       -2.54399500760153        4.17373637519381
H           -7.43699639384974       -3.60270208260248        4.19119655904295
H           -8.32476137970889       -4.58374923599400        2.14202971882914

 projected vibrational frequencies (cm⁻¹)
eigval :       -0.00    -0.00    -0.00    -0.00     0.00     0.00
eigval :        5.17     5.54     6.83     9.26    12.20    13.08
eigval :       16.19    17.95    25.98    34.44    35.90    36.71
eigval :       47.40    65.47    68.74    81.81    86.28    90.06
eigval :       94.40    95.37    95.75    97.75   102.13   103.18
eigval :      114.17   125.20   127.21   128.35   128.50   129.68
eigval :      147.46   149.26   162.28   190.36   190.47   193.50
eigval :      196.44   207.64   213.32   218.47   219.02   220.60
eigval :      229.45   232.87   237.90   239.05   250.54   259.33
eigval :      264.86   295.76   302.44   303.87   305.42   313.58
eigval :      328.38   329.93   330.51   330.61   332.06   344.32
eigval :      344.92   349.74   353.53   355.62   377.28   378.03
eigval :      380.53   385.60   388.23   394.33   398.96   410.58
eigval :      411.63   419.54   431.00   434.78   439.46   442.63
eigval :      450.19   451.46   451.68   466.97   472.84   479.19
eigval :      497.85   503.94   511.01   512.11   512.45   512.78
eigval :      534.19   542.14   543.87   545.48   546.09   546.28
eigval :      546.32   550.65   554.86   578.77   584.77   585.83
eigval :      586.57   592.95   600.49   605.63   607.88   627.27
eigval :      630.78   650.49   651.14   653.63   654.21   662.63
eigval :      684.03   684.09   684.73   686.21   690.13   691.01
eigval :      695.57   695.67   697.05   701.07   712.59   725.26
eigval :      726.07   747.72   774.38   775.09   775.79   775.99
eigval :      776.79   777.15   803.22   810.20   815.49   819.98
eigval :      820.12   825.83   828.69   829.16   837.55   859.96
eigval :      860.80   866.56   866.84   867.02   867.27   867.41
eigval :      867.47   875.14   899.89   913.14   913.28   913.46
eigval :      913.60   913.87   914.15   914.27   915.21   915.74
eigval :      917.58   917.78   920.90   921.06   921.21   921.26
eigval :      921.41   921.53   938.10   938.17   938.55   957.42
eigval :      957.43   958.86   959.84   998.86  1003.24  1014.11
eigval :     1014.14  1014.42  1040.12  1062.67  1077.02  1077.09
eigval :     1077.18  1085.41  1086.59  1090.75  1109.98  1111.21
eigval :     1111.54  1116.80  1117.94  1117.98  1140.30  1140.40
eigval :     1140.59  1141.31  1143.91  1157.11  1157.98  1158.09
eigval :     1164.19  1168.49  1169.02  1182.31  1185.80  1186.13
eigval :     1186.45  1186.64  1186.71  1187.10  1190.56  1191.02
eigval :     1195.72  1221.00  1223.95  1237.91  1241.20  1242.45
eigval :     1247.44  1247.64  1248.21  1248.93  1260.12  1263.19
eigval :     1264.87  1266.75  1277.10  1281.36  1285.00  1295.05
eigval :     1295.12  1295.29  1299.59  1311.19  1312.91  1314.30
eigval :     1324.69  1324.90  1325.53  1334.61  1334.82  1335.73
eigval :     1336.70  1337.57  1337.96  1339.29  1352.27  1364.60
eigval :     1399.55  1402.10  1402.38  1402.58  1402.91  1412.86
eigval :     1420.16  1420.46  1420.69  1423.32  1434.83  1435.04
eigval :     1435.92  1436.44  1438.69  1439.04  1459.71  1468.15
eigval :     1468.63  1470.71  1471.32  1480.51  1482.56  1487.32
eigval :     1487.73  1488.34  1488.48  1489.08  1489.78  1490.12
eigval :     1490.29  1493.98  1499.81  1499.98  1500.10  1501.98
eigval :     1503.29  1503.57  1514.70  1521.52  1535.50  1567.64
eigval :     1569.37  1569.60  1574.17  1580.14  1581.75  1584.77
eigval :     1586.42  1586.47  1588.28  1588.48  1596.58  1598.24
eigval :     1598.77  3027.15  3027.28  3027.52  3029.19  3029.28
eigval :     3032.39  3040.65  3040.72  3040.73  3043.21  3043.31
eigval :     3044.81  3048.83  3049.93  3050.02  3053.37  3053.51
eigval :     3055.65  3080.76  3080.87  3080.95  3081.09  3081.44
eigval :     3081.53  3085.31  3085.48  3085.55  3085.76  3086.08
eigval :     3086.22  3090.35  3090.89  3094.94  3095.23  3096.35
eigval :     3096.42  3096.57  3097.05  3097.50  3100.46  3100.79
eigval :     3103.13  3103.46  3104.03  3104.14  3104.44  3104.69
eigval :     3105.08  3108.19  3111.88

   temp. (K)  partition function   enthalpy   heat capacity  entropy
                                   cal/mol     cal/K/mol   cal/K/mol   J/K/mol
 298.15  VIB  0.775E+30            36078.562    223.845    227.401
         ROT  0.371E+09              888.752      2.981     42.193
         INT  0.287E+39            36967.314    226.826    269.594
         TR   0.297E+29             1481.254      4.968     46.503
         TOT                       38448.5678   231.7940   316.0969  1322.5493

       T/K    H(0)-H(T)+PV         H(T)/Eh          T*S/Eh         G(T)/Eh
   ------------------------------------------------------------------------
    298.15    0.612717E-01    0.100783E+01    0.150188E+00    0.857640E+00
   ------------------------------------------------------------------------

         :::::::::::::::::::::::::::::::::::::::::::::::::::::
         ::                  THERMODYNAMIC                  ::
         :::::::::::::::::::::::::::::::::::::::::::::::::::::
         :: total free energy        -182.652742916221 Eh   ::
         ::.................................................::
         :: total energy             -183.510383020470 Eh   ::
         :: zero point energy           0.946556234565 Eh   ::
         :: G(RRHO) w/o ZPVE           -0.088916130315 Eh   ::
         :: G(RRHO) contrib.            0.857640104249 Eh   ::
         :::::::::::::::::::::::::::::::::::::::::::::::::::::

           -------------------------------------------------
          | TOTAL ENERGY             -183.510383020470 Eh   |
          | TOTAL ENTHALPY           -182.502555093009 Eh   |
          | TOTAL FREE ENERGY        -182.652742916221 Eh   |
          | GRADIENT NORM               0.000062483668 Eh/α |
           -------------------------------------------------

 * finished run on 2025/07/17 at 19:38:58.957
