   * xtb version 6.7.1 (edcfbbe) compiled by 'albert@albert-system' on 2024-07-22

   ID    Z sym.   atoms
    1    6 C      1-13, 15-19, 21-36, 38-57, 59-64
    2    7 N      14, 37, 58
    3    5 B      20
    4    1 H      65-130

          program call               : xtb data2507/gas/TMAB/TMAB_gas_T1_crest.xyz --gfn 2 --spinpol --tblite --uhf 2 --ohess vtight --parallel 40 --molden --ceasefiles --namespace data2507/gas/TMAB/TMAB_gas_T1_finalOpt
 * total energy  :  -171.9382586 Eh     change        0.7742005E-07 Eh
 * total energy  :  -171.9382765 Eh     change       -0.1794918E-04 Eh
 * total energy  :  -171.9382835 Eh     change       -0.6966552E-05 Eh
 * total energy  :  -171.9382858 Eh     change       -0.2318716E-05 Eh
 * total energy  :  -171.9382882 Eh     change       -0.2427567E-05 Eh
 * total energy  :  -171.9382898 Eh     change       -0.1548983E-05 Eh
 * total energy  :  -171.9382906 Eh     change       -0.7689210E-06 Eh
 * total energy  :  -171.9382913 Eh     change       -0.7064357E-06 Eh
 * total energy  :  -171.9382913 Eh     change       -0.8580315E-08 Eh
 * total energy  :  -171.9382918 Eh     change       -0.5127337E-06 Eh
 * total energy  :  -171.9382923 Eh     change       -0.5535314E-06 Eh
 * total energy  :  -171.9382924 Eh     change       -0.3172534E-07 Eh
 * total energy  :  -171.9382929 Eh     change       -0.5473749E-06 Eh
 * total energy  :  -171.9382933 Eh     change       -0.3668275E-06 Eh
 * total energy  :  -171.9382936 Eh     change       -0.3387936E-06 Eh
 * total energy  :  -171.9382937 Eh     change       -0.3590915E-07 Eh
   *** GEOMETRY OPTIMIZATION CONVERGED AFTER 16 ITERATIONS ***

 final structure:
================
130
 xtb: 6.7.1 (edcfbbe)
C            4.83448209650884        2.31842104789816        4.46381119664980
C            4.23533378973285        2.57659225021722        3.11063053434526
C            3.80644656430313        3.85733937457818        2.79224469560965
C            3.27090551880924        4.15140368833522        1.54173782106747
C            2.81431626060701        5.55188710924709        1.24829793230097
C            3.14539762007367        3.13889415957924        0.59967566395149
C            2.49941112200093        3.47528903275035       -0.72559574383959
C            1.06118057199434        3.52494518215663       -0.57871401577090
C           -0.13131750604943        3.50547350827965       -0.40131967381192
C           -1.53207949838724        3.50822104205309       -0.23757563660221
C           -2.38158411023464        3.29276335087542       -1.32353870654008
C           -3.74850356937125        3.31354902210116       -1.16915912755200
C           -4.33368511443886        3.55658251090872        0.08282857456302
N           -5.69607525327335        3.59467137481258        0.23304045792067
C           -6.28758683655416        3.73791878552979        1.53730059327860
C           -6.56067488447841        3.58810086266298       -0.91986229200715
C           -3.47143048344761        3.76251908694300        1.17141863518630
C           -2.10519223142968        3.73413986529715        1.01448013230675
C            3.49537108005478        1.80644945454273        0.91858439103114
B            3.10253686743234        0.58884340885022        0.00494576395910
C            2.54032335232072       -0.72113999009453        0.63332354047475
C            3.05669232972551       -1.99635926193330        0.25482002998060
C            4.12912413254886       -2.08441905271850       -0.79089230907403
C            2.59782324246303       -3.16095338659487        0.85122385393935
C            3.10049841587845       -4.51863526072236        0.44602965312892
C            1.66378045775945       -3.08074881205965        1.87756001533357
C            1.13891127335181       -1.85944943392650        2.28745279299258
C            0.13808073720043       -1.83740055541702        3.40706411395761
C            1.55201883991580       -0.69776031638793        1.65261095592872
C            0.85316574855407        0.59325516994258        2.02278589125172
C           -0.50776454123812        0.54115183313729        1.53111092856688
C           -1.61767973045288        0.43708239603596        1.07550322951922
C           -2.91876462165256        0.32550009121843        0.54040554423944
C           -3.10356863164985        0.02280751028617       -0.80761471234888
C           -4.36832677531017       -0.07606935426473       -1.34332613457703
C           -5.51089135666997        0.12010828810387       -0.55676264153906
N           -6.78376027801966        0.10233620107578       -1.11330509869986
C           -6.95523631694248       -0.46286600091722       -2.43229696466019
C           -7.92428827837104        0.00500964292541       -0.23193632470555
C           -5.31542649213224        0.38970617816154        0.80322706039755
C           -4.04915627559018        0.49842902504908        1.33628006370876
C            3.31908595862750        0.68699559647058       -1.55133416892439
C            4.56216046231728        1.00168035039467       -2.14691089749748
C            5.70138146659943        1.53845907672270       -1.33182377849725
C            4.76167269597791        0.75632903733935       -3.49960370898825
C            6.08867286799032        1.03399232786701       -4.14303469990952
C            3.72543934178495        0.22913181482148       -4.26967514982707
C            2.46583342231634        0.00447412668050       -3.73283341135120
C            1.35627997432347       -0.50294319468095       -4.60872443801018
C            2.24908865559748        0.29675878632069       -2.39224657117950
C            0.84454272687362        0.26774199017994       -1.83446193335800
C            0.44438638986394       -1.05803885232789       -1.42765146343291
C            0.10016561929388       -2.16827803015332       -1.10748644933054
C           -0.31053922910510       -3.43183562867522       -0.64570192098309
C           -1.17525329543577       -3.52812735861884        0.44843764188995
C           -1.54852484716995       -4.75476999682456        0.94442794255249
C           -1.07637603380239       -5.94487627043573        0.36745993738303
N           -1.43083951054215       -7.17121915415083        0.87097144764519
C           -0.70507619103469       -8.36358866016670        0.51507876105034
C           -2.51622460826109       -7.31166385653188        1.80696668673983
C           -0.23165210254229       -5.83864595538802       -0.74882444491229
C            0.13895488058080       -4.60972702759706       -1.24423514946277
C            4.12165097132880        1.55956357738536        2.16923089247242
C            4.67961540341012        0.20555293618869        2.49436296316244
H            5.90414613344643        2.11973242589130        4.38435149959394
H            4.36767768963002        1.45599490947276        4.93733146528709
H            4.69924935140985        3.18422432427610        5.10842327077004
H            3.90669166672270        4.64812273261169        3.52257829407055
H            2.90042988208256        6.17114555298184        2.13839663953019
H            3.42011665493265        6.00431027598837        0.46148091166400
H            1.77487821035235        5.55851252069033        0.92031398971728
H            2.86218003193709        4.43590195399631       -1.10146054181730
H            2.74787193471404        2.70894058056836       -1.46345606416294
H           -1.95510199369713        3.10451353812642       -2.29847073815324
H           -4.36706728043972        3.12261276283222       -2.03070975042983
H           -5.85479991587806        3.01753250220005        2.23439696050038
H           -7.35711232256216        3.54655029587294        1.47416043905989
H           -6.14375267697167        4.74676524037247        1.94387775424452
H           -7.57519276712609        3.83480789897575       -0.61396121083595
H           -6.23914515638791        4.33441373141377       -1.65175778739001
H           -6.57436944170330        2.60495364601743       -1.40116791371873
H           -3.86950833661705        3.95894365151802        2.15362020930747
H           -1.46209418317420        3.89415646511403        1.86757374132396
H            4.72035177876523       -2.98915774004237       -0.67823592039726
H            4.79430514921433       -1.22786096331679       -0.73176045255148
H            3.68619834992418       -2.08702749635256       -1.78781973511200
H            3.03953480407107       -4.65101134091803       -0.63219343444337
H            2.50283056916054       -5.29450531408774        0.92020487205805
H            4.13941702383297       -4.65760361105430        0.74950329320807
H            1.33141145737306       -3.98859919275033        2.36282300972636
H           -0.78269666843593       -1.34645636089190        3.09598027497781
H            0.53306928155056       -1.29291415423977        4.26647312629067
H           -0.09630513632044       -2.85118522068132        3.72470026736963
H            0.84891194623307        0.73804481973182        3.10753109436474
H            1.35154552692253        1.44951968040104        1.56942341994982
H           -2.23760644230349       -0.14594046861186       -1.42996124331104
H           -4.45661357176966       -0.31310368973052       -2.39103557422573
H           -6.63782838451196       -1.51187449201237       -2.48749834634761
H           -6.38575854646384        0.11220269522261       -3.16383244079401
H           -8.00548922240830       -0.40544494317164       -2.71222687076658
H           -7.90842903834502       -0.90480323379626        0.38181483906872
H           -7.96103107647934        0.87179450538780        0.42891523119621
H           -8.83627306203381        0.00308210917521       -0.82606032657721
H           -6.15803672932089        0.51610272755796        1.46352327433722
H           -3.92725806541578        0.71406328969602        2.38881876513854
H            5.94179552631492        2.55723566823780       -1.63859730012987
H            5.44642714525143        1.55561780287557       -0.27637511726715
H            6.59740270259112        0.93292808764432       -1.47015499610508
H            6.86787951198635        0.40397931663480       -3.71242133698205
H            6.38297591000288        2.07244141317710       -3.99336690409220
H            6.04356052826323        0.83773414340582       -5.21182868010834
H            3.89760611862304        0.02884833059598       -5.31820469324036
H            0.81950171165372       -1.31447527915921       -4.11920974670783
H            0.64106812153840        0.29200655543207       -4.82751295675856
H            1.75544630113975       -0.86521851139491       -5.55371988771024
H            0.78188447102078        0.92165672738369       -0.95991691869267
H            0.14128999707008        0.64098837704325       -2.58653690721298
H           -1.53606071875883       -2.62062836058654        0.90838098151525
H           -2.19364364812205       -4.78880974004685        1.80810300342933
H           -0.83010269573017       -9.10884859391524        1.29957878886939
H           -1.05916175928750       -8.79371691730850       -0.42990252148327
H            0.36038565197341       -8.14865606092609        0.42284430836684
H           -3.33751901922832       -6.64578262515242        1.53915225264536
H           -2.88860877542880       -8.33472205108816        1.77345535609835
H           -2.20577010278279       -7.08965020243474        2.83561840188663
H            0.12671539821362       -6.72744578703494       -1.24386117815071
H            0.78920696508736       -4.55118136022732       -2.10536070448178
H            4.87095668811811       -0.36045393780471        1.58784638866742
H            5.61078447453917        0.29535791334580        3.05169511275798
H            3.97813785509900       -0.36946904987774        3.10100688697378

 projected vibrational frequencies (cm⁻¹)
eigval :       -0.00    -0.00     0.00     0.00     0.00     0.00
eigval :       -8.89     7.81    12.69    14.95    19.08    24.81
eigval :       25.29    27.98    29.79    32.08    33.76    37.04
eigval :       40.22    43.34    51.07    53.27    54.43    58.97
eigval :       60.91    65.90    72.02    72.26    77.31    78.16
eigval :       80.20    83.56    89.66    97.54    98.14   102.88
eigval :      104.61   106.96   121.82   134.63   136.00   140.57
eigval :      144.18   147.34   153.98   155.60   157.74   161.24
eigval :      164.11   164.56   169.60   171.26   173.29   179.91
eigval :      183.14   187.97   189.42   190.68   197.64   203.83
eigval :      206.68   209.81   229.47   234.04   235.62   252.50
eigval :      266.24   268.58   276.59   278.01   279.41   280.67
eigval :      284.18   289.07   293.20   302.09   306.55   315.11
eigval :      320.86   326.30   337.83   343.68   347.05   352.82
eigval :      362.96   366.71   369.05   376.83   377.19   380.04
eigval :      385.07   386.47   391.42   395.78   397.25   409.67
eigval :      421.38   425.85   427.51   434.44   436.58   442.80
eigval :      447.75   465.93   472.02   472.44   475.92   476.94
eigval :      479.57   486.04   488.67   498.86   500.63   505.06
eigval :      506.50   507.92   517.21   522.74   526.80   533.77
eigval :      562.18   564.69   570.86   585.45   610.80   611.80
eigval :      613.86   624.76   631.55   640.03   649.30   661.70
eigval :      663.56   665.38   666.24   667.92   682.48   696.32
eigval :      714.48   730.33   737.39   784.72   786.67   786.88
eigval :      788.14   789.79   795.30   807.51   816.33   818.24
eigval :      835.25   839.17   842.35   844.25   855.57   858.65
eigval :      862.48   893.66   895.14   896.42   903.21   908.63
eigval :      910.13   911.96   917.53   930.88   946.02   963.94
eigval :      965.39   967.08   978.05   998.41   998.82  1000.97
eigval :     1005.90  1007.65  1008.95  1012.75  1014.22  1016.99
eigval :     1017.82  1023.01  1023.47  1023.61  1028.54  1029.92
eigval :     1031.70  1032.17  1032.40  1034.42  1035.54  1039.69
eigval :     1044.56  1049.38  1050.86  1051.40  1056.00  1075.60
eigval :     1082.98  1084.69  1085.34  1090.23  1091.60  1094.17
eigval :     1099.66  1103.07  1109.42  1122.04  1123.87  1136.89
eigval :     1150.11  1154.55  1157.21  1169.55  1169.94  1171.90
eigval :     1173.49  1180.56  1193.00  1205.42  1208.93  1214.82
eigval :     1223.15  1234.77  1237.94  1244.11  1247.60  1253.89
eigval :     1258.51  1262.65  1268.78  1274.58  1275.63  1283.84
eigval :     1286.93  1290.32  1299.34  1302.06  1305.11  1307.95
eigval :     1311.30  1311.79  1318.96  1330.65  1331.27  1335.58
eigval :     1356.63  1376.77  1377.63  1378.07  1384.15  1386.25
eigval :     1388.30  1398.43  1399.08  1401.76  1402.87  1403.90
eigval :     1404.44  1404.81  1407.15  1407.70  1408.18  1408.81
eigval :     1411.03  1411.70  1417.10  1419.54  1421.66  1422.64
eigval :     1424.21  1426.59  1429.10  1431.93  1434.60  1436.33
eigval :     1473.89  1476.30  1477.28  1477.39  1479.56  1480.05
eigval :     1480.21  1481.76  1482.33  1484.72  1484.76  1485.19
eigval :     1488.53  1489.05  1491.98  1493.37  1493.89  1495.32
eigval :     1495.44  1496.12  1497.18  1497.69  1498.49  1500.26
eigval :     1500.81  1501.04  1501.91  1507.01  1508.16  1508.79
eigval :     1511.08  1511.53  1513.50  1514.47  1515.79  1528.61
eigval :     1532.49  1533.61  1533.94  1538.58  1546.08  1549.10
eigval :     1592.86  1594.10  1604.17  2325.68  2329.25  2344.48
eigval :     2895.08  2900.10  2901.58  2901.76  2903.98  2921.00
eigval :     2933.13  2933.34  2941.95  2956.23  2957.96  2961.86
eigval :     2976.37  2976.55  2978.04  2979.40  2979.86  2979.88
eigval :     2981.66  2984.60  2985.26  2986.00  2987.01  2990.15
eigval :     2991.75  2993.32  2998.64  3004.99  3005.79  3007.20
eigval :     3010.20  3011.10  3014.90  3015.07  3015.96  3018.06
eigval :     3021.02  3021.66  3022.14  3028.16  3029.20  3029.75
eigval :     3031.35  3031.55  3032.03  3033.68  3035.04  3041.08
eigval :     3050.67  3053.09  3055.88  3058.63  3060.30  3060.91
eigval :     3068.41  3075.36  3075.75  3081.93  3091.59  3092.77
eigval :     3099.07  3103.19  3104.61  3107.33  3108.85  3109.98

   temp. (K)  partition function   enthalpy   heat capacity  entropy
                                   cal/mol     cal/K/mol   cal/K/mol   J/K/mol
 298.15  VIB  0.727E+35            42215.434    240.341    271.188
         ROT  0.140E+09              888.752      2.981     40.253
         INT  0.102E+44            43104.186    243.322    311.441
         TR   0.236E+29             1481.254      4.968     46.041
         TOT                       44585.4403   248.2903   357.4815  1495.7027

       T/K    H(0)-H(T)+PV         H(T)/Eh          T*S/Eh         G(T)/Eh
   ------------------------------------------------------------------------
    298.15    0.710514E-01    0.114109E+01    0.169851E+00    0.971236E+00
   ------------------------------------------------------------------------

         :::::::::::::::::::::::::::::::::::::::::::::::::::::
         ::                  THERMODYNAMIC                  ::
         :::::::::::::::::::::::::::::::::::::::::::::::::::::
         :: total free energy        -170.967057514414 Eh   ::
         ::.................................................::
         :: total energy             -171.938293663735 Eh   ::
         :: zero point energy           1.070035732049 Eh   ::
         :: G(RRHO) w/o ZPVE           -0.098799582728 Eh   ::
         :: G(RRHO) contrib.            0.971236149321 Eh   ::
         :::::::::::::::::::::::::::::::::::::::::::::::::::::

           -------------------------------------------------
          | TOTAL ENERGY             -171.938293663735 Eh   |
          | TOTAL ENTHALPY           -170.797206509882 Eh   |
          | TOTAL FREE ENERGY        -170.967057514414 Eh   |
          | GRADIENT NORM               0.000195437555 Eh/α |
           -------------------------------------------------

 * finished run on 2025/08/29 at 16:25:53.263
