   * xtb version 6.7.1 (edcfbbe) compiled by 'albert@albert-system' on 2024-07-22

   ID    Z sym.   atoms
    1    6 C      1-13, 15-19, 21-36, 38-57, 59-64
    2    7 N      14, 37, 58
    3    5 B      20
    4    1 H      65-130

          program call               : xtb data2507/gas/TMAB/TMAB.xyz --gfn 2 --ohess vtight --parallel 40 --molden --ceasefiles --namespace data2507/gas/TMAB/TMAB_gas_S0_preOpt
          :  Hamiltonian                  GFN2-xTB          :
 * total energy  :  -171.9115108 Eh     change       -0.4645671E-08 Eh
 * total energy  :  -171.9732389 Eh     change       -0.6172804E-01 Eh
 * total energy  :  -171.9941832 Eh     change       -0.2094430E-01 Eh
 * total energy  :  -172.0004553 Eh     change       -0.6272134E-02 Eh
 * total energy  :  -172.0036633 Eh     change       -0.3208005E-02 Eh
 * total energy  :  -172.0056900 Eh     change       -0.2026695E-02 Eh
 * total energy  :  -172.0072610 Eh     change       -0.1570955E-02 Eh
 * total energy  :  -172.0085112 Eh     change       -0.1250223E-02 Eh
 * total energy  :  -172.0094949 Eh     change       -0.9837403E-03 Eh
 * total energy  :  -172.0102779 Eh     change       -0.7829770E-03 Eh
 * total energy  :  -172.0261148 Eh     change       -0.1761777E-06 Eh
 * total energy  :  -172.0261150 Eh     change       -0.1891026E-06 Eh
 * total energy  :  -172.0261152 Eh     change       -0.2414411E-06 Eh
 * total energy  :  -172.0261154 Eh     change       -0.2463226E-06 Eh
 * total energy  :  -172.0261157 Eh     change       -0.2298108E-06 Eh
 * total energy  :  -172.0261159 Eh     change       -0.2529021E-06 Eh
 * total energy  :  -172.0261163 Eh     change       -0.3254968E-06 Eh
 * total energy  :  -172.0261167 Eh     change       -0.4684372E-06 Eh
 * total energy  :  -172.0261167 Eh     change       -0.1758224E-08 Eh
   *** GEOMETRY OPTIMIZATION CONVERGED AFTER 300 ITERATIONS ***

 final structure:
================
130
 xtb: 6.7.1 (edcfbbe)
C            2.82759118399245       -3.70706381690120        5.42338700198831
C            2.58079154897957       -2.46182615971420        4.62484437381595
C            3.13790798141774       -1.26389869604053        5.03855016852902
C            2.92344539623739       -0.08534004597542        4.34200481427288
C            3.55195164326803        1.18849504746032        4.82596434698280
C            2.12660186964230       -0.11482537844589        3.20043463937462
C            1.83634306076577        1.18884110583477        2.49027373888657
C            2.93791667622452        1.53104908128724        1.61317695054487
C            3.87056963049648        1.75369206113840        0.88669887758691
C            4.94024591906140        1.98663564554137       -0.00534989076094
C            4.72943141859371        2.63579795868560       -1.22036367157922
C            5.76288071849411        2.82491536792842       -2.11075506339043
C            7.05995098570409        2.37056734951409       -1.83116292057537
N            8.08350750522549        2.50956363934158       -2.74759683115225
C            9.44056023493878        2.24133131355469       -2.33723226934272
C            7.89837678794410        3.37571059446209       -3.88678605981231
C            7.26496718311835        1.73416531392854       -0.59905382227860
C            6.22855665268262        1.54510522752922        0.28971811313354
C            1.58226405577223       -1.31985546774134        2.72241901787238
B            0.80091681878119       -1.35373622183024        1.34597873200372
C           -0.61594284491551       -2.03864949100111        1.20661854385216
C           -0.86970391764818       -2.93884155172565        0.15375706454927
C            0.21700689724254       -3.35928541394559       -0.79436901501701
C           -2.13776251791474       -3.48885874420311       -0.02355820290210
C           -2.43092328211929       -4.43084254843093       -1.15326434227092
C           -3.15222073162209       -3.14967808745700        0.85514900322484
C           -2.93625374345960       -2.28508538725513        1.91350442462960
C           -4.07519549539434       -1.94564071392170        2.83038450240581
C           -1.66390596308721       -1.74382432130721        2.09672233336650
C           -1.47495184025115       -0.76589334060635        3.23703370154214
C           -2.05744021825037        0.50952665823826        2.86635745564718
C           -2.56434160126495        1.52985373447841        2.47661579523051
C           -3.16160716949131        2.70727501527741        1.97314361819987
C           -3.62197958373105        2.74201009289940        0.65630858759207
C           -4.21195116114384        3.87670862727386        0.14519163470289
C           -4.37744064259387        5.02951355524637        0.92740017001827
N           -5.01418417727498        6.14870570384454        0.43221206094778
C           -4.95908143601962        7.38327536776851        1.17675045684353
C           -5.29713186331631        6.23720536941096       -0.97974607055661
C           -3.90291265291869        4.98471167055856        2.24628806494658
C           -3.31139132173458        3.84936889358361        2.75652354439525
C            1.47126968129100       -0.72107996998856        0.06113214701590
C            2.76826394124592       -1.08061707030813       -0.34315268098384
C            3.60544292937604       -2.04528816232823        0.44702899776512
C            3.31728430317335       -0.56044473731222       -1.51550932008072
C            4.70183805301637       -0.93103507258911       -1.95644170769513
C            2.56729169205611        0.30704576079589       -2.29000057355293
C            1.29316945677802        0.69591425251514       -1.91346955027066
C            0.52073303883491        1.65027349218638       -2.77698069582525
C            0.75728501992648        0.19184573094246       -0.73107902442062
C           -0.60660138370782        0.68235169973717       -0.30102219946935
C           -1.66389046026176        0.01035862508792       -1.02731493939109
C           -2.53731503887961       -0.58515886691989       -1.60164093329660
C           -3.57233335110600       -1.31402758702469       -2.22729522831672
C           -4.79249770409492       -1.50383362597204       -1.58081615619931
C           -5.79431096971809       -2.24776056550422       -2.16416623928811
C           -5.62333937706991       -2.84198887610570       -3.42289448493378
N           -6.60577837005114       -3.63574201669191       -3.98333677940123
C           -7.92909212964008       -3.63133016121776       -3.40772323464792
C           -6.49400981505574       -4.02145284387424       -5.36942834811086
C           -4.39878480106260       -2.63040431360945       -4.07145158481901
C           -3.39765248088598       -1.88612909293023       -3.48548512031927
C            1.80846585572137       -2.49496196904676        3.46191153870896
C            1.26973048095494       -3.82558260054238        3.01939434474011
H            3.35336181022617       -4.45255070379774        4.82673472375332
H            1.88771200822359       -4.14986484352314        5.75196827870663
H            3.42896364469257       -3.48416543125686        6.30155021399846
H            3.75264823954113       -1.24649717275431        5.92846354873947
H            4.07316082055401        1.69182132714739        4.01284521540697
H            2.79644528554286        1.87127010497412        5.21793578439164
H            4.26316937589919        0.98062043990112        5.62218490855945
H            0.92373539808211        1.10962889270761        1.89960357079306
H            1.69015836029108        1.99048209933528        3.22082346009654
H            3.73784830733207        2.98860535338071       -1.46328227210894
H            5.54928996566540        3.33319330599926       -3.03704510352514
H            9.76146624531168        2.88140640517749       -1.50535136434983
H           10.11104030348098        2.40966052659851       -3.17732031744694
H            9.54370594451649        1.19739920981951       -2.03436091516338
H            8.80611411408640        3.38170721661288       -4.48639360238596
H            7.08729344882081        3.00401219124362       -4.51632636377518
H            7.67023694008659        4.40880002568315       -3.59491615285976
H            8.24333261899447        1.37594538400607       -0.32267168878159
H            6.41556963565848        1.04552741263514        1.23059603943821
H            1.20321033276238       -3.14722818374785       -0.40002509722666
H            0.10708514912995       -2.82716040744683       -1.73978538804860
H            0.15180663728716       -4.42646014887485       -0.99997330196259
H           -2.09671027330656       -4.01227658092803       -2.10033881841094
H           -3.50010257631641       -4.61749172699315       -1.22141532549272
H           -1.92441729353077       -5.38590218926141       -1.00591807183975
H           -4.13845936238379       -3.56784195855548        0.70634540997915
H           -3.88834633325718       -2.31326654461857        3.84039466779803
H           -4.99588601575520       -2.39966578509770        2.47113557712772
H           -4.21596319041244       -0.86679929730479        2.88421612837340
H           -1.96722473272846       -1.13884913178174        4.14006331647203
H           -0.41693627297658       -0.63171381023524        3.46378879480301
H           -3.50828970201541        1.86613176216412        0.03251118316141
H           -4.54626317248657        3.85536932859878       -0.87909876025486
H           -3.92952851967315        7.72337404815669        1.34575939123845
H           -5.45038496491198        7.26428569153479        2.14494065967638
H           -5.49010249826657        8.15891998604523        0.62923404926962
H           -5.79761875272031        7.18033225836824       -1.18850516604853
H           -4.38835567032362        6.18476967824894       -1.59269411443877
H           -5.96811789586804        5.43053123817360       -1.28191929577955
H           -3.99387610821881        5.84370643292287        2.89090310283629
H           -2.95643064282379        3.84394306238015        3.77767754138001
H            3.03858053076734       -2.52817878796176        1.23305808701899
H            4.02144749218007       -2.81463311559677       -0.20317769717876
H            4.43827616167046       -1.51230665218869        0.90705960839675
H            4.99309308341723       -0.34486166566599       -2.82479899986734
H            4.75639375403681       -1.98803057984999       -2.22043388235288
H            5.42260012794101       -0.74455969958113       -1.16239383761355
H            2.99158629082027        0.69771916511747       -3.20526794509944
H            1.03744031999092        1.81011241614804       -3.72086252615662
H           -0.47643331296138        1.26382181960910       -2.98368699326746
H            0.41094236975719        2.61692328736804       -2.28253365660560
H           -0.77282347036674        0.49997430674225        0.76152520690230
H           -0.68516022880763        1.76202181597000       -0.46666682831163
H           -4.94646684169182       -1.06089140026690       -0.60734734981834
H           -6.72057991940844       -2.36423660487859       -1.62511936020705
H           -8.38173224765251       -2.63139476036746       -3.40322727430588
H           -8.57274097654324       -4.29648420318346       -3.97952372791122
H           -7.89555976396819       -4.00347106029716       -2.38185329922092
H           -5.60099063586089       -4.63121016062284       -5.52042950572087
H           -7.35651684950384       -4.62394028695734       -5.64641853453822
H           -6.44607256355046       -3.15620624540150       -6.04310896637626
H           -4.21495056855522       -3.05106318404090       -5.04670222537387
H           -2.46153627762863       -1.74329410233023       -4.00789327087434
H            0.61852847747286       -4.24174799474033        3.78833539358005
H            0.70193777590690       -3.74688993907679        2.10022860090298
H            2.08576309078762       -4.53270887202697        2.86447373348798

          :  Hamiltonian                  GFN2-xTB          :
         :: gradient norm              0.000079246179 Eh/a0 ::
         :: HOMO-LUMO gap              2.147912710575 eV    ::
         :: SCC energy              -175.186508739861 Eh    ::
         :: -> dispersion             -0.181120515858 Eh    ::
         :: repulsion energy           3.160392017286 Eh    ::

    * Orbital Energies and Occupations

         #    Occupation            Energy/Eh            Energy/eV
      -------------------------------------------------------------
         1        2.0000           -0.6465930             -17.5947
       ...           ...                  ...                  ...
       150        2.0000           -0.3745419             -10.1918
       151        2.0000           -0.3710183             -10.0959
       152        2.0000           -0.3698909             -10.0652
       153        2.0000           -0.3657924              -9.9537
       154        2.0000           -0.3656204              -9.9490
       155        2.0000           -0.3612767              -9.8308
       156        2.0000           -0.3553582              -9.6698
       157        2.0000           -0.3550034              -9.6601
       158        2.0000           -0.3528244              -9.6008
       159        2.0000           -0.3518151              -9.5734
       160        2.0000           -0.3300780              -8.9819
       161        2.0000           -0.3294441              -8.9646
       162        2.0000           -0.3284666              -8.9380 (HOMO)
       163                         -0.2495322              -6.7901 (LUMO)
       164                         -0.2064119              -5.6168
       165                         -0.2061070              -5.6085
       166                         -0.2046659              -5.5692
       167                         -0.1994525              -5.4274
       168                         -0.1993030              -5.4233
       169                         -0.1986668              -5.4060
       170                         -0.1968226              -5.3558
       171                         -0.1958045              -5.3281
       172                         -0.1931697              -5.2564
       173                         -0.1898838              -5.1670
       ...                                ...                  ...
       322                          1.4571276              39.6505
      -------------------------------------------------------------
                  HL-Gap            0.0789344 Eh            2.1479 eV

     #   Z          covCN         q      C6AA      α(0)
     1   6 C        3.758    -0.104    22.535     6.768
     2   6 C        2.966    -0.002    28.062     8.689
     3   6 C        2.929    -0.053    29.327     8.881
     4   6 C        2.965     0.001    28.007     8.681
     5   6 C        3.758    -0.104    22.535     6.768
     6   6 C        2.984     0.000    28.018     8.683
     7   6 C        3.810    -0.047    21.406     6.586
     8   6 C        1.972    -0.046    32.309     9.179
     9   6 C        1.980    -0.061    32.710     9.236
    10   6 C        2.969     0.022    27.505     8.602
    11   6 C        2.927    -0.030    28.751     8.793
    12   6 C        2.923    -0.062    29.533     8.912
    13   6 C        2.914     0.059    26.675     8.469
    14   7 N        2.733    -0.103    23.255     7.162
    15   6 C        3.697    -0.038    21.431     6.622
    16   6 C        3.697    -0.038    21.427     6.621
    17   6 C        2.922    -0.064    29.586     8.920
    18   6 C        2.926    -0.033    28.832     8.806
    19   6 C        2.883    -0.083    30.077     8.991
    20   5 B        2.704     0.260    17.584     7.035
    21   6 C        2.883    -0.083    30.063     8.989
    22   6 C        2.972     0.001    27.991     8.678
    23   6 C        3.759    -0.113    22.703     6.793
    24   6 C        2.966     0.002    27.974     8.675
    25   6 C        3.758    -0.102    22.500     6.763
    26   6 C        2.930    -0.049    29.208     8.863
    27   6 C        2.965     0.002    27.987     8.678
    28   6 C        3.758    -0.103    22.520     6.766
    29   6 C        2.985     0.000    28.016     8.682
    30   6 C        3.810    -0.051    21.473     6.596
    31   6 C        1.974    -0.052    32.473     9.203
    32   6 C        1.980    -0.064    32.788     9.247
    33   6 C        2.970     0.018    27.605     8.618
    34   6 C        2.927    -0.035    28.867     8.811
    35   6 C        2.922    -0.063    29.564     8.917
    36   6 C        2.914     0.059    26.675     8.469
    37   7 N        2.733    -0.101    23.222     7.157
    38   6 C        3.697    -0.039    21.439     6.623
    39   6 C        3.697    -0.039    21.444     6.624
    40   6 C        2.923    -0.064    29.591     8.921
    41   6 C        2.924    -0.035    28.862     8.810
    42   6 C        2.884    -0.080    29.988     8.978
    43   6 C        2.972     0.001    27.993     8.679
    44   6 C        3.759    -0.110    22.656     6.786
    45   6 C        2.967     0.001    27.994     8.679
    46   6 C        3.758    -0.102    22.491     6.761
    47   6 C        2.930    -0.050    29.245     8.869
    48   6 C        2.965     0.001    28.006     8.680
    49   6 C        3.758    -0.102    22.498     6.763
    50   6 C        2.982     0.001    27.995     8.679
    51   6 C        3.811    -0.046    21.386     6.583
    52   6 C        1.969    -0.045    32.270     9.174
    53   6 C        1.980    -0.063    32.767     9.244
    54   6 C        2.970     0.023    27.493     8.601
    55   6 C        2.927    -0.031    28.771     8.796
    56   6 C        2.923    -0.062    29.553     8.915
    57   6 C        2.914     0.058    26.690     8.472
    58   7 N        2.733    -0.104    23.285     7.167
    59   6 C        3.697    -0.038    21.420     6.620
    60   6 C        3.697    -0.038    21.424     6.621
    61   6 C        2.923    -0.063    29.580     8.919
    62   6 C        2.926    -0.033    28.825     8.805
    63   6 C        2.971    -0.003    28.103     8.696
    64   6 C        3.758    -0.112    22.700     6.793
    65   1 H        0.925     0.039     2.468     2.457
    66   1 H        0.925     0.039     2.457     2.451
    67   1 H        0.925     0.034     2.526     2.485
    68   1 H        0.925     0.020     2.730     2.584
    69   1 H        0.925     0.047     2.359     2.402
    70   1 H        0.924     0.036     2.500     2.473
    71   1 H        0.925     0.034     2.533     2.489
    72   1 H        0.925     0.055     2.258     2.350
    73   1 H        0.924     0.051     2.304     2.374
    74   1 H        0.926     0.025     2.655     2.548
    75   1 H        0.926     0.020     2.735     2.586
    76   1 H        0.924     0.033     2.540     2.492
    77   1 H        0.925     0.044     2.400     2.423
    78   1 H        0.924     0.047     2.355     2.400
    79   1 H        0.925     0.044     2.400     2.423
    80   1 H        0.924     0.047     2.361     2.403
    81   1 H        0.924     0.034     2.537     2.491
    82   1 H        0.926     0.019     2.745     2.591
    83   1 H        0.925     0.019     2.749     2.593
    84   1 H        0.925     0.044     2.391     2.418
    85   1 H        0.924     0.043     2.413     2.429
    86   1 H        0.925     0.038     2.477     2.461
    87   1 H        0.925     0.044     2.402     2.424
    88   1 H        0.925     0.034     2.526     2.485
    89   1 H        0.924     0.035     2.516     2.481
    90   1 H        0.925     0.021     2.712     2.575
    91   1 H        0.924     0.034     2.524     2.484
    92   1 H        0.925     0.033     2.547     2.496
    93   1 H        0.925     0.047     2.357     2.401
    94   1 H        0.924     0.050     2.322     2.383
    95   1 H        0.924     0.058     2.221     2.331
    96   1 H        0.925     0.031     2.573     2.509
    97   1 H        0.926     0.022     2.708     2.573
    98   1 H        0.924     0.035     2.523     2.484
    99   1 H        0.924     0.047     2.361     2.403
   100   1 H        0.925     0.044     2.394     2.420
   101   1 H        0.925     0.044     2.395     2.420
   102   1 H        0.924     0.035     2.523     2.484
   103   1 H        0.924     0.048     2.348     2.396
   104   1 H        0.926     0.020     2.736     2.587
   105   1 H        0.926     0.021     2.715     2.577
   106   1 H        0.925     0.042     2.422     2.434
   107   1 H        0.925     0.035     2.515     2.480
   108   1 H        0.924     0.041     2.439     2.442
   109   1 H        0.925     0.033     2.549     2.497
   110   1 H        0.924     0.035     2.517     2.481
   111   1 H        0.925     0.042     2.421     2.433
   112   1 H        0.925     0.019     2.741     2.589
   113   1 H        0.925     0.032     2.558     2.501
   114   1 H        0.925     0.045     2.380     2.412
   115   1 H        0.924     0.035     2.520     2.482
   116   1 H        0.924     0.056     2.246     2.343
   117   1 H        0.924     0.051     2.308     2.376
   118   1 H        0.926     0.026     2.642     2.542
   119   1 H        0.926     0.019     2.743     2.590
   120   1 H        0.924     0.033     2.545     2.495
   121   1 H        0.925     0.043     2.405     2.425
   122   1 H        0.924     0.047     2.361     2.403
   123   1 H        0.924     0.047     2.358     2.402
   124   1 H        0.925     0.043     2.405     2.425
   125   1 H        0.924     0.033     2.546     2.496
   126   1 H        0.926     0.019     2.749     2.593
   127   1 H        0.925     0.019     2.748     2.592
   128   1 H        0.925     0.038     2.470     2.458
   129   1 H        0.925     0.047     2.354     2.399
   130   1 H        0.924     0.035     2.517     2.481

molecular dipole:
                 x           y           z       tot (Debye)
 q only:       -0.273       0.313      -1.078
   full:       -0.199       0.535      -1.254       3.503

 projected vibrational frequencies (cm⁻¹)
eigval :       -0.00    -0.00    -0.00     0.00     0.00     0.00
eigval :        4.94     8.87     9.80    13.17    15.01    17.27
eigval :       20.74    21.26    22.07    28.16    31.93    32.16
eigval :       34.84    38.50    39.28    43.32    47.77    52.93
eigval :       55.54    59.67    62.46    64.54    76.09    80.34
eigval :       83.49    85.79    95.86   105.56   108.70   111.00
eigval :      111.66   112.78   116.42   119.41   120.95   130.70
eigval :      140.00   142.56   145.11   160.09   166.67   168.01
eigval :      168.82   169.97   172.60   177.63   179.75   181.71
eigval :      188.81   189.66   191.90   204.85   209.51   215.72
eigval :      220.48   220.99   222.52   249.35   252.28   258.12
eigval :      264.85   267.93   270.46   279.59   285.14   289.81
eigval :      290.32   291.91   293.36   306.41   309.65   316.41
eigval :      332.10   341.02   342.89   353.31   360.09   362.25
eigval :      366.22   370.69   377.14   379.45   379.52   379.76
eigval :      390.81   392.25   395.26   406.08   406.41   406.76
eigval :      421.96   422.32   422.68   438.77   442.37   447.83
eigval :      462.15   475.76   476.64   477.20   477.62   479.14
eigval :      481.55   492.07   492.73   503.14   503.54   504.28
eigval :      512.30   513.84   515.80   530.28   540.53   543.86
eigval :      580.30   582.98   583.18   613.22   613.73   613.87
eigval :      614.73   642.71   644.27   647.36   658.88   664.69
eigval :      664.87   665.40   671.70   681.95   693.96   716.63
eigval :      725.78   741.13   750.33   784.54   785.11   786.59
eigval :      788.67   789.53   790.81   841.33   842.03   843.58
eigval :      844.53   860.63   861.92   863.78   866.36   866.68
eigval :      868.37   895.97   897.40   898.40   912.07   913.87
eigval :      915.03   918.16   921.61   942.22   964.87   965.06
eigval :      966.15   982.18   985.83  1000.25  1000.59  1001.24
eigval :     1012.46  1013.49  1014.36  1021.33  1021.67  1022.26
eigval :     1026.41  1027.82  1029.27  1030.09  1035.41  1035.71
eigval :     1036.71  1037.64  1038.09  1040.71  1040.82  1041.13
eigval :     1042.91  1053.91  1054.70  1057.46  1076.62  1078.30
eigval :     1093.23  1094.38  1095.12  1095.95  1098.11  1099.16
eigval :     1101.78  1102.36  1103.46  1133.97  1140.20  1150.77
eigval :     1156.56  1156.72  1158.52  1173.72  1173.85  1174.36
eigval :     1193.31  1202.58  1204.68  1214.40  1214.57  1215.73
eigval :     1242.60  1243.31  1244.42  1260.25  1267.11  1270.52
eigval :     1271.19  1271.66  1272.78  1287.75  1288.04  1288.38
eigval :     1299.75  1301.32  1304.36  1308.24  1311.69  1312.53
eigval :     1327.59  1329.81  1330.92  1331.10  1331.60  1333.20
eigval :     1368.27  1369.00  1370.48  1398.52  1400.00  1401.68
eigval :     1403.24  1403.51  1404.48  1407.43  1407.65  1408.25
eigval :     1408.32  1409.22  1412.23  1415.39  1416.42  1419.42
eigval :     1420.67  1420.76  1421.00  1437.06  1437.18  1437.30
eigval :     1439.62  1441.19  1446.12  1448.59  1449.64  1451.62
eigval :     1474.33  1476.36  1476.44  1476.89  1477.09  1482.20
eigval :     1483.42  1484.22  1484.72  1484.84  1484.94  1488.31
eigval :     1489.76  1490.38  1491.27  1493.78  1494.56  1496.75
eigval :     1498.22  1498.78  1498.90  1500.06  1500.18  1500.26
eigval :     1500.40  1500.54  1504.97  1510.79  1511.83  1512.28
eigval :     1514.36  1514.48  1514.67  1546.32  1547.89  1548.17
eigval :     1564.62  1566.98  1570.84  1586.84  1587.93  1590.29
eigval :     1607.27  1608.57  1608.95  2359.69  2367.19  2367.24
eigval :     2893.77  2894.86  2897.12  2897.35  2898.48  2900.44
eigval :     2929.27  2938.65  2941.69  2971.61  2974.46  2975.81
eigval :     2975.98  2975.99  2976.89  2981.29  2982.70  2983.82
eigval :     2984.08  2984.95  2985.28  2990.49  2993.15  2993.19
eigval :     2994.87  3002.04  3002.53  3005.57  3008.38  3010.22
eigval :     3015.43  3015.59  3017.30  3017.68  3021.26  3026.30
eigval :     3026.64  3026.75  3027.33  3032.55  3033.63  3034.11
eigval :     3034.82  3035.74  3035.96  3038.35  3038.65  3038.92
eigval :     3056.74  3059.02  3060.81  3066.95  3067.42  3071.99
eigval :     3075.54  3080.27  3083.60  3096.28  3100.12  3105.10
eigval :     3105.93  3106.44  3108.12  3108.35  3108.41  3110.95

   temp. (K)  partition function   enthalpy   heat capacity  entropy
                                   cal/mol     cal/K/mol   cal/K/mol   J/K/mol
 298.15  VIB  0.128E+37            41950.067    236.727    270.686
         ROT  0.182E+09              888.752      2.981     40.775
         INT  0.232E+45            42838.819    239.708    311.461
         TR   0.236E+29             1481.254      4.968     46.041
         TOT                       44320.0730   244.6757   357.5015  1495.7862

       T/K    H(0)-H(T)+PV         H(T)/Eh          T*S/Eh         G(T)/Eh
   ------------------------------------------------------------------------
    298.15    0.706285E-01    0.114597E+01    0.169860E+00    0.976105E+00
   ------------------------------------------------------------------------

         :::::::::::::::::::::::::::::::::::::::::::::::::::::
         ::                  THERMODYNAMIC                  ::
         :::::::::::::::::::::::::::::::::::::::::::::::::::::
         :: total free energy        -171.050011893928 Eh   ::
         ::.................................................::
         :: total energy             -172.026116722579 Eh   ::
         :: zero point energy           1.075336788065 Eh   ::
         :: G(RRHO) w/o ZPVE           -0.099231959413 Eh   ::
         :: G(RRHO) contrib.            0.976104828652 Eh   ::
         :::::::::::::::::::::::::::::::::::::::::::::::::::::

           -------------------------------------------------
          | TOTAL ENERGY             -172.026116722579 Eh   |
          | TOTAL ENTHALPY           -170.880151402426 Eh   |
          | TOTAL FREE ENERGY        -171.050011893928 Eh   |
          | GRADIENT NORM               0.000079392455 Eh/α |
          | HOMO-LUMO GAP               2.147913636474 eV   |
           -------------------------------------------------

 * finished run on 2025/08/29 at 14:46:47.432
