   * xtb version 6.7.1 (edcfbbe) compiled by 'albert@albert-system' on 2024-07-22

   ID    Z sym.   atoms
    1    6 C      1-13, 15-19, 21-36, 38-57, 59-64
    2    7 N      14, 37, 58
    3    5 B      20
    4    1 H      65-130

          program call               : xtb data2507/gas/TMAB/TMAB_gas_S0_crest.xyz --gfn 2 --ohess vtight --parallel 40 --molden --ceasefiles --namespace data2507/gas/TMAB/TMAB_gas_S0_finalOpt
          :  Hamiltonian                  GFN2-xTB          :
 * total energy  :  -172.0317565 Eh     change       -0.4454222E-08 Eh
 * total energy  :  -172.0317577 Eh     change       -0.1247281E-05 Eh
 * total energy  :  -172.0317595 Eh     change       -0.1796525E-05 Eh
 * total energy  :  -172.0317645 Eh     change       -0.4980163E-05 Eh
 * total energy  :  -172.0317675 Eh     change       -0.2978834E-05 Eh
 * total energy  :  -172.0317699 Eh     change       -0.2412068E-05 Eh
 * total energy  :  -172.0317728 Eh     change       -0.2865896E-05 Eh
 * total energy  :  -172.0317757 Eh     change       -0.2964240E-05 Eh
 * total energy  :  -172.0317790 Eh     change       -0.3214320E-05 Eh
 * total energy  :  -172.0317833 Eh     change       -0.4387880E-05 Eh
 * total energy  :  -172.0320756 Eh     change       -0.2802312E-06 Eh
 * total energy  :  -172.0320759 Eh     change       -0.2656364E-06 Eh
 * total energy  :  -172.0320762 Eh     change       -0.3365569E-06 Eh
 * total energy  :  -172.0320766 Eh     change       -0.4162831E-06 Eh
 * total energy  :  -172.0320771 Eh     change       -0.4902498E-06 Eh
 * total energy  :  -172.0320775 Eh     change       -0.4074867E-06 Eh
 * total energy  :  -172.0320778 Eh     change       -0.2536087E-06 Eh
 * total energy  :  -172.0320779 Eh     change       -0.1520228E-06 Eh
 * total energy  :  -172.0320779 Eh     change       -0.1460023E-07 Eh
   *** GEOMETRY OPTIMIZATION CONVERGED AFTER 152 ITERATIONS ***

 final structure:
================
130
 xtb: 6.7.1 (edcfbbe)
C            4.69117972444669        3.66100968382621        4.10566068122702
C            3.93936145384191        3.63766354952866        2.80786867930270
C            3.23086900391137        4.75975386656701        2.41019319762469
C            2.55048448564149        4.79828987731746        1.20487203407491
C            1.80900079156941        6.04383914192451        0.81549911795913
C            2.56310084531948        3.67098514266910        0.38323881092583
C            1.83038557860124        3.75181830561408       -0.93631683197418
C            0.40488600299291        3.53868631156091       -0.76885986969670
C           -0.77372739105319        3.34832374576953       -0.61491466525869
C           -2.16660348987467        3.13928663183596       -0.50175827361622
C           -2.89181560903244        2.60791017323118       -1.56692846466814
C           -4.25386513654403        2.42874781533690       -1.47954777013368
C           -4.95775174890927        2.76744441615229       -0.31582012999740
N           -6.31635208567197        2.56550624059820       -0.22423302570432
C           -7.03073266356421        2.99620568929163        0.94953167701447
C           -7.07681080566407        2.28955284416245       -1.41874366988652
C           -4.21883517940418        3.29603940628034        0.75200478382257
C           -2.85619211288102        3.47471715169808        0.66096476060900
C            3.20130992776084        2.48403571727036        0.79361958209249
B            3.01736656469270        1.13730362748802       -0.01117010420479
C            2.68326371098024       -0.19527288913709        0.77299648237681
C            3.42683023958717       -1.36764250486431        0.53446397675072
C            4.58015531984762       -1.38078304186252       -0.43020605110749
C            3.12633214796506       -2.55119500870448        1.20455076241281
C            3.86605413323690       -3.82651644095202        0.92322898760535
C            2.12384811145690       -2.55328476807360        2.15893466466078
C            1.38993439854680       -1.41615620239071        2.44068649758820
C            0.33404593205795       -1.47305732060903        3.50500007573043
C            1.65442591714815       -0.24517922220279        1.72842694692797
C            0.74070450959916        0.93584193661090        1.97234072489704
C           -0.58610045725793        0.62381522849030        1.47587354873645
C           -1.66128139170012        0.29362131886459        1.04812395069995
C           -2.92801924312043       -0.08952684528111        0.55588638165851
C           -3.05228389254615       -0.66807606089442       -0.70539372401133
C           -4.28575248770608       -1.04071642595376       -1.19194578207418
C           -5.45351831714769       -0.85447252018263       -0.44059453564454
N           -6.70095462115110       -1.16225792942468       -0.96488310829624
C           -6.77221270241427       -2.03794197886281       -2.11236149270801
C           -7.84380546162770       -1.17588909890475       -0.08318546894153
C           -5.31305272885028       -0.30103063651877        0.83769561849741
C           -4.07974682889478        0.07947795412566        1.32040228233360
C            3.18429723011235        1.03706547057562       -1.57967195209711
C            4.37495487211168        1.40648786487244       -2.22642883776612
C            5.49687187534762        2.07328069340700       -1.48101487915338
C            4.54736493367725        1.14603633652187       -3.58734065599807
C            5.81751440858077        1.52496685725908       -4.28912599183528
C            3.53498546895142        0.51680353231170       -4.29259270980174
C            2.32835155302308        0.18770214394226       -3.69392397682365
C            1.24444705995458       -0.46525792454006       -4.49978810437660
C            2.14950559630028        0.47471656802200       -2.34424898728961
C            0.79872086352528        0.24238035904835       -1.70943727566692
C            0.60853437445351       -1.13413268594814       -1.30498722317280
C            0.45980900397894       -2.26925885102377       -0.93588843772152
C            0.27488158773647       -3.56797359651931       -0.41448055570519
C           -0.62733041455345       -3.77744396446317        0.62748995364316
C           -0.78280795350212       -5.02637990329965        1.18659327485177
C           -0.04847653706368       -6.12874441341108        0.72589509913318
N           -0.23029923488559       -7.39105011763423        1.26182112251839
C            0.71948680756929       -8.43103074685355        0.94718283847293
C           -0.97421988319500       -7.53341392395849        2.48998331368005
C            0.84827413524530       -5.90785882777279       -0.32799047262542
C            1.00207565265218       -4.65704809814678       -0.88664521693708
C            3.92580703135202        2.50026394183464        2.00155640070644
C            4.73721039767208        1.31607493646498        2.44370890172328
H            5.76553346121044        3.59106446884065        3.93245062956438
H            4.40134448313007        2.82247053490838        4.73734068615445
H            4.49351212829838        4.58539149552079        4.64336116973945
H            3.21848530753045        5.63114195062514        3.05102558697875
H            1.79355499667670        6.74836293646793        1.64394725357289
H            2.28719600115068        6.53332171817756       -0.03421484760742
H            0.78231830512458        5.80921625720494        0.53720932524371
H            1.98853263973329        4.73792675344882       -1.38340016104267
H            2.21617881706598        3.00482641130297       -1.63052321789133
H           -2.37444211017006        2.33777721085319       -2.47673334337419
H           -4.77009262353329        2.00729119761523       -2.32621196100239
H           -6.59952881408270        2.53770438595778        1.84183668299530
H           -8.06933171488827        2.67757481324275        0.87851905015311
H           -7.01464071121882        4.08704380321478        1.07562278188432
H           -8.13846252074295        2.28763912846878       -1.18140782696185
H           -6.90255192663247        3.04355862999477       -2.19539847200820
H           -6.81768460632659        1.30599018106327       -1.81808857233185
H           -4.70821861642204        3.57960709883731        1.66970658547246
H           -2.31173972020855        3.88327486978812        1.50053819396286
H            5.36798916870894       -2.04371505929898       -0.07846855616438
H            5.00448197500166       -0.39314182148759       -0.56194924582792
H            4.24726218565798       -1.73899120268584       -1.40496991358379
H            3.90695659644644       -4.02156421226191       -0.14619083758147
H            3.36433113169609       -4.66255996105641        1.40493821150003
H            4.88900532336802       -3.77891635910277        1.30030761607803
H            1.90232341593751       -3.47001727350616        2.68864742194832
H           -0.63731071299058       -1.19471747857018        3.10060367358686
H            0.56759292076670       -0.78549085862344        4.31921495414962
H            0.26733795889539       -2.47817012156706        3.91504837643632
H            0.68203529618340        1.15427325149509        3.04384498148298
H            1.10080721976356        1.83111264288516        1.46694358575457
H           -2.16429581541101       -0.83473701837144       -1.29710917148583
H           -4.32980051011333       -1.48344763957449       -2.17378671889090
H           -6.27792114392561       -3.00183436991877       -1.93764534853485
H           -6.30954610627046       -1.56278264211149       -2.97939500100572
H           -7.81593872045690       -2.22601831672143       -2.35632387454472
H           -7.76114658223821       -1.93193660423133        0.70896727785563
H           -7.96655386701128       -0.19627803396889        0.37893450827460
H           -8.74064386774696       -1.38355559991888       -0.66457081548859
H           -6.17179251455490       -0.16237790381938        1.47383158373156
H           -4.00054500510153        0.51004692702248        2.30886333199830
H            5.73011129211742        3.03490090873748       -1.93894692699342
H            5.23900620717704        2.24517412175087       -0.44138340612408
H            6.40278193100119        1.46667607933366       -1.52067935280332
H            6.67463260440422        1.02845062452594       -3.83427801766576
H            5.98783360301025        2.59978545196731       -4.22914746105720
H            5.77321817827597        1.24231314727722       -5.33821439177604
H            3.68260390427967        0.29217228483819       -5.34049557809728
H            0.84891453067555       -1.33444924663438       -3.97612715525657
H            0.42018245123758        0.22869939566960       -4.67204256297059
H            1.62761604475421       -0.78149048703104       -5.46747616754165
H            0.68223474146245        0.87444701028494       -0.82689564428881
H            0.00790363738608        0.52371764270038       -2.41221080195555
H           -1.19914595188417       -2.94098587712578        1.00207653154026
H           -1.48586889119155       -5.13574553529601        1.99641615271346
H            1.74523353904396       -8.16331825240164        1.23226032210131
H            0.44432903319446       -9.34216894407385        1.47430452160562
H            0.70095341489544       -8.64826148431704       -0.12270004900952
H           -1.01210750071700       -8.58468576347538        2.76815247842791
H           -0.52701044809226       -6.97174014250411        3.32056700135368
H           -2.00088747474385       -7.18976117133098        2.35035713223216
H            1.44069900147183       -6.71744144401552       -0.72264455669535
H            1.70324244505533       -4.51625176255065       -1.69740654507214
H            4.83823643278185        0.57932917337613        1.65634834765456
H            5.73391502690440        1.63551534227171        2.74674638466317
H            4.26866417660343        0.83224159797392        3.30120906854432

          :  Hamiltonian                  GFN2-xTB          :
         :: gradient norm              0.000097244672 Eh/a0 ::
         :: HOMO-LUMO gap              1.974501442669 eV    ::
         :: SCC energy              -175.193126420749 Eh    ::
         :: -> dispersion             -0.191783183402 Eh    ::
         :: repulsion energy           3.161048497950 Eh    ::

    * Orbital Energies and Occupations

         #    Occupation            Energy/Eh            Energy/eV
      -------------------------------------------------------------
         1        2.0000           -0.6455989             -17.5676
       ...           ...                  ...                  ...
       150        2.0000           -0.3714582             -10.1079
       151        2.0000           -0.3696312             -10.0582
       152        2.0000           -0.3658875              -9.9563
       153        2.0000           -0.3646315              -9.9221
       154        2.0000           -0.3636630              -9.8958
       155        2.0000           -0.3626469              -9.8681
       156        2.0000           -0.3597198              -9.7885
       157        2.0000           -0.3569426              -9.7129
       158        2.0000           -0.3541662              -9.6374
       159        2.0000           -0.3515605              -9.5664
       160        2.0000           -0.3291694              -8.9572
       161        2.0000           -0.3257654              -8.8645
       162        2.0000           -0.3238588              -8.8126 (HOMO)
       163                         -0.2512971              -6.8381 (LUMO)
       164                         -0.2050245              -5.5790
       165                         -0.2020693              -5.4986
       166                         -0.2008099              -5.4643
       167                         -0.1998360              -5.4378
       168                         -0.1969503              -5.3593
       169                         -0.1958733              -5.3300
       170                         -0.1954475              -5.3184
       171                         -0.1946472              -5.2966
       172                         -0.1939236              -5.2769
       173                         -0.1935327              -5.2663
       ...                                ...                  ...
       322                          1.4611614              39.7602
      -------------------------------------------------------------
                  HL-Gap            0.0725617 Eh            1.9745 eV

     #   Z          covCN         q      C6AA      α(0)
     1   6 C        3.758    -0.104    22.541     6.769
     2   6 C        2.966    -0.001    28.049     8.687
     3   6 C        2.929    -0.052    29.292     8.876
     4   6 C        2.965     0.001    28.010     8.681
     5   6 C        3.758    -0.104    22.536     6.768
     6   6 C        2.979     0.000    28.014     8.682
     7   6 C        3.810    -0.053    21.520     6.603
     8   6 C        1.969    -0.056    32.580     9.218
     9   6 C        1.980    -0.061    32.702     9.235
    10   6 C        2.970     0.020    27.565     8.612
    11   6 C        2.928    -0.031    28.771     8.796
    12   6 C        2.923    -0.061    29.511     8.909
    13   6 C        2.915     0.061    26.626     8.461
    14   7 N        2.734    -0.098    23.152     7.146
    15   6 C        3.696    -0.036    21.383     6.615
    16   6 C        3.697    -0.041    21.480     6.629
    17   6 C        2.923    -0.062    29.536     8.912
    18   6 C        2.926    -0.031    28.781     8.798
    19   6 C        2.883    -0.085    30.131     8.999
    20   5 B        2.704     0.261    17.573     7.032
    21   6 C        2.883    -0.080    29.996     8.979
    22   6 C        2.972     0.000    28.018     8.683
    23   6 C        3.759    -0.111    22.673     6.789
    24   6 C        2.967     0.001    28.009     8.681
    25   6 C        3.758    -0.101    22.481     6.760
    26   6 C        2.931    -0.048    29.196     8.861
    27   6 C        2.966     0.003    27.950     8.672
    28   6 C        3.758    -0.104    22.533     6.768
    29   6 C        2.985     0.004    27.937     8.670
    30   6 C        3.811    -0.047    21.401     6.585
    31   6 C        1.974    -0.045    32.283     9.176
    32   6 C        1.980    -0.060    32.665     9.230
    33   6 C        2.970     0.023    27.480     8.599
    34   6 C        2.927    -0.031    28.778     8.797
    35   6 C        2.923    -0.061    29.505     8.908
    36   6 C        2.915     0.060    26.666     8.468
    37   7 N        2.732    -0.112    23.437     7.190
    38   6 C        3.699    -0.037    21.394     6.615
    39   6 C        3.698    -0.037    21.407     6.617
    40   6 C        2.923    -0.060    29.498     8.907
    41   6 C        2.927    -0.032    28.798     8.801
    42   6 C        2.886    -0.082    30.042     8.986
    43   6 C        2.971    -0.005    28.136     8.701
    44   6 C        3.758    -0.110    22.646     6.785
    45   6 C        2.966    -0.002    28.083     8.692
    46   6 C        3.758    -0.103    22.528     6.767
    47   6 C        2.929    -0.055    29.355     8.885
    48   6 C        2.964     0.001    28.012     8.681
    49   6 C        3.757    -0.103    22.519     6.766
    50   6 C        2.981     0.001    28.005     8.681
    51   6 C        3.810    -0.047    21.401     6.585
    52   6 C        1.968    -0.045    32.271     9.174
    53   6 C        1.981    -0.061    32.698     9.234
    54   6 C        2.970     0.023    27.480     8.599
    55   6 C        2.928    -0.030    28.758     8.794
    56   6 C        2.923    -0.062    29.536     8.912
    57   6 C        2.914     0.058    26.703     8.474
    58   7 N        2.733    -0.106    23.323     7.173
    59   6 C        3.698    -0.037    21.408     6.618
    60   6 C        3.697    -0.037    21.406     6.618
    61   6 C        2.923    -0.063    29.579     8.919
    62   6 C        2.925    -0.032    28.787     8.799
    63   6 C        2.971    -0.002    28.063     8.689
    64   6 C        3.758    -0.112    22.694     6.792
    65   1 H        0.924     0.038     2.479     2.462
    66   1 H        0.925     0.041     2.439     2.442
    67   1 H        0.925     0.035     2.518     2.481
    68   1 H        0.925     0.021     2.719     2.579
    69   1 H        0.925     0.034     2.535     2.490
    70   1 H        0.924     0.036     2.499     2.472
    71   1 H        0.925     0.048     2.346     2.395
    72   1 H        0.924     0.051     2.310     2.377
    73   1 H        0.924     0.063     2.166     2.302
    74   1 H        0.926     0.019     2.748     2.592
    75   1 H        0.926     0.020     2.736     2.586
    76   1 H        0.924     0.048     2.348     2.396
    77   1 H        0.925     0.040     2.450     2.448
    78   1 H        0.923     0.032     2.557     2.501
    79   1 H        0.925     0.042     2.425     2.435
    80   1 H        0.924     0.035     2.515     2.480
    81   1 H        0.924     0.053     2.280     2.361
    82   1 H        0.926     0.019     2.748     2.592
    83   1 H        0.926     0.022     2.708     2.573
    84   1 H        0.925     0.037     2.489     2.467
    85   1 H        0.925     0.041     2.434     2.440
    86   1 H        0.924     0.041     2.436     2.441
    87   1 H        0.925     0.042     2.418     2.432
    88   1 H        0.925     0.033     2.541     2.493
    89   1 H        0.924     0.034     2.529     2.487
    90   1 H        0.925     0.018     2.757     2.596
    91   1 H        0.925     0.049     2.327     2.385
    92   1 H        0.924     0.034     2.533     2.489
    93   1 H        0.925     0.032     2.558     2.501
    94   1 H        0.924     0.048     2.350     2.397
    95   1 H        0.925     0.057     2.240     2.341
    96   1 H        0.926     0.030     2.584     2.514
    97   1 H        0.926     0.020     2.730     2.584
    98   1 H        0.924     0.033     2.549     2.497
    99   1 H        0.924     0.044     2.393     2.419
   100   1 H        0.925     0.042     2.424     2.435
   101   1 H        0.923     0.029     2.594     2.519
   102   1 H        0.925     0.050     2.323     2.383
   103   1 H        0.925     0.040     2.443     2.444
   104   1 H        0.926     0.019     2.748     2.592
   105   1 H        0.926     0.019     2.751     2.594
   106   1 H        0.924     0.038     2.475     2.460
   107   1 H        0.925     0.043     2.406     2.426
   108   1 H        0.924     0.034     2.536     2.490
   109   1 H        0.925     0.038     2.476     2.460
   110   1 H        0.925     0.038     2.470     2.457
   111   1 H        0.925     0.034     2.530     2.487
   112   1 H        0.925     0.019     2.742     2.590
   113   1 H        0.925     0.047     2.363     2.404
   114   1 H        0.924     0.037     2.494     2.469
   115   1 H        0.925     0.033     2.543     2.494
   116   1 H        0.924     0.064     2.156     2.296
   117   1 H        0.924     0.052     2.290     2.367
   118   1 H        0.926     0.027     2.624     2.533
   119   1 H        0.926     0.019     2.744     2.590
   120   1 H        0.924     0.032     2.555     2.500
   121   1 H        0.925     0.043     2.414     2.429
   122   1 H        0.924     0.046     2.370     2.407
   123   1 H        0.925     0.043     2.415     2.430
   124   1 H        0.924     0.032     2.560     2.502
   125   1 H        0.924     0.046     2.365     2.405
   126   1 H        0.926     0.019     2.752     2.594
   127   1 H        0.926     0.020     2.738     2.588
   128   1 H        0.925     0.045     2.380     2.412
   129   1 H        0.925     0.039     2.469     2.457
   130   1 H        0.924     0.040     2.447     2.446

molecular dipole:
                 x           y           z       tot (Debye)
 q only:       -1.266      -0.762       0.179
   full:       -1.300      -0.909       0.339       4.123

 projected vibrational frequencies (cm⁻¹)
eigval :       -0.00    -0.00    -0.00     0.00     0.00     0.00
eigval :        7.06     9.30    13.46    15.57    19.81    21.39
eigval :       27.14    29.55    32.78    34.67    36.79    39.06
eigval :       40.14    43.80    50.31    52.88    53.82    60.44
eigval :       62.16    69.39    71.95    73.99    76.65    78.18
eigval :       85.59    87.80    93.42   106.21   107.19   109.85
eigval :      115.41   118.81   122.40   129.56   135.64   140.31
eigval :      142.75   149.62   151.11   154.11   165.97   166.65
eigval :      168.24   170.00   171.78   174.74   180.62   184.88
eigval :      186.07   190.78   194.97   204.42   207.36   215.78
eigval :      220.14   222.19   236.69   243.24   254.44   254.99
eigval :      263.90   270.80   275.09   280.02   282.13   284.11
eigval :      288.33   290.58   295.33   304.19   310.18   316.41
eigval :      327.38   333.40   339.59   340.86   353.10   356.20
eigval :      368.98   377.89   379.32   380.03   381.29   383.51
eigval :      388.35   391.44   398.74   404.72   406.48   411.26
eigval :      421.55   422.53   424.24   439.78   442.58   446.36
eigval :      458.22   474.40   476.06   476.60   478.42   479.70
eigval :      482.94   490.15   496.73   499.77   502.68   505.72
eigval :      511.46   513.66   516.07   530.43   541.35   543.54
eigval :      579.74   581.56   583.32   613.26   613.47   614.10
eigval :      614.47   644.06   644.73   649.73   658.87   662.43
eigval :      664.80   665.53   671.72   680.38   695.16   713.93
eigval :      726.89   742.92   750.65   781.83   785.88   786.77
eigval :      789.26   789.78   790.64   838.80   842.54   842.69
eigval :      844.38   859.71   860.39   862.86   863.41   865.65
eigval :      868.64   891.56   895.80   897.90   907.31   912.69
eigval :      914.80   915.58   918.04   941.95   964.70   965.96
eigval :      966.25   981.76   986.68  1000.44  1001.05  1002.18
eigval :     1012.56  1013.40  1014.24  1020.48  1021.61  1022.25
eigval :     1025.54  1027.48  1028.46  1030.26  1033.92  1035.26
eigval :     1036.68  1037.97  1038.54  1040.31  1040.48  1042.30
eigval :     1042.60  1054.00  1056.07  1058.58  1074.01  1083.00
eigval :     1089.18  1095.26  1096.31  1096.68  1099.14  1101.01
eigval :     1101.51  1101.61  1109.81  1138.16  1143.21  1150.43
eigval :     1156.07  1156.67  1157.87  1173.00  1173.46  1175.09
eigval :     1193.92  1201.44  1207.56  1213.44  1214.15  1216.27
eigval :     1242.40  1242.81  1246.27  1258.19  1264.85  1268.75
eigval :     1270.11  1274.66  1276.26  1287.72  1287.94  1290.51
eigval :     1298.36  1300.33  1302.79  1307.41  1310.63  1314.21
eigval :     1326.25  1329.45  1331.04  1331.51  1334.46  1335.87
eigval :     1360.46  1367.38  1374.61  1398.37  1401.10  1401.71
eigval :     1402.54  1404.27  1405.16  1406.34  1407.28  1408.05
eigval :     1408.82  1410.92  1411.89  1413.99  1416.58  1418.34
eigval :     1419.79  1420.62  1421.57  1435.25  1435.66  1437.20
eigval :     1439.48  1439.53  1445.24  1447.92  1449.21  1452.52
eigval :     1475.65  1477.02  1477.47  1478.40  1478.66  1483.10
eigval :     1483.61  1484.70  1485.09  1485.63  1485.96  1486.60
eigval :     1487.87  1489.20  1490.44  1493.39  1495.16  1496.20
eigval :     1497.05  1498.53  1498.60  1498.96  1500.30  1500.79
eigval :     1501.00  1503.26  1510.18  1510.51  1511.38  1513.22
eigval :     1514.92  1515.71  1516.67  1549.31  1549.58  1551.57
eigval :     1563.28  1566.33  1569.86  1584.47  1586.83  1589.88
eigval :     1608.13  1608.91  1611.35  2362.82  2364.93  2368.60
eigval :     2886.07  2888.14  2890.36  2894.37  2901.29  2910.61
eigval :     2927.82  2933.63  2941.51  2967.47  2974.42  2974.66
eigval :     2978.46  2978.60  2979.85  2981.32  2983.75  2985.49
eigval :     2985.53  2988.42  2990.08  2992.21  2992.60  2993.19
eigval :     2998.23  3000.76  3003.32  3008.10  3009.06  3015.11
eigval :     3015.59  3016.03  3017.87  3017.99  3018.93  3024.54
eigval :     3024.89  3025.37  3028.56  3029.00  3031.22  3032.24
eigval :     3034.23  3035.35  3036.58  3037.33  3037.77  3038.59
eigval :     3057.95  3058.20  3059.20  3069.64  3070.71  3071.55
eigval :     3074.48  3076.83  3084.86  3089.29  3097.67  3100.99
eigval :     3104.93  3105.17  3107.19  3107.41  3109.05  3111.81

   temp. (K)  partition function   enthalpy   heat capacity  entropy
                                   cal/mol     cal/K/mol   cal/K/mol   J/K/mol
 298.15  VIB  0.156E+35            41714.975    238.630    267.286
         ROT  0.143E+09              888.752      2.981     40.297
         INT  0.223E+43            42603.727    241.611    307.584
         TR   0.236E+29             1481.254      4.968     46.041
         TOT                       44084.9811   246.5787   353.6246  1479.5654

       T/K    H(0)-H(T)+PV         H(T)/Eh          T*S/Eh         G(T)/Eh
   ------------------------------------------------------------------------
    298.15    0.702539E-01    0.114594E+01    0.168018E+00    0.977924E+00
   ------------------------------------------------------------------------

         :::::::::::::::::::::::::::::::::::::::::::::::::::::
         ::                  THERMODYNAMIC                  ::
         :::::::::::::::::::::::::::::::::::::::::::::::::::::
         :: total free energy        -171.054154374268 Eh   ::
         ::.................................................::
         :: total energy             -172.032077922783 Eh   ::
         :: zero point energy           1.075688126132 Eh   ::
         :: G(RRHO) w/o ZPVE           -0.097764577617 Eh   ::
         :: G(RRHO) contrib.            0.977923548515 Eh   ::
         :::::::::::::::::::::::::::::::::::::::::::::::::::::

           -------------------------------------------------
          | TOTAL ENERGY             -172.032077922783 Eh   |
          | TOTAL ENTHALPY           -170.886135907488 Eh   |
          | TOTAL FREE ENERGY        -171.054154374268 Eh   |
          | GRADIENT NORM               0.000097306486 Eh/α |
          | HOMO-LUMO GAP               1.974504544900 eV   |
           -------------------------------------------------

 * finished run on 2025/08/29 at 15:28:09.652
