   * xtb version 6.7.1 (edcfbbe) compiled by 'albert@albert-system' on 2024-07-22

   ID    Z sym.   atoms
    1    6 C      1-13, 15-19, 21-36, 38-57, 59-64
    2    7 N      14, 37, 58
    3    5 B      20
    4    1 H      65-130

          program call               : xtb data2507/gas/TMAB/TMAB_gas_S0_finalOpt.xtbopt.xyz --gfn 2 --spinpol --tblite --uhf 2 --ohess vtight --parallel 40 --molden --ceasefiles --namespace data2507/gas/TMAB/TMAB_gas_T1_preOpt
 * total energy  :  -171.9334305 Eh     change        0.7417347E-07 Eh
 * total energy  :  -171.9354722 Eh     change       -0.2041685E-02 Eh
 * total energy  :  -171.9362148 Eh     change       -0.7425914E-03 Eh
 * total energy  :  -171.9364677 Eh     change       -0.2529397E-03 Eh
 * total energy  :  -171.9368503 Eh     change       -0.3825566E-03 Eh
 * total energy  :  -171.9370854 Eh     change       -0.2351305E-03 Eh
 * total energy  :  -171.9372878 Eh     change       -0.2023892E-03 Eh
 * total energy  :  -171.9374583 Eh     change       -0.1705091E-03 Eh
 * total energy  :  -171.9375944 Eh     change       -0.1360765E-03 Eh
 * total energy  :  -171.9377102 Eh     change       -0.1158039E-03 Eh
 * total energy  :  -171.9382949 Eh     change       -0.2709005E-06 Eh
 * total energy  :  -171.9382951 Eh     change       -0.1589434E-06 Eh
 * total energy  :  -171.9382954 Eh     change       -0.2892101E-06 Eh
 * total energy  :  -171.9382956 Eh     change       -0.2086239E-06 Eh
 * total energy  :  -171.9382958 Eh     change       -0.1906299E-06 Eh
 * total energy  :  -171.9382957 Eh     change        0.4138076E-07 Eh
 * total energy  :  -171.9382959 Eh     change       -0.2021786E-06 Eh
 * total energy  :  -171.9382961 Eh     change       -0.1757628E-06 Eh
 * total energy  :  -171.9382962 Eh     change       -0.4599573E-07 Eh
   *** GEOMETRY OPTIMIZATION CONVERGED AFTER 113 ITERATIONS ***

 final structure:
================
130
 xtb: 6.7.1 (edcfbbe)
C            4.35243867127486        3.45601460601557        4.24487621819843
C            3.73507219691489        3.50131444472223        2.87611084987897
C            3.10391244619434        4.66317710395301        2.45508554817375
C            2.54207484804801        4.76237818450479        1.18558419884287
C            1.86351639820695        6.03945745896712        0.77980307741243
C            2.59723398887611        3.67045475785640        0.32946135674679
C            1.92060408110865        3.78689137431939       -1.01792536709004
C            0.49293787886846        3.60287095922396       -0.87426295664051
C           -0.68130099732956        3.39464873131443       -0.69628482407261
C           -2.06436155623301        3.16916488435158       -0.53682838604657
C           -2.84188791397995        2.70767907512987       -1.59982327124104
C           -4.19447636727012        2.50397703692551       -1.45264703291953
C           -4.83779743448748        2.75777025987793       -0.23168738584428
N           -6.18894151614158        2.57167800690804       -0.09034038352099
C           -6.82242944681446        2.73353242381575        1.19184170030183
C           -7.01579823629823        2.30434799494392       -1.23990762538498
C           -4.04614287125075        3.21227070329551        0.83488437562424
C           -2.69275797295153        3.40814292981646        0.68585731710935
C            3.15885850535834        2.44457519362515        0.75548196877642
B            2.98292307142885        1.10852686568775       -0.05411053492587
C            2.63893715579000       -0.22133408408258        0.68105926346254
C            3.36361740709572       -1.41935286764652        0.40632606738844
C            4.44941440186378       -1.41193283865544       -0.62926396155783
C            3.09558210934388       -2.59269376417723        1.09486274210153
C            3.81958564072182       -3.87653039288648        0.79879157370955
C            2.14955799173410       -2.58623188217693        2.11325180158027
C            1.42666085070446       -1.43943179966988        2.42521706561368
C            0.42561144088014       -1.49309099462702        3.54352542113522
C            1.64895532583283       -0.28014626728772        1.69716090121904
C            0.74176956720636        0.90267076467869        1.96233298492693
C           -0.58664606518183        0.58304381756119        1.48307719990378
C           -1.65877572597979        0.25520467181032        1.04327738251537
C           -2.91615464101385       -0.12575583049857        0.52808791067963
C           -3.03173122951538       -0.58319885526367       -0.78361479547901
C           -4.25453587960926       -0.95118233623972       -1.29892056413167
C           -5.42178263462330       -0.88258000082520       -0.52712166924932
N           -6.66524679475361       -1.17829623013916       -1.07131328797164
C           -6.71899967673322       -1.90679582128550       -2.31848630586499
C           -7.78546900497814       -1.36828503638479       -0.17940669655615
C           -5.29052623450135       -0.45190658570494        0.79865955041012
C           -4.06778263492003       -0.07447884490817        1.31048867183096
C            3.19699296471497        1.11288262973918       -1.61386719857830
C            4.37654870458503        1.57990472935957       -2.23777993553388
C            5.40138573496542        2.36560026051092       -1.47447353800232
C            4.62877585087108        1.25921705935512       -3.56573504891611
C            5.89755886658621        1.70047039993093       -4.23468957839424
C            3.70344272285889        0.50376019135366       -4.28519234159576
C            2.49311861329906        0.11765575179802       -3.72719141399676
C            1.49316385303358       -0.63948276123807       -4.55341680250282
C            2.21611706834781        0.48082827186036       -2.41535887596544
C            0.82991281765129        0.26531030402657       -1.85279097244418
C            0.64790505975646       -1.06942747686909       -1.33449549340363
C            0.48223185687282       -2.18969090533899       -0.92085948689107
C            0.27171631920005       -3.45838504662800       -0.35097389439017
C           -0.58778681983341       -3.59783977943266        0.74259989629869
C           -0.77095063019965       -4.82135065520856        1.34212343599907
C           -0.10462283646271       -5.96560604589962        0.87425583042880
N           -0.27071997720968       -7.18581768902508        1.47982676020953
C            0.64177723784889       -8.27256266589226        1.23142495618980
C           -1.33277411247349       -7.41427364737223        2.42515152571048
C            0.73489132570226       -5.82124377067758       -0.24166865731493
C            0.91488138212235       -4.59587076263226       -0.84096832976338
C            3.80261347134035        2.40686552084625        2.02100505504674
C            4.57312514845903        1.19517407482624        2.45508831385302
H            5.44102302836647        3.42858721153687        4.18028174700659
H            4.02668959332119        2.57059401250096        4.78883142308720
H            4.07055827211521        4.33790482150432        4.81604675206390
H            3.06324057388850        5.51598139680618        3.11829110941125
H            1.83488646531721        6.73384393163633        1.61657749383347
H            2.39581324161674        6.52161989912172       -0.04175255563645
H            0.84145492724095        5.84710493129550        0.45357507253322
H            2.12010770543610        4.76262937254698       -1.46925519803977
H            2.30427725084207        3.01821654471390       -1.69267926968254
H           -2.36981170727352        2.50612323633207       -2.55077723341266
H           -4.75319524793596        2.12799440555268       -2.29395683392232
H           -6.28671185520368        2.16795291219986        1.95691756086417
H           -7.84183526697017        2.35542799300891        1.14373095556270
H           -6.86187103039339        3.78596808991866        1.49933864075954
H           -8.06373681027128        2.39714726087481       -0.96262741894715
H           -6.81459323660266        3.02260369956083       -2.03971522337267
H           -6.84842439725472        1.29287174665731       -1.62371441732980
H           -4.49169482906035        3.42746227474414        1.79245954112892
H           -2.10438988827309        3.75725222386510        1.52187681140760
H            5.18205448727123       -2.19225769863559       -0.44170612634300
H            4.96114649566540       -0.45403241508968       -0.64219283874591
H            4.02670487348757       -1.57102493276024       -1.62227017506884
H            3.79644756820227       -4.10058301194339       -0.26564972972260
H            3.35070728095689       -4.70087095923300        1.33227869238311
H            4.86288711956108       -3.81852594271755        1.11332687626916
H            1.96549562749774       -3.49499265744857        2.67043438952217
H           -0.56055977371774       -1.18705135914767        3.19812436232739
H            0.71810133940762       -0.82399970752275        4.35460866746653
H            0.35839034342679       -2.50294440589210        3.94259522293895
H            0.70341828140693        1.13394379903346        3.03130018290280
H            1.09479914989027        1.78952742009038        1.43701965038096
H           -2.14319318575391       -0.65781662846701       -1.39241913541317
H           -4.29010255571452       -1.29854028865108       -2.31861251797811
H           -6.21126781614706       -2.87790558279374       -2.26224539467082
H           -6.26089906682912       -1.32033535639262       -3.11642035741358
H           -7.75925509057532       -2.07712451486232       -2.58923279796010
H           -7.62891314396832       -2.19303000403281        0.52781801089001
H           -7.97203514888263       -0.45418635923580        0.38536554235019
H           -8.67705049061612       -1.58273843655640       -0.76579410757997
H           -6.14905521948578       -0.41075787297750        1.44920441539936
H           -3.99595141368322        0.25940463086046        2.33643071884957
H            5.47368233138907        3.38029344243754       -1.86813891048061
H            5.13452521960923        2.42977057631409       -0.42376756938737
H            6.38682543682756        1.90748216142736       -1.56240610376965
H            6.76658708605516        1.24971291273121       -3.75398302487930
H            6.01140097245971        2.78258643336979       -4.17561068596279
H            5.89826531896698        1.40922613871746       -5.28256696969329
H            3.91791408027348        0.24806752461851       -5.31368872293694
H            1.09274627617842       -1.48447466702592       -3.99485473107414
H            0.65862220667870        0.00415362841504       -4.83736285614666
H            1.95764107559681       -1.00917076194705       -5.46511665980834
H            0.65065456086570        0.97053510162986       -1.03614797025032
H            0.08284657069827        0.45315647557711       -2.63133143324398
H           -1.09739486607219       -2.72387832578598        1.11911334540607
H           -1.41963433840040       -4.88392428752949        2.20148690518477
H            1.66276908221769       -7.90007109432069        1.13610717011992
H            0.61457169252820       -8.96514900614939        2.07154632057839
H            0.38377061738363       -8.82509288780539        0.31961874764309
H           -1.53539455815598       -8.48271555616566        2.48579069559224
H           -1.07720104345588       -7.05266263411434        3.42902343416321
H           -2.24651324438549       -6.91677827705044        2.09752390352415
H            1.24037386773675       -6.68004137878262       -0.65440846976793
H            1.56440513781333       -4.50797388329319       -1.70009249068079
H            4.86398445547719        0.59560554779220        1.59801213025227
H            5.47131940508323        1.48342859356112        2.99913455499925
H            3.97045802774316        0.56434409911384        3.11053126080585

 projected vibrational frequencies (cm⁻¹)
eigval :       -0.00    -0.00    -0.00     0.00     0.00     0.00
eigval :        6.63     7.74    14.44    14.86    19.11    24.74
eigval :       25.60    29.25    30.89    32.36    35.09    36.44
eigval :       41.60    42.82    50.01    52.09    54.86    59.04
eigval :       60.90    65.65    71.13    72.07    77.44    78.28
eigval :       80.08    85.32    90.26    97.44    98.10   102.36
eigval :      104.63   106.42   122.47   134.44   136.70   141.70
eigval :      143.69   147.19   153.41   156.79   158.57   162.27
eigval :      163.73   165.88   169.81   172.42   172.84   179.56
eigval :      182.26   188.18   189.40   191.85   197.54   204.39
eigval :      206.20   209.71   230.35   234.19   235.30   252.31
eigval :      265.42   268.54   276.49   277.96   279.49   280.50
eigval :      284.10   288.95   293.17   302.36   307.11   315.10
eigval :      320.77   326.03   337.52   343.54   346.89   352.53
eigval :      362.66   366.83   369.33   376.92   377.21   379.97
eigval :      385.12   386.17   391.86   395.90   397.32   409.52
eigval :      421.32   425.79   427.32   434.28   436.40   442.69
eigval :      447.77   466.45   472.23   472.59   475.98   477.04
eigval :      479.53   486.45   488.63   498.81   500.28   505.26
eigval :      506.20   507.88   516.93   522.67   526.64   533.89
eigval :      561.77   564.90   570.58   585.35   610.80   611.83
eigval :      613.82   624.89   631.88   640.36   649.71   661.88
eigval :      663.27   665.49   666.28   668.16   682.51   696.20
eigval :      714.93   730.37   737.19   784.69   786.55   786.95
eigval :      788.09   789.86   795.13   807.15   816.72   818.60
eigval :      835.25   839.05   842.61   843.99   855.54   858.70
eigval :      862.50   893.58   895.67   896.33   903.19   908.54
eigval :      910.45   912.25   917.55   930.66   945.12   964.05
eigval :      965.65   967.40   978.47   998.66   999.23  1000.78
eigval :     1006.30  1007.60  1008.85  1012.68  1014.16  1017.07
eigval :     1017.98  1022.65  1023.17  1023.47  1028.50  1029.81
eigval :     1031.62  1032.13  1032.49  1034.45  1035.58  1039.53
eigval :     1044.51  1049.13  1050.88  1051.18  1056.18  1074.97
eigval :     1082.94  1084.75  1085.11  1090.31  1091.81  1094.42
eigval :     1099.63  1103.33  1109.53  1122.06  1123.88  1136.78
eigval :     1150.28  1154.60  1157.21  1169.44  1170.29  1171.84
eigval :     1173.36  1180.39  1193.01  1204.45  1208.54  1214.78
eigval :     1223.75  1234.77  1238.02  1244.09  1247.58  1253.98
eigval :     1258.89  1262.94  1269.10  1275.46  1275.74  1284.23
eigval :     1286.93  1290.40  1299.35  1301.99  1305.18  1307.93
eigval :     1311.45  1311.85  1319.12  1330.67  1331.40  1335.53
eigval :     1356.88  1376.80  1378.02  1378.76  1384.09  1385.80
eigval :     1388.36  1398.39  1399.26  1401.62  1402.98  1403.73
eigval :     1404.38  1404.62  1407.16  1407.65  1408.39  1408.82
eigval :     1411.19  1411.39  1417.30  1419.49  1421.86  1422.65
eigval :     1424.20  1426.48  1429.71  1431.36  1434.50  1436.15
eigval :     1473.85  1476.40  1477.10  1477.22  1479.50  1479.94
eigval :     1480.21  1481.77  1482.26  1484.40  1484.64  1485.12
eigval :     1488.46  1489.00  1491.91  1493.29  1493.78  1495.32
eigval :     1495.56  1495.84  1497.01  1497.87  1498.26  1500.26
eigval :     1500.88  1501.12  1501.61  1507.50  1508.10  1508.66
eigval :     1510.86  1511.25  1512.62  1514.28  1515.63  1528.68
eigval :     1532.31  1533.63  1534.13  1538.63  1546.13  1549.07
eigval :     1592.87  1594.15  1604.13  2325.92  2329.52  2344.15
eigval :     2893.90  2900.77  2901.41  2901.68  2904.65  2920.82
eigval :     2933.09  2933.34  2942.29  2956.02  2957.72  2962.63
eigval :     2976.32  2976.37  2977.63  2979.46  2979.71  2979.94
eigval :     2981.46  2984.70  2984.79  2984.85  2985.87  2989.82
eigval :     2990.52  2992.59  2998.07  3004.39  3005.64  3006.98
eigval :     3009.51  3012.12  3014.59  3015.20  3016.65  3019.21
eigval :     3021.14  3021.22  3021.79  3028.34  3029.02  3029.47
eigval :     3030.72  3031.45  3031.59  3033.09  3034.97  3040.46
eigval :     3050.66  3053.07  3055.57  3059.19  3060.37  3060.83
eigval :     3068.16  3075.90  3076.00  3081.89  3091.84  3092.60
eigval :     3099.55  3103.68  3104.42  3107.25  3108.91  3109.91

   temp. (K)  partition function   enthalpy   heat capacity  entropy
                                   cal/mol     cal/K/mol   cal/K/mol   J/K/mol
 298.15  VIB  0.766E+35            42206.580    240.366    271.257
         ROT  0.139E+09              888.752      2.981     40.247
         INT  0.107E+44            43095.332    243.347    311.503
         TR   0.236E+29             1481.254      4.968     46.041
         TOT                       44576.5861   248.3152   357.5443  1495.9653

       T/K    H(0)-H(T)+PV         H(T)/Eh          T*S/Eh         G(T)/Eh
   ------------------------------------------------------------------------
    298.15    0.710373E-01    0.114108E+01    0.169881E+00    0.971195E+00
   ------------------------------------------------------------------------

         :::::::::::::::::::::::::::::::::::::::::::::::::::::
         ::                  THERMODYNAMIC                  ::
         :::::::::::::::::::::::::::::::::::::::::::::::::::::
         :: total free energy        -170.967100884707 Eh   ::
         ::.................................................::
         :: total energy             -171.938296233050 Eh   ::
         :: zero point energy           1.070038864330 Eh   ::
         :: G(RRHO) w/o ZPVE           -0.098843515987 Eh   ::
         :: G(RRHO) contrib.            0.971195348343 Eh   ::
         :::::::::::::::::::::::::::::::::::::::::::::::::::::

           -------------------------------------------------
          | TOTAL ENERGY             -171.938296233050 Eh   |
          | TOTAL ENTHALPY           -170.797220057085 Eh   |
          | TOTAL FREE ENERGY        -170.967100884707 Eh   |
          | GRADIENT NORM               0.000100098767 Eh/α |
           -------------------------------------------------

 * finished run on 2025/08/29 at 15:28:50.683
