   * xtb version 6.7.1 (edcfbbe) compiled by 'albert@albert-system' on 2024-07-22

   ID    Z sym.   atoms
    1    6 C      1-9, 11-33, 35-48, 50-56
    2    7 N      10, 34, 49
    3    1 H      57-93

          program call               : xtb data2507/gas/mP2MPC/mP2MPC_gas_T1_crest.xyz --gfn 2 --spinpol --tblite --uhf 2 --ohess vtight --parallel 40 --molden --ceasefiles --namespace data2507/gas/mP2MPC/mP2MPC_gas_T1_finalOpt
 * total energy  :  -141.1369551 Eh     change       -0.2085773E-07 Eh
 * total energy  :  -141.1369669 Eh     change       -0.1178817E-04 Eh
 * total energy  :  -141.1369725 Eh     change       -0.5630257E-05 Eh
 * total energy  :  -141.1369740 Eh     change       -0.1438336E-05 Eh
 * total energy  :  -141.1369765 Eh     change       -0.2492496E-05 Eh
 * total energy  :  -141.1369792 Eh     change       -0.2782035E-05 Eh
 * total energy  :  -141.1369827 Eh     change       -0.3448935E-05 Eh
 * total energy  :  -141.1369873 Eh     change       -0.4654596E-05 Eh
 * total energy  :  -141.1369936 Eh     change       -0.6289599E-05 Eh
 * total energy  :  -141.1370010 Eh     change       -0.7385482E-05 Eh
 * total energy  :  -141.1370779 Eh     change       -0.6363514E-06 Eh
 * total energy  :  -141.1370784 Eh     change       -0.4983548E-06 Eh
 * total energy  :  -141.1370790 Eh     change       -0.5404483E-06 Eh
 * total energy  :  -141.1370794 Eh     change       -0.4741759E-06 Eh
 * total energy  :  -141.1370800 Eh     change       -0.5655550E-06 Eh
 * total energy  :  -141.1370806 Eh     change       -0.6026615E-06 Eh
 * total energy  :  -141.1370813 Eh     change       -0.7094298E-06 Eh
 * total energy  :  -141.1370820 Eh     change       -0.7235331E-06 Eh
 * total energy  :  -141.1370820 Eh     change       -0.7989115E-08 Eh
   *** GEOMETRY OPTIMIZATION CONVERGED AFTER 68 ITERATIONS ***

 final structure:
================
93
 xtb: 6.7.1 (edcfbbe)
C           -0.01874370928237        1.39254238312715        1.75817007266110
C            0.89104591607891        0.60033776276638        0.86786883789625
C            2.13162510875007        1.11785998834121        0.53049922357117
C            3.03805783497320        0.43030902290871       -0.26946210669713
C            4.32869337446571        1.07546980938871       -0.57569264047283
C            4.34762053276213        2.35445389680769       -1.12726595671505
C            5.54845585631721        2.98423436478742       -1.39813779073227
C            6.74791240861041        2.35489227490513       -1.11943631930638
C            6.74148990278765        1.08378948354089       -0.55299882856821
N            7.95346338018351        0.44389904686660       -0.25027068514790
C            8.31309232734913       -0.83107632918244       -0.63522693740159
C            7.62396755316387       -1.74444782828772       -1.42022528234789
C            8.22907840035516       -2.95902143264823       -1.67963751214363
C            9.49447764018734       -3.26216938701858       -1.18186124198931
C           10.19606663793703       -2.34774871713088       -0.42138531020871
C            9.60831662940781       -1.12030771439134       -0.14644177849781
C           10.04187438237076        0.04533563428148        0.57177243360117
C           11.19681152146493        0.36030093848094        1.27496496767698
C           11.28588822542269        1.59803738739103        1.88041667344918
C           10.23587627009455        2.51057261156635        1.80370927260680
C            9.07678472762296        2.22044166444805        1.11007856723792
C            8.99093057669706        0.98723440420758        0.47936378828896
C            5.53444276857460        0.44944114651299       -0.28407952507825
C            2.69193641978379       -0.83097072202808       -0.76109677571848
C            3.59910407060640       -1.61491141069258       -1.66299908354995
C            1.45333611008764       -1.35041712148949       -0.42088508680086
C            0.54444090416373       -0.66130007577723        0.37495408014770
C           -0.75568092414045       -1.29379773677604        0.66249747561769
C           -0.79289472068187       -2.60276374119926        1.17580949499528
C           -2.01733735707242       -3.20344249032833        1.45296868785409
C           -3.20240803874225       -2.56131442235098        1.19627579051563
C           -3.19850097603663       -1.25594705533945        0.62801975081441
C           -4.33559903433153       -0.50147006899120        0.31007876684796
N           -4.27061656791163        0.83829834797834        0.12762622977638
C           -5.50359869374951        1.27166040666276       -0.00630286789452
C           -5.93941193033553        2.62280317743821       -0.14728550038948
C           -5.02225922085196        3.67235742059953       -0.09396524520637
C           -5.45217177671985        4.98182699233039       -0.18737974109319
C           -6.80725612383060        5.23762798038773       -0.32463014911919
C           -7.72357010625508        4.20112639022379       -0.38559094657930
C           -7.32340136314583        2.86312613152275       -0.31088500298226
C           -8.25491904229592        1.74892683171529       -0.41631431343381
C           -9.60265893989305        1.95292231729447       -0.69143981161146
C          -10.49798353518247        0.90812890725448       -0.83963927968794
C          -10.05024196296352       -0.41156466472899       -0.73842236352345
C           -8.73708595300253       -0.66686275877927       -0.46102998952178
C           -7.80091523609123        0.38562933411758       -0.26805814384158
C           -6.45187047882254        0.18015711145001        0.01558207947488
N           -5.68530397141058       -0.94515284139704        0.22305380850355
C           -6.09297100219553       -2.28154431468191        0.26197123364056
C           -7.01715184733463       -2.71264918114986        1.21583441949655
C           -7.39435638541310       -4.04024756265086        1.25637450222371
C           -6.85754182790278       -4.94949938349072        0.35637215878382
C           -5.93618534698236       -4.52381039360935       -0.58825238525581
C           -5.55078468347804       -3.19886565825953       -0.64026002072359
C           -1.93526553401679       -0.64039091571859        0.40261563753954
H           -0.62834334772663        2.07683012094330        1.16834580122113
H           -0.68954560854365        0.74189266382323        2.31351235892025
H            0.56470187221665        1.98584596686114        2.45967607745243
H            2.41727546062315        2.08724234485965        0.91596458950297
H            3.41311221315523        2.84537437888288       -1.35497633166258
H            5.55223835946166        3.97119222863014       -1.83698376908854
H            7.68814978255819        2.83421951907691       -1.34675163549182
H            6.65255384576461       -1.51063273045297       -1.82711572083842
H            7.71122302213084       -3.68778623484972       -2.28589006819697
H            9.93284479591922       -4.22352423834110       -1.40502118260165
H           11.18364287996181       -2.57625057029040       -0.04982526283882
H           12.00432743971153       -0.35265845792549        1.34719538263154
H           12.17670187888736        1.86391881601665        2.42988256496486
H           10.32874688423929        3.46513527061144        2.30051671508451
H            8.26148792301274        2.92705495061988        1.07007673751084
H            5.53865944242065       -0.52249447113619        0.18559804002198
H            4.24965790961939       -2.26782949522942       -1.07989291883426
H            3.01371624692849       -2.24273586771353       -2.33165861154873
H            4.22169546593745       -0.95200060907561       -2.26016039262140
H            1.16833009951643       -2.31920415356251       -0.80806077681241
H            0.13008913727805       -3.12139213647877        1.38537367330048
H           -2.03485354955729       -4.19229798649261        1.88909188110696
H           -4.13134391227859       -3.03092688276296        1.47269922592315
H           -3.97907717184165        3.42659642066641        0.02842519313156
H           -4.74376123650301        5.79536160971703       -0.14727865667470
H           -7.15926524382359        6.25729282438157       -0.38698002866337
H           -8.76613466703187        4.45550658362691       -0.48972085254640
H           -9.98049497217358        2.95603647199080       -0.80965242584834
H          -11.53617369978631        1.11374765817027       -1.05096639549939
H          -10.74125701125946       -1.22830945607228       -0.88615951047221
H           -8.39356534424425       -1.68666254897746       -0.41113392205802
H           -7.42352578389903       -2.00052208849838        1.91944517177614
H           -8.10526471962300       -4.37017451166686        1.99936125230570
H           -7.15476532223686       -5.98634243772857        0.39405058561715
H           -5.51783686146427       -5.22871863670975       -1.29111995796062
H           -4.83219297938174       -2.85961161594670       -1.37134421978675
H           -1.93754723718883        0.34863282392907       -0.02463840911825

 projected vibrational frequencies (cm⁻¹)
eigval :       -0.00    -0.00     0.00     0.00     0.00     0.00
eigval :        7.51     9.40    10.29    18.31    23.13    24.39
eigval :       33.61    43.28    46.35    50.64    56.89    66.83
eigval :       68.44    76.53    81.97    95.92   101.17   107.40
eigval :      121.76   131.59   139.82   142.56   147.25   158.51
eigval :      163.59   171.63   181.59   202.23   214.67   221.68
eigval :      229.96   232.59   248.32   254.89   258.11   270.09
eigval :      273.61   282.94   285.28   286.65   304.15   313.62
eigval :      327.12   356.70   376.71   379.31   387.14   389.21
eigval :      394.23   396.50   405.31   410.22   415.18   422.89
eigval :      432.57   434.64   436.61   439.60   455.87   459.04
eigval :      476.65   488.05   493.82   511.57   517.62   518.97
eigval :      524.54   540.73   541.48   558.55   579.83   582.11
eigval :      588.54   591.20   603.43   610.16   620.36   621.24
eigval :      633.78   638.40   640.60   644.07   654.77   659.50
eigval :      665.41   670.92   672.85   676.66   688.76   695.90
eigval :      706.03   709.35   721.43   730.56   743.69   752.64
eigval :      753.38   756.77   761.73   767.86   769.12   780.14
eigval :      791.73   802.05   832.28   836.81   840.00   857.05
eigval :      867.96   868.53   870.48   871.35   872.75   886.18
eigval :      891.49   891.76   895.44   898.60   901.46   905.71
eigval :      905.95   906.50   908.50   910.87   912.88   916.60
eigval :      918.32   921.78   922.78   924.52   928.57   932.27
eigval :      938.44   946.28   978.79   984.10   999.84  1010.19
eigval :     1011.18  1016.71  1028.05  1031.96  1033.81  1048.20
eigval :     1068.96  1070.10  1072.93  1076.08  1077.51  1086.83
eigval :     1098.42  1116.86  1116.95  1128.34  1128.71  1129.90
eigval :     1147.81  1150.82  1158.80  1169.81  1176.32  1178.55
eigval :     1179.24  1179.55  1181.11  1182.69  1184.45  1187.98
eigval :     1196.35  1199.57  1202.28  1227.32  1233.25  1236.17
eigval :     1244.69  1246.30  1255.39  1262.53  1263.83  1269.31
eigval :     1274.36  1281.29  1299.73  1303.33  1313.25  1316.24
eigval :     1317.94  1321.76  1326.78  1329.20  1342.38  1345.13
eigval :     1351.53  1356.05  1359.72  1364.53  1367.43  1385.99
eigval :     1393.68  1402.12  1405.18  1407.23  1419.86  1423.02
eigval :     1426.02  1430.66  1433.83  1440.03  1450.31  1470.67
eigval :     1471.20  1476.02  1480.12  1483.05  1485.02  1486.53
eigval :     1488.50  1491.63  1493.27  1501.81  1515.55  1539.16
eigval :     1547.22  1552.86  1554.80  1559.00  1560.55  1567.56
eigval :     1571.00  1574.81  1586.82  1588.13  1589.71  1596.48
eigval :     1599.87  1613.28  2990.87  3001.37  3027.99  3028.95
eigval :     3032.72  3044.29  3067.54  3068.54  3070.68  3075.11
eigval :     3076.28  3076.66  3078.33  3078.55  3078.84  3081.32
eigval :     3081.53  3083.68  3088.34  3088.45  3088.92  3090.07
eigval :     3090.44  3092.19  3093.29  3093.33  3095.65  3096.66
eigval :     3097.31  3099.10  3100.41  3101.58  3107.32  3109.43
eigval :     3122.05  3123.20  3126.07

   temp. (K)  partition function   enthalpy   heat capacity  entropy
                                   cal/mol     cal/K/mol   cal/K/mol   J/K/mol
 298.15  VIB  0.202E+22            26832.440    169.176    167.606
         ROT  0.182E+09              888.752      2.981     40.777
         INT  0.367E+30            27721.193    172.157    208.383
         TR   0.185E+29             1481.254      4.968     45.565
         TOT                       29202.4465   177.1254   253.9471  1062.5148

       T/K    H(0)-H(T)+PV         H(T)/Eh          T*S/Eh         G(T)/Eh
   ------------------------------------------------------------------------
    298.15    0.465371E-01    0.766497E+00    0.120658E+00    0.645838E+00
   ------------------------------------------------------------------------

         :::::::::::::::::::::::::::::::::::::::::::::::::::::
         ::                  THERMODYNAMIC                  ::
         :::::::::::::::::::::::::::::::::::::::::::::::::::::
         :: total free energy        -140.491243658987 Eh   ::
         ::.................................................::
         :: total energy             -141.137082047792 Eh   ::
         :: zero point energy           0.719959809339 Eh   ::
         :: G(RRHO) w/o ZPVE           -0.074121420534 Eh   ::
         :: G(RRHO) contrib.            0.645838388805 Eh   ::
         :::::::::::::::::::::::::::::::::::::::::::::::::::::

           -------------------------------------------------
          | TOTAL ENERGY             -141.137082047792 Eh   |
          | TOTAL ENTHALPY           -140.370585177775 Eh   |
          | TOTAL FREE ENERGY        -140.491243658987 Eh   |
          | GRADIENT NORM               0.000053309169 Eh/α |
           -------------------------------------------------

 * finished run on 2025/08/25 at 20:24:23.282
