   * xtb version 6.7.1 (edcfbbe) compiled by 'albert@albert-system' on 2024-07-22

   ID    Z sym.   atoms
    1    6 C      1-9, 11-33, 35-48, 50-56
    2    7 N      10, 34, 49
    3    1 H      57-93

          program call               : xtb data2507/gas/mP2MPC/mP2MPC.xyz --gfn 2 --ohess vtight --parallel 40 --molden --ceasefiles --namespace data2507/gas/mP2MPC/mP2MPC_gas_S0_preOpt
          :  Hamiltonian                  GFN2-xTB          :
 * total energy  :  -141.2019884 Eh     change       -0.2698329E-08 Eh
 * total energy  :  -141.2176233 Eh     change       -0.1563486E-01 Eh
 * total energy  :  -141.2216149 Eh     change       -0.3991640E-02 Eh
 * total energy  :  -141.2226914 Eh     change       -0.1076470E-02 Eh
 * total energy  :  -141.2233673 Eh     change       -0.6758993E-03 Eh
 * total energy  :  -141.2236890 Eh     change       -0.3217292E-03 Eh
 * total energy  :  -141.2239740 Eh     change       -0.2849559E-03 Eh
 * total energy  :  -141.2242613 Eh     change       -0.2872827E-03 Eh
 * total energy  :  -141.2245353 Eh     change       -0.2739779E-03 Eh
 * total energy  :  -141.2247575 Eh     change       -0.2222440E-03 Eh
 * total energy  :  -141.2272495 Eh     change       -0.5411769E-06 Eh
 * total energy  :  -141.2272500 Eh     change       -0.5396886E-06 Eh
 * total energy  :  -141.2272506 Eh     change       -0.5161293E-06 Eh
 * total energy  :  -141.2272511 Eh     change       -0.4978695E-06 Eh
 * total energy  :  -141.2272516 Eh     change       -0.5024103E-06 Eh
 * total energy  :  -141.2272521 Eh     change       -0.5318122E-06 Eh
 * total energy  :  -141.2272527 Eh     change       -0.5766590E-06 Eh
 * total energy  :  -141.2272532 Eh     change       -0.5666862E-06 Eh
 * total energy  :  -141.2272532 Eh     change       -0.3207930E-08 Eh
   *** GEOMETRY OPTIMIZATION CONVERGED AFTER 221 ITERATIONS ***

 final structure:
================
93
 xtb: 6.7.1 (edcfbbe)
C           -0.34165850666526       -1.82406637756447       -2.13414828239341
C            0.70687201510168       -1.88466984766658       -1.06336828904940
C            2.04451716815919       -1.78001071508653       -1.40957942686056
C            3.06559684010519       -1.83730937133125       -0.46747367739378
C            4.45772595051137       -1.69975389618111       -0.93648867621697
C            4.94718430188399       -2.55278769083769       -1.92191923042019
C            6.24545010653869       -2.42078477201226       -2.38002223629783
C            7.06781759541556       -1.42859032558202       -1.87881483414338
C            6.58684560016975       -0.56589498876893       -0.89813265700407
N            7.40849451049242        0.45074809353579       -0.38992834567557
C            8.69625543848877        0.29001139701533        0.07949407801105
C            9.44348542826892       -0.86939201089722        0.23151802214626
C           10.71566487296104       -0.75273909490056        0.75753452694910
C           11.23694098745193        0.48318653788597        1.13427113107740
C           10.48950680256453        1.63686797846464        1.00823631378772
C            9.20760006716278        1.54539912570579        0.48223891575711
C            8.17032769006302        2.50660519561376        0.23346055695339
C            8.08222019868801        3.88220320821513        0.40252280600433
C            6.91592827557565        4.52079016529965        0.03204009577357
C            5.85105102794025        3.80727324075648       -0.51390694893186
C            5.91472181808617        2.43872318383366       -0.69250036345809
C            7.07625970424570        1.78795366057983       -0.30143350999489
C            5.28757386652922       -0.70943938390848       -0.42613914520397
C            2.74474173526631       -2.04063934160451        0.87666697155405
C            3.79513868571949       -2.15905622850676        1.94099044976806
C            1.40723166012896       -2.16115170358714        1.22062163956384
C            0.38470360692451       -2.07066614721444        0.28348102893161
C           -1.00981874855627       -2.20078541102887        0.74691125577620
C           -1.39951373559135       -3.32378103766021        1.47300795460454
C           -2.69878546578198       -3.44286775140285        1.93109705687718
C           -3.63080184708210       -2.45570838948892        1.66827197060432
C           -3.26003985469900       -1.33135513802993        0.93351108244109
C           -4.17890995414551       -0.24392404047421        0.63346586536484
N           -3.81525203117694        1.01347349758626        0.61570491661854
C           -4.93442258859360        1.72396798918038        0.31896522984208
C           -5.07111963963826        3.13703337854258        0.22702321859994
C           -3.98430363838002        3.98639750111795        0.45938475765686
C           -4.14466366322492        5.34809241173598        0.40155008730667
C           -5.40114427220825        5.87736788209055        0.11347068809661
C           -6.47491756324002        5.05123746894577       -0.12287436932087
C           -6.34962776901443        3.65399621583322       -0.08274320149864
C           -7.45523484743706        2.75378924884628       -0.36159760501262
C           -8.71308706637370        3.23494440122470       -0.75161765150286
C           -9.75377627967085        2.39177226593206       -1.06093474776266
C           -9.57348429455788        1.01334980114657       -1.01013089837819
C           -8.35938517966529        0.50050231246192       -0.62548928780674
C           -7.29391921586094        1.34299396046856       -0.27695726026442
C           -6.01633125613366        0.86550615305152        0.13060632382661
N           -5.51793921813770       -0.40018814434487        0.34683628189398
C           -6.19106452341937       -1.63595059778353        0.29324554549121
C           -7.20746533503894       -1.91868351632689        1.20116619420480
C           -7.83839449459211       -3.14808209172876        1.16055451229350
C           -7.45612447135368       -4.09746683369028        0.22619328897159
C           -6.44120959610564       -3.81585837657464       -0.67286920255634
C           -5.80631088903787       -2.58741600417571       -0.64388501937519
C           -1.94494589409425       -1.20839955374518        0.49096296123111
H           -0.65486067856043       -0.79359240582976       -2.30220727747894
H            0.05412701687659       -2.20860556682477       -3.07205120605347
H           -1.21927324233626       -2.40288906272302       -1.85571665715208
H            2.30858022922594       -1.63596044792248       -2.44851978464127
H            4.30751693134856       -3.32859338081702       -2.31610139728850
H            6.61833441141520       -3.08955754889260       -3.14189713806577
H            8.07291394502422       -1.30533920241246       -2.25287399572390
H            9.04221498275025       -1.83387369395688       -0.04175128244741
H           11.31848702282584       -1.64032035731678        0.88264429719628
H           12.23716180109598        0.53268317555736        1.53848248509697
H           10.88737456971651        2.59262914817194        1.31470267645492
H            8.91352021644957        4.43660065143621        0.81152516841899
H            6.82587548489493        5.58968411671517        0.15708347870204
H            4.95618147253551        4.33611144329124       -0.80743641562015
H            5.09000604290676        1.89838792918062       -1.13238975447063
H            4.92182150191830       -0.04055736333514        0.33796421457977
H            3.46446397999427       -2.84101319876923        2.72176662530889
H            4.73422309695255       -2.52145160211766        1.52952855394550
H            3.97859450990091       -1.18950052655649        2.40478641069652
H            1.14436276699890       -2.31838214785939        2.25775089790839
H           -0.67921642459002       -4.10424804232620        1.67136273544427
H           -2.99036425928637       -4.31175044984672        2.50312432057046
H           -4.63299236938575       -2.55237097779414        2.05678344409386
H           -3.03192196639958        3.53484684553566        0.68995379202876
H           -3.30911544454232        6.00814704968854        0.58237329858976
H           -5.53442679593057        6.94902112428917        0.07523176253683
H           -7.42829616536191        5.50705807765314       -0.33840932481470
H           -8.88116313290032        4.29722951319297       -0.82515904253364
H          -10.70867566533930        2.80032655480545       -1.35738448585395
H          -10.38209680037140        0.34869229550379       -1.27637278899551
H           -8.21927851959214       -0.56869421394945       -0.60756740376125
H           -7.49473920402091       -1.17171675385608        1.92696949254878
H           -8.62777550466839       -3.36664350328515        1.86397633654145
H           -7.94965908419712       -5.05711108676321        0.20027807328748
H           -6.14260321531430       -4.55420962420278       -1.40161534249283
H           -5.01250286714127       -2.35766824194294       -1.33907535650963
H           -1.66299775788781       -0.31413301868467       -0.04180527123743

          :  Hamiltonian                  GFN2-xTB          :
         :: gradient norm              0.000042690628 Eh/a0 ::
         :: HOMO-LUMO gap              2.692465426036 eV    ::
         :: SCC energy              -143.895861906000 Eh    ::
         :: -> dispersion             -0.131044447292 Eh    ::
         :: repulsion energy           2.668608661634 Eh    ::

    * Orbital Energies and Occupations

         #    Occupation            Energy/Eh            Energy/eV
      -------------------------------------------------------------
         1        2.0000           -0.6849364             -18.6381
       ...           ...                  ...                  ...
       120        2.0000           -0.4075536             -11.0901
       121        2.0000           -0.4050378             -11.0216
       122        2.0000           -0.4044174             -11.0048
       123        2.0000           -0.4004528             -10.8969
       124        2.0000           -0.3995955             -10.8735
       125        2.0000           -0.3943357             -10.7304
       126        2.0000           -0.3908561             -10.6357
       127        2.0000           -0.3790974             -10.3158
       128        2.0000           -0.3783943             -10.2966
       129        2.0000           -0.3739291             -10.1751
       130        2.0000           -0.3734678             -10.1626
       131        2.0000           -0.3611093              -9.8263
       132        2.0000           -0.3575840              -9.7304 (HOMO)
       133                         -0.2586377              -7.0379 (LUMO)
       134                         -0.2481218              -6.7517
       135                         -0.2455287              -6.6812
       136                         -0.2423923              -6.5958
       137                         -0.2407351              -6.5507
       138                         -0.2391879              -6.5086
       139                         -0.2364495              -6.4341
       140                         -0.2296173              -6.2482
       141                         -0.2255574              -6.1377
       142                         -0.2167583              -5.8983
       143                         -0.2166805              -5.8962
       ...                                ...                  ...
       261                          0.7512057              20.4413
      -------------------------------------------------------------
                  HL-Gap            0.0989463 Eh            2.6925 eV

     #   Z          covCN         q      C6AA      α(0)
     1   6 C        3.757    -0.106    22.580     6.775
     2   6 C        2.967     0.009    27.803     8.649
     3   6 C        2.932    -0.046    29.153     8.855
     4   6 C        2.980    -0.003    28.102     8.696
     5   6 C        2.978     0.015    27.661     8.627
     6   6 C        2.925    -0.040    28.984     8.829
     7   6 C        2.918    -0.030    28.749     8.792
     8   6 C        2.922    -0.046    29.146     8.853
     9   6 C        2.912     0.063    26.588     8.455
    10   7 N        2.803    -0.045    22.108     6.983
    11   6 C        3.076     0.047    26.873     8.499
    12   6 C        2.910    -0.051    29.273     8.872
    13   6 C        2.924    -0.034    28.847     8.808
    14   6 C        2.920    -0.041    29.030     8.836
    15   6 C        2.912    -0.033    28.825     8.804
    16   6 C        3.068    -0.018    28.376     8.735
    17   6 C        3.068    -0.018    28.378     8.735
    18   6 C        2.912    -0.033    28.826     8.804
    19   6 C        2.920    -0.041    29.024     8.835
    20   6 C        2.924    -0.034    28.836     8.806
    21   6 C        2.910    -0.051    29.266     8.871
    22   6 C        3.076     0.047    26.871     8.499
    23   6 C        2.927    -0.047    29.179     8.859
    24   6 C        2.966     0.009    27.809     8.650
    25   6 C        3.757    -0.106    22.578     6.775
    26   6 C        2.932    -0.046    29.137     8.853
    27   6 C        2.980    -0.002    28.065     8.690
    28   6 C        2.976     0.016    27.650     8.625
    29   6 C        2.925    -0.035    28.869     8.811
    30   6 C        2.918    -0.031    28.764     8.795
    31   6 C        2.922    -0.037    28.930     8.820
    32   6 C        2.973     0.001    27.995     8.679
    33   6 C        3.194     0.127    24.745     8.111
    34   7 N        1.895    -0.291    28.401     7.901
    35   6 C        3.208     0.057    26.132     8.323
    36   6 C        2.986     0.003    27.958     8.673
    37   6 C        2.922    -0.031    28.780     8.797
    38   6 C        2.917    -0.030    28.757     8.794
    39   6 C        2.917    -0.033    28.822     8.804
    40   6 C        2.922    -0.035    28.869     8.811
    41   6 C        2.979    -0.002    28.062     8.689
    42   6 C        2.980     0.002    27.981     8.677
    43   6 C        2.922    -0.034    28.842     8.807
    44   6 C        2.916    -0.034    28.835     8.806
    45   6 C        2.917    -0.032    28.798     8.800
    46   6 C        2.919    -0.040    29.005     8.832
    47   6 C        2.978    -0.002    28.069     8.691
    48   6 C        3.073     0.019    27.502     8.599
    49   7 N        2.841    -0.046    22.126     6.986
    50   6 C        2.913     0.070    26.444     8.432
    51   6 C        2.921    -0.036    28.907     8.817
    52   6 C        2.920    -0.027    28.676     8.782
    53   6 C        2.920    -0.030    28.749     8.793
    54   6 C        2.920    -0.026    28.646     8.777
    55   6 C        2.922    -0.037    28.932     8.821
    56   6 C        2.934    -0.032    28.804     8.802
    57   1 H        0.925     0.048     2.343     2.394
    58   1 H        0.925     0.041     2.430     2.438
    59   1 H        0.925     0.040     2.452     2.449
    60   1 H        0.925     0.031     2.571     2.507
    61   1 H        0.926     0.034     2.529     2.487
    62   1 H        0.926     0.034     2.531     2.488
    63   1 H        0.926     0.039     2.468     2.457
    64   1 H        0.926     0.026     2.644     2.543
    65   1 H        0.926     0.027     2.623     2.533
    66   1 H        0.926     0.027     2.636     2.539
    67   1 H        0.926     0.030     2.589     2.516
    68   1 H        0.926     0.030     2.590     2.517
    69   1 H        0.926     0.027     2.630     2.536
    70   1 H        0.926     0.029     2.606     2.524
    71   1 H        0.926     0.028     2.620     2.531
    72   1 H        0.926     0.043     2.407     2.426
    73   1 H        0.925     0.042     2.424     2.435
    74   1 H        0.925     0.042     2.428     2.437
    75   1 H        0.924     0.046     2.370     2.407
    76   1 H        0.925     0.032     2.554     2.499
    77   1 H        0.926     0.033     2.538     2.491
    78   1 H        0.926     0.030     2.581     2.512
    79   1 H        0.926     0.025     2.655     2.548
    80   1 H        0.926     0.050     2.317     2.381
    81   1 H        0.926     0.030     2.591     2.517
    82   1 H        0.926     0.027     2.622     2.532
    83   1 H        0.926     0.030     2.585     2.514
    84   1 H        0.926     0.034     2.531     2.488
    85   1 H        0.926     0.028     2.614     2.528
    86   1 H        0.926     0.026     2.641     2.541
    87   1 H        0.926     0.025     2.658     2.550
    88   1 H        0.926     0.043     2.411     2.428
    89   1 H        0.926     0.040     2.447     2.446
    90   1 H        0.926     0.039     2.461     2.453
    91   1 H        0.926     0.040     2.452     2.449
    92   1 H        0.926     0.039     2.465     2.455
    93   1 H        0.926     0.054     2.275     2.359

molecular dipole:
                 x           y           z       tot (Debye)
 q only:       -0.649      -1.335      -0.205
   full:       -1.105      -1.588      -0.289       4.973

 projected vibrational frequencies (cm⁻¹)
eigval :       -0.00    -0.00     0.00     0.00     0.00     0.00
eigval :        6.00     6.35    11.31    19.12    21.73    25.75
eigval :       28.66    41.93    46.85    50.90    60.87    66.15
eigval :       72.42    81.80    83.50    89.96    97.31   100.37
eigval :      111.34   131.20   134.23   138.68   141.31   144.77
eigval :      165.60   183.27   190.33   210.82   221.76   227.48
eigval :      235.19   238.70   240.92   257.28   260.81   267.92
eigval :      271.97   279.07   285.38   287.70   301.96   325.29
eigval :      340.35   362.21   376.69   380.62   396.68   398.03
eigval :      401.43   404.92   410.22   423.00   427.56   436.74
eigval :      437.94   439.56   442.02   456.43   458.37   471.18
eigval :      479.20   491.61   514.96   518.39   519.00   529.59
eigval :      535.29   541.19   559.25   578.80   585.73   589.30
eigval :      595.13   599.13   609.00   616.53   629.41   640.26
eigval :      644.29   648.22   657.87   668.33   672.13   674.51
eigval :      676.97   680.37   681.00   688.02   694.98   697.33
eigval :      708.54   717.17   735.37   736.97   753.88   761.56
eigval :      764.64   766.99   769.50   780.72   782.70   792.62
eigval :      799.91   802.87   835.78   862.73   869.03   870.65
eigval :      872.88   874.94   876.10   890.57   895.63   896.75
eigval :      898.64   900.35   901.20   902.97   906.16   907.71
eigval :      909.13   914.43   921.82   922.89   923.89   923.96
eigval :      927.51   928.65   929.48   932.44   932.70   939.36
eigval :      953.14   975.17   999.86  1007.18  1010.64  1013.01
eigval :     1018.82  1028.96  1029.57  1031.83  1034.95  1069.12
eigval :     1070.31  1073.75  1076.49  1079.31  1086.05  1108.45
eigval :     1115.46  1117.65  1128.65  1132.13  1136.29  1151.12
eigval :     1152.57  1167.60  1172.19  1180.05  1180.49  1181.52
eigval :     1182.89  1186.18  1188.65  1189.32  1192.95  1196.71
eigval :     1204.77  1210.39  1232.46  1237.45  1250.32  1254.05
eigval :     1256.89  1258.45  1261.72  1268.86  1275.72  1284.40
eigval :     1300.06  1303.60  1305.45  1313.66  1313.92  1316.73
eigval :     1320.88  1329.20  1338.16  1339.02  1347.56  1356.92
eigval :     1361.55  1365.58  1375.08  1390.28  1405.35  1406.88
eigval :     1407.48  1417.36  1421.75  1428.64  1429.31  1432.70
eigval :     1435.21  1438.19  1451.17  1457.88  1474.18  1478.12
eigval :     1480.95  1483.15  1484.45  1485.03  1488.64  1488.89
eigval :     1510.87  1514.62  1515.10  1543.73  1560.93  1562.66
eigval :     1567.15  1572.70  1576.99  1580.96  1583.04  1589.14
eigval :     1590.73  1591.50  1594.54  1595.22  1599.56  1602.05
eigval :     1605.00  1615.68  2996.00  2999.37  3030.13  3031.11
eigval :     3037.40  3039.78  3067.65  3070.18  3071.80  3073.84
eigval :     3074.67  3075.11  3075.83  3077.28  3079.98  3081.36
eigval :     3082.07  3083.26  3083.85  3085.05  3085.67  3087.02
eigval :     3088.73  3089.28  3090.05  3094.19  3094.98  3095.97
eigval :     3096.72  3097.09  3098.66  3098.89  3101.86  3104.85
eigval :     3110.29  3110.48  3113.03

   temp. (K)  partition function   enthalpy   heat capacity  entropy
                                   cal/mol     cal/K/mol   cal/K/mol   J/K/mol
 298.15  VIB  0.304E+22            26543.566    166.928    166.802
         ROT  0.181E+09              888.752      2.981     40.765
         INT  0.550E+30            27432.319    169.908    207.568
         TR   0.185E+29             1481.254      4.968     45.565
         TOT                       28913.5727   174.8766   253.1321  1059.1047

       T/K    H(0)-H(T)+PV         H(T)/Eh          T*S/Eh         G(T)/Eh
   ------------------------------------------------------------------------
    298.15    0.460767E-01    0.770804E+00    0.120271E+00    0.650533E+00
   ------------------------------------------------------------------------

         :::::::::::::::::::::::::::::::::::::::::::::::::::::
         ::                  THERMODYNAMIC                  ::
         :::::::::::::::::::::::::::::::::::::::::::::::::::::
         :: total free energy        -140.576720122992 Eh   ::
         ::.................................................::
         :: total energy             -141.227253244366 Eh   ::
         :: zero point energy           0.724727637929 Eh   ::
         :: G(RRHO) w/o ZPVE           -0.074194516555 Eh   ::
         :: G(RRHO) contrib.            0.650533121374 Eh   ::
         :::::::::::::::::::::::::::::::::::::::::::::::::::::

           -------------------------------------------------
          | TOTAL ENERGY             -141.227253244366 Eh   |
          | TOTAL ENTHALPY           -140.456448895404 Eh   |
          | TOTAL FREE ENERGY        -140.576720122992 Eh   |
          | GRADIENT NORM               0.000042687685 Eh/α |
          | HOMO-LUMO GAP               2.692465198756 eV   |
           -------------------------------------------------

 * finished run on 2025/08/25 at 20:07:41.069
