   * xtb version 6.7.1 (edcfbbe) compiled by 'albert@albert-system' on 2024-07-22

   ID    Z sym.   atoms
    1    6 C      1-9, 11-33, 35-48, 50-56
    2    7 N      10, 34, 49
    3    1 H      57-93

          program call               : xtb data2507/gas/mP2MPC/mP2MPC_gas_S0_crest.xyz --gfn 2 --ohess vtight --parallel 40 --molden --ceasefiles --namespace data2507/gas/mP2MPC/mP2MPC_gas_S0_finalOpt
          :  Hamiltonian                  GFN2-xTB          :
 * total energy  :  -141.2277367 Eh     change       -0.2096499E-08 Eh
 * total energy  :  -141.2277377 Eh     change       -0.1021478E-05 Eh
 * total energy  :  -141.2277396 Eh     change       -0.1942970E-05 Eh
 * total energy  :  -141.2277437 Eh     change       -0.4024779E-05 Eh
 * total energy  :  -141.2277488 Eh     change       -0.5167998E-05 Eh
 * total energy  :  -141.2277516 Eh     change       -0.2794939E-05 Eh
 * total energy  :  -141.2277529 Eh     change       -0.1259460E-05 Eh
 * total energy  :  -141.2277542 Eh     change       -0.1352592E-05 Eh
 * total energy  :  -141.2277564 Eh     change       -0.2189676E-05 Eh
 * total energy  :  -141.2277584 Eh     change       -0.1953107E-05 Eh
 * total energy  :  -141.2277770 Eh     change       -0.6660925E-06 Eh
 * total energy  :  -141.2277778 Eh     change       -0.7662211E-06 Eh
 * total energy  :  -141.2277786 Eh     change       -0.8857187E-06 Eh
 * total energy  :  -141.2277796 Eh     change       -0.9360762E-06 Eh
 * total energy  :  -141.2277804 Eh     change       -0.8311234E-06 Eh
 * total energy  :  -141.2277810 Eh     change       -0.6453205E-06 Eh
 * total energy  :  -141.2277815 Eh     change       -0.4890260E-06 Eh
 * total energy  :  -141.2277819 Eh     change       -0.4054330E-06 Eh
 * total energy  :  -141.2277819 Eh     change       -0.2161016E-08 Eh
   *** GEOMETRY OPTIMIZATION CONVERGED AFTER 44 ITERATIONS ***

 final structure:
================
93
 xtb: 6.7.1 (edcfbbe)
C            0.57829967017388       -4.49058853074800       -1.05484917734064
C            1.16785124749494       -3.44854594127558       -0.15052877832973
C            2.53987466945563       -3.25047660040482       -0.14459848495551
C            3.15177241105890       -2.28297177544051        0.64462418622502
C            4.61976041037473       -2.15098323409386        0.57674930107301
C            5.42627602101543       -3.26451969955639        0.79793072391103
C            6.80267646145689       -3.16101674660788        0.71304645919365
C            7.39637287585139       -1.95153189364143        0.40184357739338
C            6.59999335594052       -0.83561358848282        0.16202600789591
N            7.19218914847229        0.39190118448561       -0.17099772606408
C            6.94054419103494        1.60380652203514        0.43962783175569
C            6.11495202346662        1.89698237126591        1.51538397339476
C            6.06337313879158        3.20659132982340        1.95212730374224
C            6.82044105356811        4.20623625245205        1.34500955493922
C            7.66346235606872        3.91634676582188        0.29108806743986
C            7.73155803007863        2.60693515589369       -0.16653433693374
C            8.49298345787884        1.95821890841984       -1.19649141797201
C            9.41940555936574        2.40891397614624       -2.12759629981060
C            9.96377482342278        1.50015864319407       -3.01255613884243
C            9.58394187366247        0.15988744340159       -2.98695822078652
C            8.66450198226162       -0.31247271459962       -2.07034417917006
C            8.13169953183462        0.59145395418177       -1.16229736279175
C            5.21673209142912       -0.93942690147957        0.25042711136967
C            2.36278252704041       -1.47980182313120        1.47239855095572
C            2.95341817396904       -0.44263025852702        2.38063946475779
C            0.99121931484611       -1.67586297373663        1.46450465820801
C            0.37986216445536       -2.64540329300082        0.67703330086075
C           -1.08669978054349       -2.77975984057662        0.75916274843182
C           -1.68800032717703       -3.99306977446147        1.08500472624989
C           -3.06233147861577       -4.07583836022840        1.21454452774023
C           -3.86031391479475       -2.96578315728964        1.00561623763939
C           -3.27681148354407       -1.74932878558191        0.65642913400706
C           -4.03569465022964       -0.52859590577306        0.43681513274718
N           -3.56551502342789        0.65667216388251        0.73740720608537
C           -4.54041596595395        1.54294224469462        0.41050274192034
C           -4.52691567552386        2.95549788389554        0.57925562020110
C           -3.42551868962987        3.60675846450178        1.14421489065536
C           -3.44313277098390        4.96685947074544        1.32596401125751
C           -4.57038884614108        5.69293706250086        0.94668426020582
C           -5.65640774675511        5.06328912493384        0.38502229944071
C           -5.67318209535305        3.67595072947071        0.17367685694309
C           -6.78904467912066        2.98548625565594       -0.44984898702360
C           -7.90801818937642        3.68189696937569       -0.92803499912379
C           -8.94941294132710        3.04511914260546       -1.56021643239315
C           -8.90774761057492        1.66902067461254       -1.75935497133768
C           -7.83403060503826        0.94792504907259       -1.29876144757735
C           -6.77525174355180        1.57378658150207       -0.62511473682169
C           -5.64119815613348        0.87491211224426       -0.12338201490354
N           -5.30686800090438       -0.46080588472985       -0.09141156205895
C           -6.07600646661882       -1.56640301508840       -0.50416818862008
C           -7.24716934799848       -1.89227012248426        0.17396634417812
C           -7.98020584667802       -2.99661673165371       -0.21866718526718
C           -7.54812277569502       -3.77930418597007       -1.27758596348547
C           -6.38055913597291       -3.45536588836992       -1.94819308283611
C           -5.64135854814880       -2.35037762771820       -1.56619880068019
C           -1.88941267149668       -1.66673197110743        0.55406622703093
H           -0.45568228656094       -4.25956522880958       -1.29891821751954
H            1.15316954923015       -4.55673338603095       -1.97652558993620
H            0.60505983611792       -5.47031032653977       -0.57683237273788
H            3.15974309336969       -3.85668735418969       -0.79118415853082
H            4.96695994370199       -4.20871094311784        1.05083843788564
H            7.42041346984511       -4.02759146830118        0.89803966172197
H            8.47107268202455       -1.86151229047380        0.35356504449070
H            5.54073506773322        1.12641161558353        2.00567333926172
H            5.42495114044460        3.45993564785120        2.78585958670944
H            6.75066618211287        5.21869206451479        1.71422225311642
H            8.26321541497325        4.68746357714780       -0.16863956645739
H            9.70179627571847        3.45059431689935       -2.15709899298110
H           10.68809350513976        1.82933356784741       -3.74282120840081
H           10.01571172408071       -0.52481949487479       -3.70221230327746
H            8.36385100424615       -1.34949367342029       -2.06949270821545
H            4.60444269090446       -0.07794690271972        0.03111953785771
H            2.33427387398376       -0.32339696235545        3.26729106568750
H            3.95886075698797       -0.72146662854202        2.68870780118412
H            3.00075934479346        0.52375952918119        1.87766370703096
H            0.36916725220760       -1.06808351526627        2.10660964387727
H           -1.07443491512293       -4.86226889211105        1.26793310409866
H           -3.52006826887163       -5.01459432918956        1.49118201844906
H           -4.92754075823604       -3.04640662738417        1.14204677931254
H           -2.57728084342262        3.00523795468501        1.43175748315035
H           -2.59547198658212        5.47433368970830        1.76238705890447
H           -4.59222668252827        6.76314856186197        1.09445283223897
H           -6.50648848788000        5.66706650497947        0.10946996637329
H           -7.96321926473712        4.75213382097956       -0.81127278603774
H           -9.79486216031544        3.61617860152400       -1.91480037285478
H           -9.71319488266948        1.16953692751318       -2.27729990409029
H           -7.79853584880707       -0.11578146555296       -1.47276594421189
H           -7.57249924688873       -1.27527055823443        0.99900489427517
H           -8.88911193697208       -3.24870941630216        0.30671329506521
H           -8.12231053329837       -4.64226466588644       -1.57891635975484
H           -6.04348701182310       -4.06384364623475       -2.77374128036038
H           -4.72793419959748       -2.08982980759577       -2.07988397677648
H           -1.44694945106474       -0.71545587920386        0.30159533323891

          :  Hamiltonian                  GFN2-xTB          :
         :: gradient norm              0.000036931710 Eh/a0 ::
         :: HOMO-LUMO gap              2.686667207651 eV    ::
         :: SCC energy              -143.896112136890 Eh    ::
         :: -> dispersion             -0.131751695718 Eh    ::
         :: repulsion energy           2.668330191990 Eh    ::

    * Orbital Energies and Occupations

         #    Occupation            Energy/Eh            Energy/eV
      -------------------------------------------------------------
         1        2.0000           -0.6844809             -18.6257
       ...           ...                  ...                  ...
       120        2.0000           -0.4071798             -11.0799
       121        2.0000           -0.4048593             -11.0168
       122        2.0000           -0.4044353             -11.0052
       123        2.0000           -0.4023407             -10.9482
       124        2.0000           -0.3999146             -10.8822
       125        2.0000           -0.3941270             -10.7247
       126        2.0000           -0.3901048             -10.6153
       127        2.0000           -0.3784670             -10.2986
       128        2.0000           -0.3780709             -10.2878
       129        2.0000           -0.3736936             -10.1687
       130        2.0000           -0.3733001             -10.1580
       131        2.0000           -0.3606537              -9.8139
       132        2.0000           -0.3573523              -9.7241 (HOMO)
       133                         -0.2586191              -7.0374 (LUMO)
       134                         -0.2480288              -6.7492
       135                         -0.2457810              -6.6880
       136                         -0.2423467              -6.5946
       137                         -0.2406170              -6.5475
       138                         -0.2393968              -6.5143
       139                         -0.2366615              -6.4399
       140                         -0.2293216              -6.2402
       141                         -0.2255515              -6.1376
       142                         -0.2166125              -5.8943
       143                         -0.2161991              -5.8831
       ...                                ...                  ...
       261                          0.7515711              20.4513
      -------------------------------------------------------------
                  HL-Gap            0.0987332 Eh            2.6867 eV

     #   Z          covCN         q      C6AA      α(0)
     1   6 C        3.757    -0.106    22.578     6.775
     2   6 C        2.966     0.009    27.823     8.652
     3   6 C        2.932    -0.047    29.166     8.857
     4   6 C        2.980    -0.003    28.103     8.696
     5   6 C        2.977     0.015    27.662     8.627
     6   6 C        2.925    -0.040    28.982     8.828
     7   6 C        2.918    -0.030    28.750     8.793
     8   6 C        2.922    -0.046    29.144     8.853
     9   6 C        2.912     0.063    26.589     8.455
    10   7 N        2.803    -0.045    22.110     6.984
    11   6 C        3.077     0.047    26.868     8.498
    12   6 C        2.910    -0.052    29.301     8.876
    13   6 C        2.924    -0.034    28.848     8.808
    14   6 C        2.920    -0.041    29.028     8.835
    15   6 C        2.913    -0.033    28.824     8.804
    16   6 C        3.068    -0.018    28.377     8.735
    17   6 C        3.068    -0.018    28.375     8.735
    18   6 C        2.912    -0.033    28.825     8.804
    19   6 C        2.920    -0.041    29.030     8.835
    20   6 C        2.924    -0.034    28.844     8.807
    21   6 C        2.910    -0.051    29.269     8.871
    22   6 C        3.077     0.047    26.869     8.498
    23   6 C        2.927    -0.047    29.168     8.857
    24   6 C        2.967     0.009    27.806     8.649
    25   6 C        3.758    -0.104    22.539     6.769
    26   6 C        2.933    -0.046    29.145     8.854
    27   6 C        2.980    -0.002    28.078     8.692
    28   6 C        2.977     0.016    27.660     8.627
    29   6 C        2.924    -0.034    28.845     8.807
    30   6 C        2.918    -0.031    28.781     8.797
    31   6 C        2.921    -0.038    28.948     8.823
    32   6 C        2.973     0.001    27.994     8.679
    33   6 C        3.192     0.127    24.766     8.116
    34   7 N        1.896    -0.292    28.406     7.901
    35   6 C        3.206     0.057    26.140     8.326
    36   6 C        2.986     0.003    27.958     8.673
    37   6 C        2.922    -0.031    28.777     8.797
    38   6 C        2.917    -0.030    28.758     8.794
    39   6 C        2.918    -0.033    28.822     8.804
    40   6 C        2.922    -0.035    28.868     8.811
    41   6 C        2.979    -0.002    28.060     8.689
    42   6 C        2.980     0.002    27.979     8.677
    43   6 C        2.922    -0.034    28.842     8.807
    44   6 C        2.916    -0.034    28.835     8.806
    45   6 C        2.917    -0.032    28.797     8.800
    46   6 C        2.919    -0.040    29.004     8.832
    47   6 C        2.978    -0.002    28.069     8.691
    48   6 C        3.074     0.020    27.496     8.597
    49   7 N        2.841    -0.046    22.128     6.987
    50   6 C        2.913     0.070    26.437     8.431
    51   6 C        2.921    -0.036    28.907     8.817
    52   6 C        2.920    -0.027    28.676     8.782
    53   6 C        2.920    -0.030    28.749     8.793
    54   6 C        2.920    -0.026    28.644     8.777
    55   6 C        2.922    -0.037    28.927     8.820
    56   6 C        2.937    -0.034    28.847     8.809
    57   1 H        0.925     0.041     2.430     2.438
    58   1 H        0.925     0.042     2.424     2.435
    59   1 H        0.924     0.044     2.396     2.421
    60   1 H        0.925     0.030     2.580     2.512
    61   1 H        0.926     0.034     2.525     2.485
    62   1 H        0.926     0.034     2.532     2.488
    63   1 H        0.926     0.038     2.470     2.458
    64   1 H        0.926     0.028     2.610     2.526
    65   1 H        0.926     0.028     2.618     2.530
    66   1 H        0.926     0.027     2.634     2.538
    67   1 H        0.926     0.030     2.592     2.518
    68   1 H        0.926     0.030     2.590     2.517
    69   1 H        0.926     0.027     2.637     2.539
    70   1 H        0.926     0.027     2.623     2.533
    71   1 H        0.926     0.026     2.638     2.540
    72   1 H        0.926     0.043     2.412     2.429
    73   1 H        0.925     0.043     2.411     2.428
    74   1 H        0.925     0.039     2.463     2.454
    75   1 H        0.924     0.047     2.351     2.398
    76   1 H        0.926     0.037     2.489     2.467
    77   1 H        0.926     0.035     2.511     2.478
    78   1 H        0.926     0.030     2.588     2.516
    79   1 H        0.926     0.025     2.657     2.549
    80   1 H        0.926     0.050     2.321     2.383
    81   1 H        0.926     0.030     2.592     2.518
    82   1 H        0.926     0.027     2.623     2.532
    83   1 H        0.926     0.030     2.585     2.514
    84   1 H        0.926     0.034     2.531     2.488
    85   1 H        0.926     0.028     2.614     2.528
    86   1 H        0.926     0.026     2.641     2.541
    87   1 H        0.926     0.025     2.661     2.551
    88   1 H        0.926     0.043     2.413     2.429
    89   1 H        0.926     0.040     2.447     2.446
    90   1 H        0.926     0.039     2.461     2.453
    91   1 H        0.926     0.040     2.450     2.448
    92   1 H        0.926     0.040     2.452     2.449
    93   1 H        0.926     0.054     2.276     2.359

molecular dipole:
                 x           y           z       tot (Debye)
 q only:       -0.652      -1.362      -0.105
   full:       -1.092      -1.581      -0.269       4.930

 projected vibrational frequencies (cm⁻¹)
eigval :       -0.00    -0.00     0.00     0.00     0.00     0.00
eigval :        6.66     7.88     8.83    20.68    24.08    28.13
eigval :       32.74    41.17    45.23    52.12    61.32    65.95
eigval :       74.88    79.21    83.73    95.43    98.41   104.82
eigval :      114.43   131.07   137.76   142.15   143.62   162.96
eigval :      164.86   179.96   193.79   208.45   218.12   228.32
eigval :      231.04   238.10   243.32   256.54   267.47   269.09
eigval :      272.68   279.96   283.18   287.96   302.61   326.75
eigval :      338.42   365.38   375.99   379.54   394.91   397.96
eigval :      402.27   404.55   410.51   423.17   429.08   435.18
eigval :      438.56   438.93   442.13   448.73   458.81   474.66
eigval :      486.46   498.42   515.01   518.37   520.72   531.29
eigval :      535.21   541.22   547.10   574.92   585.57   587.50
eigval :      592.07   602.60   609.38   617.84   632.03   641.76
eigval :      641.95   649.12   657.26   669.49   672.05   674.25
eigval :      676.68   677.35   680.44   687.60   696.84   697.74
eigval :      708.57   717.15   735.48   739.42   753.64   761.36
eigval :      764.35   766.74   769.12   780.43   782.49   792.87
eigval :      800.98   803.14   832.76   862.35   868.51   869.92
eigval :      872.60   874.73   875.70   888.43   895.03   897.04
eigval :      898.81   900.05   901.19   903.31   906.08   907.39
eigval :      908.43   914.14   921.79   922.62   923.10   923.85
eigval :      927.16   928.53   930.24   932.40   932.55   939.38
eigval :      952.85   975.29   999.87  1007.34  1010.76  1012.64
eigval :     1018.99  1029.46  1030.78  1033.66  1034.55  1069.15
eigval :     1069.76  1073.30  1078.84  1079.11  1086.06  1108.56
eigval :     1115.30  1116.83  1128.65  1132.55  1135.61  1151.27
eigval :     1151.95  1167.64  1172.01  1179.75  1180.46  1181.38
eigval :     1182.89  1186.24  1188.49  1189.15  1194.02  1197.10
eigval :     1204.52  1211.01  1233.29  1236.72  1252.69  1254.50
eigval :     1256.93  1258.66  1261.68  1265.80  1275.41  1284.53
eigval :     1300.29  1303.54  1305.41  1313.11  1313.95  1316.41
eigval :     1322.56  1330.05  1337.59  1338.98  1347.86  1357.27
eigval :     1361.32  1365.89  1375.48  1394.69  1405.01  1407.01
eigval :     1407.39  1414.98  1422.29  1424.20  1428.53  1431.78
eigval :     1434.06  1437.69  1451.18  1459.26  1473.33  1478.32
eigval :     1481.11  1485.04  1485.27  1486.46  1489.05  1490.68
eigval :     1510.89  1513.84  1514.76  1542.33  1561.23  1562.61
eigval :     1567.07  1572.56  1576.39  1580.60  1582.62  1588.59
eigval :     1589.35  1590.71  1594.27  1595.15  1599.67  1601.94
eigval :     1604.98  1615.99  2994.00  2994.06  3029.18  3030.62
eigval :     3034.14  3042.09  3068.06  3071.80  3074.78  3075.15
eigval :     3075.34  3075.79  3075.92  3077.16  3080.31  3082.19
eigval :     3082.64  3083.23  3084.29  3085.77  3087.70  3088.95
eigval :     3090.37  3092.51  3092.86  3094.95  3095.42  3096.65
eigval :     3096.83  3097.76  3101.51  3101.86  3102.47  3103.68
eigval :     3105.01  3110.65  3114.05

   temp. (K)  partition function   enthalpy   heat capacity  entropy
                                   cal/mol     cal/K/mol   cal/K/mol   J/K/mol
 298.15  VIB  0.157E+22            26485.931    167.024    165.923
         ROT  0.181E+09              888.752      2.981     40.772
         INT  0.285E+30            27374.683    170.005    206.695
         TR   0.185E+29             1481.254      4.968     45.565
         TOT                       28855.9370   174.9734   252.2595  1055.4539

       T/K    H(0)-H(T)+PV         H(T)/Eh          T*S/Eh         G(T)/Eh
   ------------------------------------------------------------------------
    298.15    0.459849E-01    0.770845E+00    0.119857E+00    0.650988E+00
   ------------------------------------------------------------------------

         :::::::::::::::::::::::::::::::::::::::::::::::::::::
         ::                  THERMODYNAMIC                  ::
         :::::::::::::::::::::::::::::::::::::::::::::::::::::
         :: total free energy        -140.576794007756 Eh   ::
         ::.................................................::
         :: total energy             -141.227781944900 Eh   ::
         :: zero point energy           0.724859718293 Eh   ::
         :: G(RRHO) w/o ZPVE           -0.073871781150 Eh   ::
         :: G(RRHO) contrib.            0.650987937143 Eh   ::
         :::::::::::::::::::::::::::::::::::::::::::::::::::::

           -------------------------------------------------
          | TOTAL ENERGY             -141.227781944900 Eh   |
          | TOTAL ENTHALPY           -140.456937363903 Eh   |
          | TOTAL FREE ENERGY        -140.576794007756 Eh   |
          | GRADIENT NORM               0.000036931834 Eh/α |
          | HOMO-LUMO GAP               2.686667131727 eV   |
           -------------------------------------------------

 * finished run on 2025/08/25 at 20:15:09.400
