   * xtb version 6.7.1 (edcfbbe) compiled by 'albert@albert-system' on 2024-07-22

   ID    Z sym.   atoms
    1    6 C      1-9, 11-33, 35-48, 50-56
    2    7 N      10, 34, 49
    3    1 H      57-93

          program call               : xtb data2507/gas/mP2MPC/mP2MPC_gas_S0_finalOpt.xtbopt.xyz --gfn 2 --spinpol --tblite --uhf 2 --ohess vtight --parallel 40 --molden --ceasefiles --namespace data2507/gas/mP2MPC/mP2MPC_gas_T1_preOpt
 * total energy  :  -141.1256552 Eh     change        0.1744419E-07 Eh
 * total energy  :  -141.1321445 Eh     change       -0.6489240E-02 Eh
 * total energy  :  -141.1345619 Eh     change       -0.2417430E-02 Eh
 * total energy  :  -141.1349205 Eh     change       -0.3586637E-03 Eh
 * total energy  :  -141.1354356 Eh     change       -0.5150987E-03 Eh
 * total energy  :  -141.1356724 Eh     change       -0.2367981E-03 Eh
 * total energy  :  -141.1358424 Eh     change       -0.1699792E-03 Eh
 * total energy  :  -141.1359415 Eh     change       -0.9907260E-04 Eh
 * total energy  :  -141.1360097 Eh     change       -0.6822647E-04 Eh
 * total energy  :  -141.1360707 Eh     change       -0.6100590E-04 Eh
 * total energy  :  -141.1366484 Eh     change       -0.1991553E-06 Eh
 * total energy  :  -141.1366488 Eh     change       -0.3917231E-06 Eh
 * total energy  :  -141.1366491 Eh     change       -0.2760870E-06 Eh
 * total energy  :  -141.1366492 Eh     change       -0.6031226E-07 Eh
 * total energy  :  -141.1366493 Eh     change       -0.1272916E-06 Eh
 * total energy  :  -141.1366495 Eh     change       -0.2110608E-06 Eh
 * total energy  :  -141.1366494 Eh     change        0.1236695E-06 Eh
 * total energy  :  -141.1366496 Eh     change       -0.2445619E-06 Eh
 * total energy  :  -141.1366497 Eh     change       -0.9145236E-07 Eh
   *** GEOMETRY OPTIMIZATION CONVERGED AFTER 82 ITERATIONS ***

 final structure:
================
93
 xtb: 6.7.1 (edcfbbe)
C            0.68728820680186       -4.52077936886009       -1.13285031195172
C            1.22528144930595       -3.46803997042876       -0.20897343682876
C            2.59360065394859       -3.25669991845664       -0.14626724607766
C            3.16141494986096       -2.27259042964933        0.65530487398796
C            4.62929494233244       -2.12477483271341        0.64540238132333
C            5.43867795218785       -3.22157726947237        0.93069694075046
C            6.81618732272255       -3.10395601740205        0.89804865734460
C            7.40857514305013       -1.89724248978835        0.57365226483653
C            6.60973126134667       -0.79906294118048        0.26903471413674
N            7.20153225760370        0.42393165309262       -0.08227391756042
C            6.91394058430778        1.65238716589042        0.47599088038073
C            6.04677220393929        1.97142992283333        1.51116811650719
C            5.96386641729245        3.29476602488894        1.89928188628206
C            6.72991570025414        4.28254920638873        1.28416728557981
C            7.61328168427347        3.96770307401265        0.27067361082292
C            7.71333612875622        2.64451542322722       -0.13778374290334
C            8.51737496897368        1.97033954016104       -1.11834944565559
C            9.46881803869678        2.40007875564545       -2.03357358032392
C           10.05297482737951        1.46767310852395       -2.86775093629224
C            9.68843225626819        0.12434789946210       -2.80748576119502
C            8.74447335224421       -0.32754935101266       -1.90550879166301
C            8.17109751868941        0.60092170129694       -1.04810440846044
C            5.22538232635243       -0.91592645494510        0.30778170114295
C            2.32991232635998       -1.46715674905859        1.43758361236954
C            2.87325931073260       -0.40855425195536        2.35121040222213
C            0.96238768659913       -1.68132056582429        1.37803902092775
C            0.39353021001316       -2.66641815878981        0.57747669133293
C           -1.07296281438374       -2.82042713738784        0.59602717861078
C           -1.66337255928144       -4.06546894385053        0.87645378725069
C           -3.04968779066452       -4.17567487028651        0.93480760786359
C           -3.86375010984934       -3.09820101102954        0.69345393720036
C           -3.29721812699767       -1.82984545065217        0.38086633895620
C           -4.01948797200896       -0.65644850880840        0.12670369111793
N           -3.43947245253739        0.56431926085829        0.20141368707098
C           -4.39507547504000        1.45653390754216        0.07376203038688
C           -4.27661092522998        2.87544610901634        0.16351616938036
C           -3.04992207863607        3.46603196392648        0.46705739716975
C           -2.94821892038279        4.83740433597173        0.59841487066901
C           -4.08300613996916        5.61586322203671        0.43462560428916
C           -5.30286947053822        5.03788338422169        0.12549699258452
C           -5.44017170742977        3.65505829054687       -0.03191146535879
C           -6.69705798801729        3.01905257495200       -0.40095923593350
C           -7.82656704054064        3.76880107952810       -0.71041588965914
C           -9.01900629112426        3.18859502465723       -1.10621279492606
C           -9.10893472995902        1.80001170356248       -1.23211701212508
C           -8.03040028188225        1.01671098326391       -0.93239495476428
C           -6.80353525322594        1.58113738933542       -0.48793071303362
C           -5.67483891145032        0.82830553995948       -0.16829291835436
N           -5.41388983626900       -0.52353063719489       -0.12963888836002
C           -6.29095559228181       -1.58544724316479       -0.36745200963037
C           -7.42430249869942       -1.76019539753617        0.42946260040262
C           -8.27131009536749       -2.82524537818951        0.19570104679123
C           -8.00099178309219       -3.72525664095620       -0.82498633442794
C           -6.87341532568743       -3.55591556808721       -1.61394206075837
C           -6.01839662933411       -2.49474140668957       -1.39138280688370
C           -1.87726982818277       -1.72913148848225        0.37423360740826
H           -0.33791609754909       -4.30279574962583       -1.42127760574172
H            1.30143858574129       -4.58245237409411       -2.02927574052856
H            0.70604122533458       -5.49877025783102       -0.65093690539686
H            3.24675214562002       -3.86349847924051       -0.75880716077920
H            4.97962453889894       -4.16373389448159        1.19138201790360
H            7.43555487332521       -3.95707219511947        1.13321775215388
H            8.48330693366781       -1.79553743884986        0.56463090800232
H            5.46456617646134        1.21054828585853        2.00721770633114
H            5.29326378472328        3.56859989623407        2.70057467637786
H            6.63507665140007        5.30620849206735        1.61478760674132
H            8.21905760617030        4.73058399722126       -0.19477266115527
H            9.73995689774196        3.44353797212423       -2.09089255011263
H           10.79703378840988        1.78065102854167       -3.58510144877766
H           10.15166084064904       -0.57918482871852       -3.48359846165933
H            8.45579242832813       -1.36751220695459       -1.87787391223276
H            4.61244361389949       -0.06873591707940        0.03977722066800
H            2.21777391715978       -0.28054208861252        3.21008676446777
H            3.86825469016022       -0.67126211418763        2.70443538080161
H            2.93174836199912        0.54946991623871        1.83342210657306
H            0.30791432698246       -1.07433151267184        1.98782668314540
H           -1.04108558641265       -4.92038645319085        1.08802872025809
H           -3.49373394622017       -5.12832222397191        1.18707116151252
H           -4.93021233868525       -3.20628019276589        0.79667072227714
H           -2.19651663566191        2.81983451805728        0.60026990703348
H           -1.99957938121665        5.29643960683369        0.83210050547388
H           -4.02097773719533        6.68877772267091        0.54664335077052
H           -6.15474403817719        5.68892164596015        0.01160360104103
H           -7.78725998806644        4.84520272920798       -0.65774189506224
H           -9.87130930480115        3.81010180628454       -1.33446667942459
H          -10.02872202320855        1.34778493191120       -1.57256511252609
H           -8.09870045546492       -0.05100720749666       -1.05796044873398
H           -7.62304817685921       -1.06050631111503        1.22835506648810
H           -9.14370023288857       -2.95932956003309        0.81798583271227
H           -8.66588983750535       -4.55674381629296       -1.00205813433834
H           -6.66126037857797       -4.25371246020916       -2.41021395364265
H           -5.13697705552616       -2.35679461480534       -1.99974287866796
H           -1.44769551362804       -0.76533164281084        0.15207226983095

 projected vibrational frequencies (cm⁻¹)
eigval :       -0.00    -0.00     0.00     0.00     0.00     0.00
eigval :        7.43     7.69    10.15    18.07    23.23    27.22
eigval :       33.65    41.82    47.15    50.74    56.01    67.10
eigval :       70.45    81.19    83.32    96.79   100.23   109.14
eigval :      114.35   130.04   135.61   142.26   143.32   156.45
eigval :      158.99   179.54   184.64   209.42   213.35   219.18
eigval :      230.15   234.30   243.53   253.08   260.14   269.45
eigval :      272.90   279.33   282.96   288.52   303.47   310.80
eigval :      327.36   355.74   377.39   379.09   387.63   390.70
eigval :      394.39   398.91   404.43   409.20   412.68   423.02
eigval :      432.01   434.38   436.45   439.65   455.14   459.20
eigval :      476.54   488.46   492.99   511.89   517.65   519.03
eigval :      524.87   540.72   541.49   558.59   579.86   582.85
eigval :      588.46   591.98   598.32   609.93   620.71   622.05
eigval :      632.96   637.94   641.31   646.08   654.74   659.49
eigval :      665.44   670.98   673.15   676.62   691.44   694.04
eigval :      706.42   709.49   721.52   733.46   743.76   752.02
eigval :      754.85   757.23   761.20   768.16   769.07   780.10
eigval :      792.97   802.05   828.05   838.27   840.07   857.62
eigval :      860.58   868.53   871.22   871.26   873.89   886.24
eigval :      891.55   891.76   895.43   898.42   901.33   905.55
eigval :      905.85   907.38   908.47   910.81   912.92   916.62
eigval :      918.59   921.67   922.79   924.38   928.50   932.26
eigval :      937.92   945.97   978.64   983.65   999.83  1008.66
eigval :     1011.17  1017.43  1029.03  1031.75  1033.63  1047.45
eigval :     1069.43  1072.23  1073.16  1076.16  1078.29  1086.69
eigval :     1098.62  1116.82  1117.03  1128.29  1128.44  1129.67
eigval :     1147.86  1150.94  1158.75  1169.76  1176.42  1178.64
eigval :     1179.21  1179.57  1181.08  1182.61  1184.53  1188.09
eigval :     1194.59  1199.87  1202.67  1230.04  1231.56  1236.15
eigval :     1244.69  1247.24  1253.93  1259.42  1263.29  1269.71
eigval :     1274.22  1281.59  1299.68  1303.15  1314.10  1316.16
eigval :     1317.86  1321.66  1327.23  1328.95  1342.63  1345.46
eigval :     1352.21  1355.77  1359.80  1364.46  1367.64  1386.23
eigval :     1392.46  1402.72  1404.22  1406.84  1419.35  1424.00
eigval :     1425.87  1430.67  1433.57  1440.12  1450.29  1470.52
eigval :     1471.10  1476.16  1483.49  1484.90  1485.13  1487.08
eigval :     1488.57  1490.85  1493.33  1499.64  1515.69  1538.45
eigval :     1546.18  1552.44  1554.04  1559.80  1561.78  1567.49
eigval :     1571.13  1574.95  1586.66  1588.14  1589.70  1596.53
eigval :     1599.58  1613.00  2992.32  2993.51  3027.43  3029.05
eigval :     3033.40  3043.37  3066.59  3070.81  3075.05  3075.31
eigval :     3075.96  3076.63  3077.63  3078.44  3078.67  3080.94
eigval :     3081.39  3083.50  3088.30  3088.39  3088.60  3089.67
eigval :     3090.11  3092.82  3092.93  3095.34  3096.51  3097.20
eigval :     3098.75  3100.04  3100.88  3101.68  3107.36  3109.33
eigval :     3110.71  3124.67  3126.30

   temp. (K)  partition function   enthalpy   heat capacity  entropy
                                   cal/mol     cal/K/mol   cal/K/mol   J/K/mol
 298.15  VIB  0.233E+22            26843.380    169.250    167.860
         ROT  0.180E+09              888.752      2.981     40.752
         INT  0.419E+30            27732.132    172.231    208.612
         TR   0.185E+29             1481.254      4.968     45.565
         TOT                       29213.3861   177.1992   254.1762  1063.4733

       T/K    H(0)-H(T)+PV         H(T)/Eh          T*S/Eh         G(T)/Eh
   ------------------------------------------------------------------------
    298.15    0.465545E-01    0.766462E+00    0.120767E+00    0.645695E+00
   ------------------------------------------------------------------------

         :::::::::::::::::::::::::::::::::::::::::::::::::::::
         ::                  THERMODYNAMIC                  ::
         :::::::::::::::::::::::::::::::::::::::::::::::::::::
         :: total free energy        -140.490955168437 Eh   ::
         ::.................................................::
         :: total energy             -141.136649714787 Eh   ::
         :: zero point energy           0.719907381104 Eh   ::
         :: G(RRHO) w/o ZPVE           -0.074212834754 Eh   ::
         :: G(RRHO) contrib.            0.645694546350 Eh   ::
         :::::::::::::::::::::::::::::::::::::::::::::::::::::

           -------------------------------------------------
          | TOTAL ENERGY             -141.136649714787 Eh   |
          | TOTAL ENTHALPY           -140.370187839610 Eh   |
          | TOTAL FREE ENERGY        -140.490955168437 Eh   |
          | GRADIENT NORM               0.000049289465 Eh/α |
           -------------------------------------------------

 * finished run on 2025/08/25 at 20:15:26.910
