   * xtb version 6.7.1 (edcfbbe) compiled by 'albert@albert-system' on 2024-07-22

   ID    Z sym.   atoms
    1    6 C      1-4, 6-39, 41-68
    2    7 N      5, 40
    3    1 H      69-112

          program call               : xtb data2507/toluene/o-TPA-AP-TPA/o-TPA-AP-TPA_toluene_S0_crest.xyz --gfn 2 --gbsa toluene --ohess vtight --parallel 40 --molden --ceasefiles --namespace data2507/toluene/o-TPA-AP-TPA/o-TPA-AP-TPA_toluene_S0_finalOpt
      * Solvation model:               GBSA
        Solvent                        toluene
        Solvent mass                       9.2140E+01 g/mol
          :  Hamiltonian                  GFN2-xTB          :
 * total energy  :  -169.7400010 Eh     change       -0.8955681E-08 Eh
 * total energy  :  -169.7400766 Eh     change       -0.7559383E-04 Eh
 * total energy  :  -169.7401600 Eh     change       -0.8342740E-04 Eh
 * total energy  :  -169.7401943 Eh     change       -0.3426803E-04 Eh
 * total energy  :  -169.7402657 Eh     change       -0.7140673E-04 Eh
 * total energy  :  -169.7402924 Eh     change       -0.2663270E-04 Eh
 * total energy  :  -169.7403138 Eh     change       -0.2147693E-04 Eh
 * total energy  :  -169.7403461 Eh     change       -0.3229523E-04 Eh
 * total energy  :  -169.7403609 Eh     change       -0.1474558E-04 Eh
 * total energy  :  -169.7403748 Eh     change       -0.1395900E-04 Eh
 * total energy  :  -169.7408784 Eh     change       -0.5429787E-06 Eh
 * total energy  :  -169.7408790 Eh     change       -0.5433122E-06 Eh
 * total energy  :  -169.7408795 Eh     change       -0.4920926E-06 Eh
 * total energy  :  -169.7408799 Eh     change       -0.3959694E-06 Eh
 * total energy  :  -169.7408802 Eh     change       -0.3585989E-06 Eh
 * total energy  :  -169.7408806 Eh     change       -0.3340163E-06 Eh
 * total energy  :  -169.7408809 Eh     change       -0.3429820E-06 Eh
 * total energy  :  -169.7408813 Eh     change       -0.3619887E-06 Eh
 * total energy  :  -169.7408813 Eh     change       -0.3687717E-08 Eh
   *** GEOMETRY OPTIMIZATION CONVERGED AFTER 68 ITERATIONS ***

 final structure:
================
112
 xtb: 6.7.1 (edcfbbe)
C           -7.54740865062569       -4.35192212664318       -2.17801037456775
C           -7.37591272973127       -3.22486702952718       -2.96516526711924
C           -7.01916694794439       -2.01781516325376       -2.39639422360083
C           -6.81290023683500       -1.91531692869017       -1.01882198164164
N           -6.43857117500085       -0.69841878911072       -0.44844772896054
C           -5.73312648493917        0.24771277930197       -1.20819984151968
C           -4.64681067372593       -0.13663854695909       -1.99263382543926
C           -3.96279708360414        0.80309384304247       -2.73759774073523
C           -4.34810746922776        2.13439608123570       -2.71178509477261
C           -5.42668840211759        2.52068725025272       -1.93451366100191
C           -6.11954018448383        1.58595561589532       -1.18958440261344
C           -6.82340504965596       -0.37234356902778        0.86189115302048
C           -8.11223594033408       -0.67209821782222        1.30169257789870
C           -8.50780968076546       -0.37831132951857        2.59201612470820
C           -7.62137431948600        0.22969038865220        3.46651928148721
C           -6.34614743104416        0.54743154945377        3.03485632533165
C           -5.92645072183273        0.25751744110129        1.74104442055607
C           -4.55156086454662        0.60434705299053        1.31842463324580
C           -4.16575666724627        1.94913369349320        1.21202004534655
C           -5.05196003226088        3.01436191175689        1.52121036557812
C           -4.65616247368990        4.31361946144104        1.43549109921770
C           -3.34347978759966        4.63221342922587        1.03432288962483
C           -2.47086385997550        3.64222238217229        0.70292346177241
C           -2.85117470077967        2.27537168039172        0.75569979959221
C           -1.96662877912167        1.25546160225747        0.37839014144296
C           -0.64728142760890        1.59839282535037       -0.19277124177336
C           -0.59679438971777        2.16574242694047       -1.46216085781326
C            0.60768216145043        2.45873234093506       -2.06767291742198
C            1.81507010605076        2.18022292566510       -1.42409583674968
C            3.07624926172274        2.43247691805268       -2.03554440369766
C            4.23492564085871        2.11391505194737       -1.41460129459242
C            4.24268711284871        1.53087000303324       -0.11305864493888
C            5.42834714844468        1.12913665949617        0.52208035320721
C            6.74433674570068        1.23160940474193       -0.14309721419272
C            7.33297845997980        2.46613176845458       -0.38603931144436
C            8.59727415999525        2.55521178105433       -0.94201168202079
C            9.29040116588594        1.39917846890584       -1.26383403847514
C            8.71534998799305        0.16233585542539       -1.04214066090158
C            7.44290070102416        0.06362122586761       -0.48404678533516
N            6.85459619201695       -1.19783475722077       -0.27920636078764
C            7.58700949793654       -2.22858032456144        0.30451755289935
C            8.59254275980859       -1.94762874595317        1.23172788774782
C            9.32183574905061       -2.97129338799301        1.80448045126579
C            9.06062360883860       -4.29145202901388        1.47482095400689
C            8.06331520420135       -4.57766076716211        0.55620372415044
C            7.33519095013108       -3.56080758688242       -0.02968538729219
C            5.53439898974290       -1.39949833776567       -0.70671174826268
C            4.62525178171359       -2.10615183564264        0.07945027360250
C            3.31974020080463       -2.26349275080293       -0.34123054893676
C            2.90146275825307       -1.72756919004186       -1.54887114327932
C            3.80427478934911       -1.03860298092173       -2.34031005536339
C            5.11254826086707       -0.87614901400821       -1.92727348457068
C            5.37720300061039        0.58388557590545        1.80033733239764
C            4.17708450225196        0.40971700134384        2.45664337119595
C            2.97317826797772        0.74404693461821        1.83553047918423
C            1.71234798998348        0.53177802594580        2.46418858642175
C            0.55264923685151        0.81413731391406        1.82797406599200
C            0.54660149015857        1.34092874705082        0.50199645922123
C            1.78811994448701        1.61629963107546       -0.12501627661426
C            3.00289366458235        1.30571412096522        0.53573363869163
C           -2.34639671414798       -0.08911045165896        0.50201409071483
C           -1.48623898130511       -1.14962471686038        0.11326150140974
C           -1.84983131385424       -2.45098747860326        0.27547259350670
C           -3.09383486340748       -2.77324397190956        0.85394044975667
C           -3.95816329531735       -1.78470148751018        1.21070990619031
C           -3.63794057893403       -0.41627721824299        1.01662959384152
C           -6.99470694160329       -3.05472144489913       -0.23244119363597
C           -7.35836955497086       -4.25571831397193       -0.80910309766719
H           -7.82825783089084       -5.29342010235019       -2.62572077975866
H           -7.53113203244697       -3.28221021189851       -4.03308108729101
H           -6.90190303046574       -1.14262031882124       -3.01868492007478
H           -4.34236850578584       -1.17300751111863       -2.00465476253971
H           -3.11872666333567        0.49321287106638       -3.33679634187599
H           -3.81401539428431        2.86772069222382       -3.29800720452107
H           -5.73563856019920        3.55543144730788       -1.91274372315343
H           -6.96603574736975        1.88490523866935       -0.58859435094970
H           -8.80245983407293       -1.14000997585763        0.61445465312921
H           -9.51070541993180       -0.61919157882635        2.91247316978189
H           -7.92218723086750        0.45700119701994        4.47825388346785
H           -5.64570856411016        1.01405128189967        3.71314886214885
H           -6.05693925280746        2.77586507453200        1.83571834935657
H           -5.34387655654954        5.11092816605266        1.67841612063267
H           -3.03877638507481        5.66788908726797        0.99025335161664
H           -1.46364719478541        3.88337302064830        0.39624150844284
H           -1.52697004704765        2.36311947170610       -1.97496264405912
H            0.62417273872828        2.89595224024211       -3.05607760995551
H            3.08438756072508        2.87446960779572       -3.02227516419272
H            5.18230911503994        2.29520200811806       -1.90017929457778
H            6.79581334825251        3.36300700773854       -0.11135519870122
H            9.04256923943191        3.52307501277686       -1.11771966039594
H           10.27787191839543        1.46072688180618       -1.69702919827402
H            9.24634258806124       -0.74278042663017       -1.30038061232613
H            8.79781828979207       -0.92115331283635        1.49952781660762
H           10.09584462844957       -2.73565590460064        2.52088180590583
H            9.62973328980044       -5.08938783282479        1.92780318168340
H            7.85592264091445       -5.60303651868792        0.28510560241496
H            6.56906964730391       -3.79076180023958       -0.75575707007720
H            4.94797287060176       -2.51549123768916        1.02552793763858
H            2.62037301557448       -2.79901253677038        0.28442798243531
H            1.87843052099574       -1.84790496868944       -1.87248442256067
H            3.48865011841245       -0.62519166061214       -3.28700094323087
H            5.81738899309109       -0.33815088576719       -2.54464821894341
H            6.29981358449856        0.29053487453030        2.28167908018108
H            4.16091956644592       -0.00833370587384        3.45324077739395
H            1.70524164918884        0.12930368109969        3.46758104146745
H           -0.39686119887452        0.64442236867251        2.31452601930821
H           -0.52565895875394       -0.90203171285605       -0.31232479354979
H           -1.18435055672240       -3.24695094380538       -0.02649784924698
H           -3.35489434191532       -3.81021357812156        1.00862208196364
H           -4.90516264960991       -2.02960982611686        1.66651124677080
H           -6.85090011710113       -2.99788522742668        0.83597613575146
H           -7.48995892690065       -5.12611217606484       -0.18222948128595

          :  Hamiltonian                  GFN2-xTB          :
         :: gradient norm              0.000107391644 Eh/a0 ::
         :: HOMO-LUMO gap              1.825276553704 eV    ::
         :: SCC energy              -173.024172943607 Eh    ::
         :: -> dispersion             -0.194812604128 Eh    ::
         :: -> Gsolv                  -0.057944960505 Eh    ::
         :: repulsion energy           3.283291684513 Eh    ::

    * Orbital Energies and Occupations

         #    Occupation            Energy/Eh            Energy/eV
      -------------------------------------------------------------
         1        2.0000           -0.6637862             -18.0625
       ...           ...                  ...                  ...
       147        2.0000           -0.4024823             -10.9521
       148        2.0000           -0.4022856             -10.9467
       149        2.0000           -0.4016387             -10.9291
       150        2.0000           -0.4004960             -10.8981
       151        2.0000           -0.4004644             -10.8972
       152        2.0000           -0.3980116             -10.8304
       153        2.0000           -0.3972224             -10.8090
       154        2.0000           -0.3956226             -10.7654
       155        2.0000           -0.3890613             -10.5869
       156        2.0000           -0.3629184              -9.8755
       157        2.0000           -0.3550239              -9.6607
       158        2.0000           -0.3489776              -9.4962
       159        2.0000           -0.3488667              -9.4931 (HOMO)
       160                         -0.2817890              -7.6679 (LUMO)
       161                         -0.2735161              -7.4428
       162                         -0.2420517              -6.5866
       163                         -0.2324633              -6.3256
       164                         -0.2315471              -6.3007
       165                         -0.2309107              -6.2834
       166                         -0.2279336              -6.2024
       167                         -0.2276962              -6.1959
       168                         -0.2271911              -6.1822
       169                         -0.2258211              -6.1449
       170                         -0.2226546              -6.0587
       ...                                ...                  ...
       316                          0.7323815              19.9291
      -------------------------------------------------------------
                  HL-Gap            0.0670777 Eh            1.8253 eV

     #   Z          covCN         q      C6AA      α(0)
     1   6 C        2.918    -0.042    29.050     8.839
     2   6 C        2.919    -0.031    28.772     8.796
     3   6 C        2.923    -0.052    29.282     8.874
     4   6 C        2.920     0.067    26.505     8.443
     5   7 N        2.751    -0.083    22.848     7.099
     6   6 C        2.925     0.069    26.467     8.437
     7   6 C        2.922    -0.044    29.082     8.844
     8   6 C        2.920    -0.029    28.729     8.790
     9   6 C        2.920    -0.037    28.928     8.820
    10   6 C        2.919    -0.029    28.737     8.791
    11   6 C        2.923    -0.045    29.130     8.851
    12   6 C        2.925     0.063    26.592     8.457
    13   6 C        2.922    -0.048    29.195     8.861
    14   6 C        2.918    -0.033    28.819     8.803
    15   6 C        2.917    -0.039    28.980     8.828
    16   6 C        2.924    -0.034    28.839     8.807
    17   6 C        2.976    -0.003    28.095     8.694
    18   6 C        2.976    -0.006    28.157     8.704
    19   6 C        2.983     0.005    27.915     8.667
    20   6 C        2.917    -0.035    28.863     8.810
    21   6 C        2.914    -0.031    28.770     8.796
    22   6 C        2.914    -0.031    28.777     8.797
    23   6 C        2.918    -0.034    28.846     8.807
    24   6 C        2.984     0.005    27.905     8.665
    25   6 C        2.978    -0.004    28.119     8.698
    26   6 C        2.977     0.007    27.852     8.657
    27   6 C        2.920    -0.035    28.861     8.810
    28   6 C        2.918    -0.038    28.956     8.824
    29   6 C        2.982     0.008    27.829     8.653
    30   6 C        2.913    -0.037    28.925     8.819
    31   6 C        2.913    -0.035    28.882     8.813
    32   6 C        2.983     0.005    27.903     8.665
    33   6 C        2.977     0.003    27.942     8.671
    34   6 C        2.979    -0.004    28.114     8.698
    35   6 C        2.923    -0.034    28.843     8.807
    36   6 C        2.917    -0.038    28.952     8.823
    37   6 C        2.919    -0.033    28.812     8.802
    38   6 C        2.921    -0.046    29.152     8.854
    39   6 C        2.929     0.062    26.614     8.460
    40   7 N        2.752    -0.084    22.871     7.103
    41   6 C        2.921     0.067    26.505     8.443
    42   6 C        2.923    -0.051    29.269     8.872
    43   6 C        2.919    -0.031    28.778     8.797
    44   6 C        2.918    -0.042    29.053     8.839
    45   6 C        2.919    -0.031    28.769     8.796
    46   6 C        2.922    -0.052    29.279     8.874
    47   6 C        2.924     0.068    26.483     8.439
    48   6 C        2.922    -0.046    29.132     8.851
    49   6 C        2.920    -0.029    28.734     8.790
    50   6 C        2.919    -0.037    28.930     8.820
    51   6 C        2.919    -0.029    28.727     8.789
    52   6 C        2.923    -0.047    29.157     8.855
    53   6 C        2.921    -0.034    28.842     8.807
    54   6 C        2.919    -0.039    28.961     8.825
    55   6 C        2.983     0.008    27.827     8.653
    56   6 C        2.914    -0.037    28.916     8.818
    57   6 C        2.913    -0.034    28.847     8.807
    58   6 C        2.984     0.007    27.861     8.658
    59   6 C        2.995     0.001    27.986     8.678
    60   6 C        2.996     0.001    27.984     8.678
    61   6 C        2.984     0.006    27.888     8.663
    62   6 C        2.918    -0.033    28.821     8.803
    63   6 C        2.915    -0.031    28.773     8.796
    64   6 C        2.914    -0.031    28.778     8.797
    65   6 C        2.918    -0.033    28.822     8.804
    66   6 C        2.984     0.005    27.893     8.663
    67   6 C        2.923    -0.050    29.243     8.868
    68   6 C        2.919    -0.031    28.780     8.797
    69   1 H        0.926     0.029     2.604     2.524
    70   1 H        0.926     0.030     2.586     2.515
    71   1 H        0.926     0.027     2.624     2.533
    72   1 H        0.926     0.029     2.596     2.520
    73   1 H        0.926     0.033     2.538     2.491
    74   1 H        0.926     0.031     2.568     2.506
    75   1 H        0.926     0.032     2.553     2.498
    76   1 H        0.926     0.030     2.584     2.514
    77   1 H        0.926     0.033     2.547     2.496
    78   1 H        0.926     0.034     2.533     2.489
    79   1 H        0.926     0.033     2.541     2.493
    80   1 H        0.926     0.034     2.534     2.489
    81   1 H        0.926     0.032     2.558     2.501
    82   1 H        0.926     0.031     2.579     2.511
    83   1 H        0.926     0.030     2.580     2.512
    84   1 H        0.926     0.031     2.567     2.506
    85   1 H        0.926     0.033     2.541     2.493
    86   1 H        0.926     0.033     2.537     2.491
    87   1 H        0.925     0.033     2.549     2.497
    88   1 H        0.926     0.033     2.546     2.495
    89   1 H        0.926     0.035     2.518     2.481
    90   1 H        0.926     0.035     2.522     2.483
    91   1 H        0.926     0.035     2.516     2.481
    92   1 H        0.926     0.033     2.540     2.492
    93   1 H        0.926     0.027     2.631     2.537
    94   1 H        0.926     0.030     2.582     2.513
    95   1 H        0.926     0.029     2.607     2.525
    96   1 H        0.926     0.030     2.585     2.514
    97   1 H        0.926     0.028     2.615     2.529
    98   1 H        0.926     0.031     2.575     2.509
    99   1 H        0.926     0.032     2.561     2.503
   100   1 H        0.926     0.029     2.603     2.523
   101   1 H        0.926     0.032     2.560     2.502
   102   1 H        0.926     0.030     2.589     2.516
   103   1 H        0.926     0.028     2.613     2.528
   104   1 H        0.926     0.033     2.550     2.497
   105   1 H        0.926     0.031     2.566     2.505
   106   1 H        0.926     0.030     2.585     2.514
   107   1 H        0.926     0.030     2.588     2.515
   108   1 H        0.926     0.029     2.607     2.525
   109   1 H        0.926     0.029     2.604     2.523
   110   1 H        0.926     0.029     2.603     2.523
   111   1 H        0.926     0.029     2.607     2.525
   112   1 H        0.926     0.031     2.575     2.510

molecular dipole:
                 x           y           z       tot (Debye)
 q only:       -0.029       0.415      -0.043
   full:       -0.033       0.364      -0.043       0.935

 projected vibrational frequencies (cm⁻¹)
eigval :       -0.00    -0.00    -0.00     0.00     0.00     0.00
eigval :        9.90    10.31    14.52    17.76    20.44    24.09
eigval :       30.35    38.93    44.48    52.65    54.27    55.69
eigval :       62.82    65.41    68.57    74.27    74.58    79.30
eigval :       82.54    85.81    90.84    99.71   102.86   115.72
eigval :      119.37   128.48   149.83   156.87   162.87   175.47
eigval :      178.95   193.82   206.31   208.79   219.97   223.21
eigval :      225.43   233.79   241.24   243.65   256.37   281.80
eigval :      285.28   294.44   300.83   319.43   322.71   336.13
eigval :      339.21   363.10   370.03   375.52   379.38   380.42
eigval :      385.70   386.65   391.09   393.46   398.99   403.80
eigval :      410.10   415.33   427.78   443.95   449.93   459.71
eigval :      461.48   469.39   473.36   476.33   477.65   481.27
eigval :      486.90   488.81   499.89   502.84   508.26   520.77
eigval :      529.62   546.64   562.68   577.45   580.10   583.28
eigval :      584.01   586.91   590.25   591.65   596.14   598.57
eigval :      600.07   600.33   604.87   621.43   643.48   646.73
eigval :      651.75   656.75   657.44   659.21   662.39   664.72
eigval :      674.50   680.37   692.62   694.26   697.01   706.22
eigval :      709.35   715.59   727.44   737.52   742.76   754.67
eigval :      755.20   757.67   759.60   759.83   774.25   777.61
eigval :      781.04   784.10   801.60   805.21   822.84   842.21
eigval :      845.23   851.39   867.97   872.57   873.74   874.37
eigval :      874.89   878.99   883.03   885.84   887.83   887.97
eigval :      892.30   893.27   896.63   901.85   908.06   908.63
eigval :      908.83   910.50   915.29   916.33   916.87   919.14
eigval :      920.67   922.41   922.67   924.07   924.59   925.31
eigval :      926.43   926.56   927.05   927.94   928.53   930.21
eigval :      931.03   931.24   932.19   934.17   935.24   955.87
eigval :      985.03   985.87   996.25  1003.45  1003.90  1058.43
eigval :     1081.26  1081.76  1082.13  1082.48  1084.24  1085.26
eigval :     1091.18  1095.79  1106.31  1110.84  1119.11  1120.67
eigval :     1122.92  1126.46  1126.94  1135.03  1148.58  1157.64
eigval :     1164.61  1177.44  1177.86  1177.97  1178.62  1179.18
eigval :     1181.16  1181.62  1183.39  1185.47  1187.83  1188.34
eigval :     1195.95  1196.85  1197.25  1204.23  1205.02  1214.33
eigval :     1218.67  1225.00  1229.00  1235.36  1243.39  1248.02
eigval :     1255.28  1262.36  1264.85  1277.93  1278.00  1278.98
eigval :     1280.33  1288.39  1305.60  1305.76  1307.21  1308.60
eigval :     1310.43  1314.83  1317.75  1320.83  1321.48  1322.49
eigval :     1325.34  1327.73  1327.86  1349.89  1353.91  1375.17
eigval :     1380.06  1383.62  1387.00  1407.78  1414.79  1420.55
eigval :     1424.59  1428.56  1429.19  1435.40  1436.03  1442.11
eigval :     1443.78  1444.40  1450.91  1466.08  1467.99  1472.18
eigval :     1472.24  1475.27  1476.08  1485.10  1497.42  1504.57
eigval :     1525.57  1527.39  1533.07  1541.06  1560.96  1562.02
eigval :     1564.23  1565.75  1575.37  1575.56  1580.26  1580.58
eigval :     1585.08  1586.25  1593.38  1593.59  1600.15  1600.18
eigval :     1604.28  1607.06  1608.05  1621.99  3063.78  3064.68
eigval :     3066.46  3068.02  3068.32  3068.48  3068.85  3068.93
eigval :     3069.55  3070.35  3070.73  3071.63  3071.93  3072.49
eigval :     3073.26  3073.80  3073.89  3074.03  3074.72  3077.29
eigval :     3077.63  3079.88  3080.38  3080.46  3081.93  3081.96
eigval :     3082.30  3082.64  3083.50  3085.22  3085.47  3086.24
eigval :     3086.92  3087.08  3088.56  3090.83  3091.68  3091.98
eigval :     3092.24  3092.76  3093.30  3093.82  3094.06  3096.84

   temp. (K)  partition function   enthalpy   heat capacity  entropy
                                   cal/mol     cal/K/mol   cal/K/mol   J/K/mol
 298.15  VIB  0.383E+25            31726.169    202.925    197.915
         ROT  0.183E+09              888.752      2.981     40.784
         INT  0.699E+33            32614.921    205.906    238.699
         TR   0.246E+29             1481.254      4.968     46.129
         TOT                       34096.1751   210.8738   284.8272  1191.7171

       T/K    H(0)-H(T)+PV         H(T)/Eh          T*S/Eh         G(T)/Eh
   ------------------------------------------------------------------------
    298.15    0.543357E-01    0.923445E+00    0.135331E+00    0.788115E+00
   ------------------------------------------------------------------------

         :::::::::::::::::::::::::::::::::::::::::::::::::::::
         ::                  THERMODYNAMIC                  ::
         :::::::::::::::::::::::::::::::::::::::::::::::::::::
         :: total free energy        -168.952766428712 Eh   ::
         ::.................................................::
         :: total energy             -169.740881263255 Eh   ::
         :: zero point energy           0.869109720701 Eh   ::
         :: G(RRHO) w/o ZPVE           -0.080994886159 Eh   ::
         :: G(RRHO) contrib.            0.788114834543 Eh   ::
         :::::::::::::::::::::::::::::::::::::::::::::::::::::

           -------------------------------------------------
          | TOTAL ENERGY             -169.740881263255 Eh   |
          | TOTAL ENTHALPY           -168.817435828967 Eh   |
          | TOTAL FREE ENERGY        -168.952766428712 Eh   |
          | GRADIENT NORM               0.000107384924 Eh/α |
          | HOMO-LUMO GAP               1.825276858311 eV   |
           -------------------------------------------------

 * finished run on 2025/09/03 at 19:59:18.855
