   * xtb version 6.7.1 (edcfbbe) compiled by 'albert@albert-system' on 2024-07-22

   ID    Z sym.   atoms
    1    6 C      1-4, 6-39, 41-68
    2    7 N      5, 40
    3    1 H      69-112

          program call               : xtb data2507/toluene/o-TPA-AP-TPA/o-TPA-AP-TPA.xyz --gfn 2 --gbsa toluene --ohess vtight --parallel 40 --molden --ceasefiles --namespace data2507/toluene/o-TPA-AP-TPA/o-TPA-AP-TPA_toluene_S0_preOpt
      * Solvation model:               GBSA
        Solvent                        toluene
        Solvent mass                       9.2140E+01 g/mol
          :  Hamiltonian                  GFN2-xTB          :
 * total energy  :  -169.6965920 Eh     change       -0.1892943E-08 Eh
 * total energy  :  -169.7213515 Eh     change       -0.2475951E-01 Eh
 * total energy  :  -169.7316480 Eh     change       -0.1029648E-01 Eh
 * total energy  :  -169.7344301 Eh     change       -0.2782094E-02 Eh
 * total energy  :  -169.7357629 Eh     change       -0.1332768E-02 Eh
 * total energy  :  -169.7365696 Eh     change       -0.8067589E-03 Eh
 * total energy  :  -169.7372764 Eh     change       -0.7067665E-03 Eh
 * total energy  :  -169.7378626 Eh     change       -0.5862503E-03 Eh
 * total energy  :  -169.7383069 Eh     change       -0.4443041E-03 Eh
 * total energy  :  -169.7386323 Eh     change       -0.3253893E-03 Eh
 * total energy  :  -169.7409085 Eh     change       -0.4527421E-06 Eh
 * total energy  :  -169.7409090 Eh     change       -0.4253922E-06 Eh
 * total energy  :  -169.7409094 Eh     change       -0.4267178E-06 Eh
 * total energy  :  -169.7409098 Eh     change       -0.4627687E-06 Eh
 * total energy  :  -169.7409104 Eh     change       -0.5233946E-06 Eh
 * total energy  :  -169.7409110 Eh     change       -0.5829057E-06 Eh
 * total energy  :  -169.7409116 Eh     change       -0.6406839E-06 Eh
 * total energy  :  -169.7409123 Eh     change       -0.7068057E-06 Eh
 * total energy  :  -169.7409123 Eh     change       -0.3423480E-08 Eh
   *** GEOMETRY OPTIMIZATION CONVERGED AFTER 94 ITERATIONS ***

 final structure:
================
112
 xtb: 6.7.1 (edcfbbe)
C           -8.80122235916316       -3.44944963166053       -2.50490304838020
C           -8.60379819813133       -2.17695825069527       -3.01590501266949
C           -7.95174764488801       -1.21429684146177       -2.27034874433315
C           -7.47100049668087       -1.51104622065578       -0.99333505436079
N           -6.80413573401018       -0.53785659722387       -0.24610531084686
C           -6.08681353521491        0.47287913438552       -0.90406497204509
C           -5.23305797877634        0.15984882122254       -1.96046246832973
C           -4.53275530022376        1.15982400665477       -2.60491816537122
C           -4.66695423793553        2.48046507946311       -2.20587642475594
C           -5.51843916390703        2.79606591662945       -1.16075462614623
C           -6.23006656244579        1.80281544801569       -0.51580994094000
C           -6.91491574088950       -0.51190824847137        1.15204694548728
C           -8.14201487091702       -0.79234763449960        1.75357646253732
C           -8.27447763706173       -0.80037753197335        3.12804185568943
C           -7.18089714806206       -0.51752062480407        3.93073894738165
C           -5.96457650201901       -0.21800215752741        3.34445176871854
C           -5.80791403684863       -0.20867034123556        1.96234838684192
C           -4.48321886622952        0.10969934263234        1.38404336258883
C           -3.95237873698361        1.40189614339585        1.52003957808392
C           -4.64183481956508        2.43329965682234        2.21051662005660
C           -4.11630991392607        3.68339486396628        2.32618463337210
C           -2.86543668180937        3.98692845084558        1.75223214054335
C           -2.17778459795553        3.03199077968635        1.06974665769054
C           -2.69200664705593        1.71667382755171        0.92462962979011
C           -1.99410063735691        0.73773221840911        0.20676475659217
C           -0.71193447063593        1.08098944067795       -0.45155484912092
C           -0.72361409068424        1.51808187744819       -1.77058440146674
C            0.44761038007428        1.84788809465137       -2.42298583909383
C            1.67805577556970        1.75373765747553       -1.77028973469799
C            2.90675199932469        2.07753803485900       -2.41436904365413
C            4.08953287021578        1.97634992805295       -1.76592781124152
C            4.15764785935770        1.54993185277667       -0.40626190474385
C            5.37579831340543        1.41258386580921        0.27863429260719
C            6.67281555417098        1.70185958170008       -0.36616544458449
C            6.99455822204514        2.99285628344034       -0.76828582618885
C            8.23621450992445        3.28514266262519       -1.30447180363387
C            9.17850897530773        2.27879085181983       -1.44544656994256
C            8.87327112603963        0.98679073287043       -1.06239113170838
C            7.62546916960544        0.68364813686452       -0.52187302185352
N            7.32203816933363       -0.63884756668013       -0.15111066897046
C            8.24068529310631       -1.38109583630849        0.58946897310272
C            9.09231466048567       -0.74962238864081        1.49794727864422
C           10.00723781005419       -1.48461595548370        2.22641044385288
C           10.08769764084573       -2.85905779382553        2.07166832265058
C            9.24476999246530       -3.49248731524443        1.17235560413177
C            8.33301712132411       -2.76524410068615        0.43231819698109
C            6.09476042374017       -1.18669440450069       -0.54557455489067
C            5.35976348075194       -1.99889004307278        0.31744638659120
C            4.13320220284805       -2.49712393136094       -0.07398871657431
C            3.62044670706499       -2.19897850686346       -1.32638625379730
C            4.35257938265749       -1.40511587053808       -2.19259833761481
C            5.58232190077898       -0.90499949308518       -1.81074775722916
C            5.37849763904264        0.98558377877718        1.60264852117558
C            4.20607253089218        0.67857063494754        2.25937600154269
C            2.97807116324630        0.77445487246214        1.60360108337612
C            1.75067827196783        0.43629807758418        2.24336323568418
C            0.56879965433669        0.52820778081788        1.59198384695527
C            0.50604818453803        0.97321370783799        0.23824974004697
C            1.71196242903776        1.31570908184021       -0.42354306540259
C            2.95063163741647        1.21632640736256        0.25817249261878
C           -2.50815974252181       -0.55955757438556        0.09619217969128
C           -1.81113751647010       -1.57726922707214       -0.60655619347399
C           -2.30556678691236       -2.84239337876963       -0.68911243930205
C           -3.52048563038253       -3.17143914471545       -0.05439527949371
C           -4.21851791090972       -2.22175572129730        0.62602290051774
C           -3.75753619224055       -0.88264154894108        0.70906503816876
C           -7.67591484332844       -2.79503576883505       -0.48527346705180
C           -8.33605341328958       -3.74893636659182       -1.23482838021782
H           -9.31452764123266       -4.19867128119571       -3.08875784874258
H           -8.97033124251737       -1.92665977171391       -4.00116655881015
H           -7.81491417737490       -0.22084320025235       -2.67205764310573
H           -5.12117215848807       -0.87100748254921       -2.26342299908145
H           -3.87502649563787        0.90236940224075       -3.42290370144844
H           -4.11377505683912        3.26046783117755       -2.70776096814253
H           -5.63491922712009        3.82346363532581       -0.84863380903769
H           -6.90168989808384        2.04933219420968        0.29365917017929
H           -8.99467433634609       -1.00539976570780        1.12489522023363
H           -9.23392395883112       -1.02163729801564        3.57194707655819
H           -7.27536302660674       -0.52759853587905        5.00624736724367
H           -5.10446858096215       -0.00293473853924        3.96289657404181
H           -5.60191059341232        2.20888861235981        2.65078614668569
H           -4.65586634499094        4.45436060840767        2.85746098311154
H           -2.46179802778492        4.98377023997968        1.85615131634150
H           -1.22042131530452        3.25984767967546        0.62412898219318
H           -1.67276710861131        1.59744156810854       -2.28007466748041
H            0.41835595334223        2.18366267786152       -3.45000082696539
H            2.87083601905312        2.40191289971817       -3.44520903032239
H            5.01137948858019        2.21678215934369       -2.27439713662079
H            6.26403983380149        3.77779202317807       -0.63258243203420
H            8.47004956364724        4.29572533614080       -1.60452445046108
H           10.15032389612761        2.49796967344642       -1.86256120173954
H            9.60053871295308        0.19576293431711       -1.17723409096190
H            9.03142380452938        0.32128564032401        1.62868480357448
H           10.65759064271978       -0.97982267700929        2.92645563522707
H           10.80136982011486       -3.43109149020874        2.64539456449062
H            9.30456800037360       -4.56304880571313        1.03775208528510
H            7.68802110232642       -3.26325176746038       -0.27692516696823
H            5.75097637735671       -2.22171277142715        1.29927065710526
H            3.56596170088623       -3.11247296131257        0.60942712474188
H            2.65629557138497       -2.58317971910604       -1.62385189258870
H            3.96511130165730       -1.17428400210058       -3.17418342911381
H            6.15360806467712       -0.28701629038507       -2.48820051897119
H            6.32265743920792        0.89489553109466        2.12147046166555
H            4.23243547276742        0.35144420878723        3.28915354751528
H            1.78867966677728        0.09939271475033        3.26996719293862
H           -0.35645436751430        0.26674672906487        2.08523098855436
H           -0.86974285666777       -1.32422260635659       -1.07239871466172
H           -1.76620144594080       -3.60740637890653       -1.22896482395672
H           -3.88892374369723       -4.18578696104438       -0.10861009624722
H           -5.13556045136079       -2.48111630025599        1.13228190852827
H           -7.31809472653075       -3.04424636438129        0.50245083464854
H           -8.48275405601315       -4.73773214535377       -0.82437265308823

          :  Hamiltonian                  GFN2-xTB          :
         :: gradient norm              0.000052461758 Eh/a0 ::
         :: HOMO-LUMO gap              1.899230149078 eV    ::
         :: SCC energy              -173.024429471724 Eh    ::
         :: -> dispersion             -0.192199262894 Eh    ::
         :: -> Gsolv                  -0.058979144626 Eh    ::
         :: repulsion energy           3.283517169739 Eh    ::

    * Orbital Energies and Occupations

         #    Occupation            Energy/Eh            Energy/eV
      -------------------------------------------------------------
         1        2.0000           -0.6638936             -18.0655
       ...           ...                  ...                  ...
       147        2.0000           -0.4027216             -10.9586
       148        2.0000           -0.4026386             -10.9564
       149        2.0000           -0.4020877             -10.9414
       150        2.0000           -0.4008171             -10.9068
       151        2.0000           -0.4004832             -10.8977
       152        2.0000           -0.3982247             -10.8362
       153        2.0000           -0.3971150             -10.8060
       154        2.0000           -0.3958132             -10.7706
       155        2.0000           -0.3889323             -10.5834
       156        2.0000           -0.3609653              -9.8224
       157        2.0000           -0.3568147              -9.7094
       158        2.0000           -0.3490690              -9.4987
       159        2.0000           -0.3488268              -9.4921 (HOMO)
       160                         -0.2790313              -7.5928 (LUMO)
       161                         -0.2761628              -7.5148
       162                         -0.2423683              -6.5952
       163                         -0.2324942              -6.3265
       164                         -0.2312212              -6.2919
       165                         -0.2307084              -6.2779
       166                         -0.2280477              -6.2055
       167                         -0.2279216              -6.2021
       168                         -0.2271912              -6.1822
       169                         -0.2257602              -6.1432
       170                         -0.2224658              -6.0536
       ...                                ...                  ...
       316                          0.7317821              19.9128
      -------------------------------------------------------------
                  HL-Gap            0.0697954 Eh            1.8992 eV

     #   Z          covCN         q      C6AA      α(0)
     1   6 C        2.918    -0.042    29.035     8.836
     2   6 C        2.919    -0.031    28.768     8.795
     3   6 C        2.923    -0.051    29.264     8.871
     4   6 C        2.922     0.067    26.507     8.443
     5   7 N        2.751    -0.082    22.843     7.098
     6   6 C        2.925     0.068    26.469     8.437
     7   6 C        2.922    -0.044    29.095     8.846
     8   6 C        2.920    -0.029    28.730     8.790
     9   6 C        2.919    -0.037    28.928     8.820
    10   6 C        2.920    -0.029    28.729     8.790
    11   6 C        2.923    -0.045    29.123     8.850
    12   6 C        2.923     0.063    26.596     8.457
    13   6 C        2.922    -0.049    29.211     8.863
    14   6 C        2.918    -0.033    28.822     8.804
    15   6 C        2.917    -0.040    28.991     8.829
    16   6 C        2.925    -0.034    28.840     8.807
    17   6 C        2.976    -0.004    28.107     8.696
    18   6 C        2.976    -0.006    28.155     8.704
    19   6 C        2.983     0.004    27.917     8.667
    20   6 C        2.917    -0.034    28.857     8.809
    21   6 C        2.915    -0.031    28.768     8.795
    22   6 C        2.914    -0.031    28.771     8.796
    23   6 C        2.918    -0.033    28.827     8.804
    24   6 C        2.985     0.005    27.897     8.664
    25   6 C        2.979    -0.004    28.108     8.697
    26   6 C        2.977     0.008    27.838     8.655
    27   6 C        2.919    -0.035    28.868     8.811
    28   6 C        2.918    -0.038    28.954     8.824
    29   6 C        2.982     0.008    27.838     8.655
    30   6 C        2.913    -0.037    28.930     8.820
    31   6 C        2.913    -0.036    28.884     8.813
    32   6 C        2.983     0.005    27.902     8.665
    33   6 C        2.977     0.003    27.941     8.671
    34   6 C        2.979    -0.004    28.117     8.698
    35   6 C        2.923    -0.034    28.843     8.807
    36   6 C        2.917    -0.038    28.954     8.824
    37   6 C        2.918    -0.033    28.810     8.802
    38   6 C        2.921    -0.047    29.156     8.855
    39   6 C        2.929     0.062    26.617     8.461
    40   7 N        2.752    -0.082    22.843     7.099
    41   6 C        2.921     0.067    26.508     8.443
    42   6 C        2.923    -0.050    29.254     8.870
    43   6 C        2.919    -0.031    28.775     8.797
    44   6 C        2.918    -0.042    29.039     8.837
    45   6 C        2.919    -0.031    28.766     8.795
    46   6 C        2.922    -0.051    29.260     8.871
    47   6 C        2.924     0.068    26.487     8.440
    48   6 C        2.922    -0.047    29.157     8.855
    49   6 C        2.920    -0.030    28.748     8.793
    50   6 C        2.919    -0.038    28.957     8.824
    51   6 C        2.919    -0.029    28.735     8.790
    52   6 C        2.923    -0.047    29.171     8.857
    53   6 C        2.921    -0.034    28.841     8.807
    54   6 C        2.919    -0.039    28.964     8.825
    55   6 C        2.983     0.008    27.828     8.653
    56   6 C        2.914    -0.037    28.913     8.817
    57   6 C        2.913    -0.034    28.851     8.808
    58   6 C        2.984     0.006    27.874     8.660
    59   6 C        2.995     0.001    27.985     8.678
    60   6 C        2.996     0.001    27.985     8.678
    61   6 C        2.985     0.005    27.903     8.665
    62   6 C        2.918    -0.033    28.823     8.804
    63   6 C        2.914    -0.031    28.772     8.796
    64   6 C        2.914    -0.031    28.775     8.796
    65   6 C        2.918    -0.033    28.821     8.804
    66   6 C        2.984     0.005    27.895     8.664
    67   6 C        2.923    -0.049    29.223     8.865
    68   6 C        2.919    -0.031    28.776     8.797
    69   1 H        0.926     0.029     2.595     2.519
    70   1 H        0.926     0.031     2.577     2.510
    71   1 H        0.926     0.028     2.620     2.531
    72   1 H        0.926     0.030     2.592     2.518
    73   1 H        0.926     0.032     2.555     2.499
    74   1 H        0.926     0.032     2.556     2.500
    75   1 H        0.926     0.032     2.558     2.501
    76   1 H        0.926     0.030     2.580     2.512
    77   1 H        0.926     0.032     2.554     2.499
    78   1 H        0.926     0.033     2.539     2.492
    79   1 H        0.926     0.033     2.548     2.496
    80   1 H        0.926     0.033     2.543     2.494
    81   1 H        0.926     0.032     2.557     2.501
    82   1 H        0.926     0.031     2.577     2.510
    83   1 H        0.926     0.030     2.583     2.513
    84   1 H        0.926     0.029     2.594     2.519
    85   1 H        0.926     0.032     2.556     2.500
    86   1 H        0.926     0.034     2.536     2.490
    87   1 H        0.925     0.033     2.551     2.498
    88   1 H        0.926     0.033     2.542     2.493
    89   1 H        0.926     0.035     2.515     2.480
    90   1 H        0.926     0.035     2.523     2.484
    91   1 H        0.926     0.035     2.517     2.481
    92   1 H        0.926     0.033     2.541     2.493
    93   1 H        0.926     0.027     2.629     2.535
    94   1 H        0.926     0.031     2.576     2.510
    95   1 H        0.926     0.029     2.599     2.521
    96   1 H        0.926     0.031     2.577     2.510
    97   1 H        0.926     0.029     2.602     2.522
    98   1 H        0.926     0.031     2.576     2.510
    99   1 H        0.926     0.032     2.562     2.503
   100   1 H        0.926     0.029     2.598     2.520
   101   1 H        0.926     0.031     2.569     2.506
   102   1 H        0.926     0.029     2.595     2.519
   103   1 H        0.926     0.028     2.609     2.526
   104   1 H        0.926     0.032     2.552     2.498
   105   1 H        0.926     0.031     2.566     2.505
   106   1 H        0.926     0.029     2.598     2.521
   107   1 H        0.926     0.029     2.596     2.520
   108   1 H        0.926     0.029     2.596     2.520
   109   1 H        0.926     0.029     2.597     2.520
   110   1 H        0.926     0.029     2.599     2.521
   111   1 H        0.926     0.029     2.603     2.523
   112   1 H        0.926     0.031     2.567     2.505

molecular dipole:
                 x           y           z       tot (Debye)
 q only:       -0.008       0.301      -0.047
   full:       -0.012       0.279      -0.030       0.715

 projected vibrational frequencies (cm⁻¹)
eigval :       -0.00     0.00     0.00     0.00     0.00     0.00
eigval :        4.81    11.25    13.66    15.84    18.43    22.75
eigval :       27.78    37.79    41.40    52.79    53.58    56.83
eigval :       59.86    65.68    68.80    72.65    74.92    77.80
eigval :       82.14    84.81    89.87    96.93    99.98   117.72
eigval :      119.24   123.90   144.31   157.93   163.28   175.43
eigval :      177.51   194.15   201.99   210.76   218.63   224.13
eigval :      224.81   234.91   239.20   241.81   255.74   279.78
eigval :      286.22   293.23   301.86   318.22   324.66   334.33
eigval :      339.61   360.13   371.13   375.97   378.55   381.14
eigval :      384.97   386.40   391.42   395.25   398.08   403.40
eigval :      409.27   413.73   427.26   443.34   448.27   459.62
eigval :      460.09   470.41   474.27   477.38   477.74   481.79
eigval :      487.47   488.98   499.70   502.64   509.47   519.54
eigval :      528.28   546.36   562.27   577.58   580.01   583.19
eigval :      583.89   586.45   589.57   591.82   595.35   599.23
eigval :      599.73   601.29   605.12   621.36   640.00   648.97
eigval :      652.86   656.76   658.04   659.30   662.69   664.39
eigval :      674.44   680.51   691.89   693.95   696.94   705.12
eigval :      708.72   715.24   727.54   737.41   742.91   754.52
eigval :      755.77   758.50   760.00   761.03   773.62   774.86
eigval :      783.51   786.79   798.24   805.49   818.51   842.52
eigval :      844.45   850.51   869.06   872.17   873.02   875.62
eigval :      875.86   878.28   884.62   886.25   887.67   887.74
eigval :      892.54   892.89   896.42   901.78   907.82   908.42
eigval :      909.11   910.40   912.76   915.56   916.94   917.79
eigval :      919.46   919.84   922.27   924.52   924.98   925.57
eigval :      925.98   927.38   927.61   928.17   930.20   930.35
eigval :      930.59   931.49   933.19   934.20   938.14   955.63
eigval :      985.03   985.91   995.81  1003.52  1003.82  1057.67
eigval :     1078.70  1080.05  1081.20  1082.78  1084.01  1084.58
eigval :     1092.36  1096.16  1106.54  1110.55  1118.91  1120.29
eigval :     1122.47  1124.58  1126.38  1134.50  1148.42  1156.88
eigval :     1163.64  1175.92  1176.88  1177.57  1179.06  1179.45
eigval :     1179.93  1179.99  1180.71  1183.29  1187.40  1188.06
eigval :     1194.37  1195.36  1195.98  1203.22  1204.46  1214.38
eigval :     1217.76  1224.05  1226.51  1235.84  1244.25  1247.41
eigval :     1255.24  1262.01  1264.22  1277.26  1277.75  1279.06
eigval :     1279.79  1287.77  1305.35  1305.60  1306.73  1309.33
eigval :     1310.94  1313.56  1317.36  1320.42  1321.39  1322.53
eigval :     1325.82  1327.48  1327.67  1349.14  1354.06  1375.12
eigval :     1378.90  1384.62  1385.76  1407.71  1415.23  1420.54
eigval :     1423.92  1428.49  1429.16  1435.30  1435.47  1441.98
eigval :     1443.26  1445.26  1450.63  1466.47  1468.80  1472.12
eigval :     1472.42  1474.80  1475.85  1485.12  1499.38  1504.89
eigval :     1525.82  1530.52  1532.73  1542.57  1560.88  1561.93
eigval :     1564.47  1565.98  1575.57  1575.61  1580.44  1580.46
eigval :     1585.01  1585.70  1593.38  1593.46  1599.86  1600.16
eigval :     1604.29  1607.39  1608.17  1622.48  3063.56  3063.87
eigval :     3066.18  3067.67  3068.02  3068.76  3069.36  3069.48
eigval :     3069.65  3070.22  3070.30  3071.45  3071.58  3071.87
eigval :     3073.25  3073.61  3073.73  3073.92  3074.47  3075.39
eigval :     3077.53  3080.32  3080.48  3080.97  3081.78  3081.92
eigval :     3082.16  3082.21  3083.64  3083.85  3085.14  3085.59
eigval :     3085.88  3086.33  3087.18  3089.14  3090.15  3092.37
eigval :     3092.42  3092.95  3093.14  3094.03  3094.82  3097.38

   temp. (K)  partition function   enthalpy   heat capacity  entropy
                                   cal/mol     cal/K/mol   cal/K/mol   J/K/mol
 298.15  VIB  0.142E+26            31788.488    202.788    199.290
         ROT  0.188E+09              888.752      2.981     40.846
         INT  0.267E+34            32677.240    205.769    240.135
         TR   0.246E+29             1481.254      4.968     46.129
         TOT                       34158.4942   210.7374   286.2637  1197.7273

       T/K    H(0)-H(T)+PV         H(T)/Eh          T*S/Eh         G(T)/Eh
   ------------------------------------------------------------------------
    298.15    0.544350E-01    0.923314E+00    0.136013E+00    0.787301E+00
   ------------------------------------------------------------------------

         :::::::::::::::::::::::::::::::::::::::::::::::::::::
         ::                  THERMODYNAMIC                  ::
         :::::::::::::::::::::::::::::::::::::::::::::::::::::
         :: total free energy        -168.953611353879 Eh   ::
         ::.................................................::
         :: total energy             -169.740912296287 Eh   ::
         :: zero point energy           0.868879035642 Eh   ::
         :: G(RRHO) w/o ZPVE           -0.081578093233 Eh   ::
         :: G(RRHO) contrib.            0.787300942409 Eh   ::
         :::::::::::::::::::::::::::::::::::::::::::::::::::::

           -------------------------------------------------
          | TOTAL ENERGY             -169.740912296287 Eh   |
          | TOTAL ENTHALPY           -168.817598235143 Eh   |
          | TOTAL FREE ENERGY        -168.953611353879 Eh   |
          | GRADIENT NORM               0.000052463512 Eh/α |
          | HOMO-LUMO GAP               1.899230618373 eV   |
           -------------------------------------------------

 * finished run on 2025/09/03 at 19:40:12.451
