   * xtb version 6.7.1 (edcfbbe) compiled by 'albert@albert-system' on 2024-07-22

   ID    Z sym.   atoms
    1    6 C      1-4, 6-39, 41-68
    2    7 N      5, 40
    3    1 H      69-112

          program call               : xtb data2507/toluene/o-TPA-AP-TPA/o-TPA-AP-TPA_toluene_S0_finalOpt.xtbopt.xyz --gfn 2 --uhf 2 --gbsa toluene --ohess vtight --parallel 40 --molden --ceasefiles --namespace data2507/toluene/o-TPA-AP-TPA/o-TPA-AP-TPA_toluene_T1_preOpt
      * Solvation model:               GBSA
        Solvent                        toluene
        Solvent mass                       9.2140E+01 g/mol
          :  Hamiltonian                  GFN2-xTB          :
 * total energy  :  -169.6691776 Eh     change       -0.1213118E-07 Eh
 * total energy  :  -169.6731717 Eh     change       -0.3994165E-02 Eh
 * total energy  :  -169.6746473 Eh     change       -0.1475558E-02 Eh
 * total energy  :  -169.6748735 Eh     change       -0.2262020E-03 Eh
 * total energy  :  -169.6751602 Eh     change       -0.2867302E-03 Eh
 * total energy  :  -169.6753095 Eh     change       -0.1493018E-03 Eh
 * total energy  :  -169.6754620 Eh     change       -0.1524778E-03 Eh
 * total energy  :  -169.6755849 Eh     change       -0.1228808E-03 Eh
 * total energy  :  -169.6756739 Eh     change       -0.8903437E-04 Eh
 * total energy  :  -169.6757474 Eh     change       -0.7346230E-04 Eh
 * total energy  :  -169.6765445 Eh     change       -0.2981123E-06 Eh
 * total energy  :  -169.6765447 Eh     change       -0.2621728E-06 Eh
 * total energy  :  -169.6765449 Eh     change       -0.2144919E-06 Eh
 * total energy  :  -169.6765450 Eh     change       -0.1043102E-06 Eh
 * total energy  :  -169.6765452 Eh     change       -0.1631647E-06 Eh
 * total energy  :  -169.6765454 Eh     change       -0.1450649E-06 Eh
 * total energy  :  -169.6765456 Eh     change       -0.2059461E-06 Eh
 * total energy  :  -169.6765458 Eh     change       -0.2891052E-06 Eh
 * total energy  :  -169.6765458 Eh     change       -0.9750636E-09 Eh
   *** GEOMETRY OPTIMIZATION CONVERGED AFTER 94 ITERATIONS ***

 final structure:
================
112
 xtb: 6.7.1 (edcfbbe)
C           -7.38412785387305       -4.50162953741251       -1.90660368258598
C           -7.15742838007503       -3.44393833440510       -2.77236728798814
C           -6.84905368108561       -2.18962957826690       -2.28363535411522
C           -6.74999559370009       -1.96891793968266       -0.90769805782700
N           -6.43283175240952       -0.70324682217181       -0.41733135294287
C           -5.67807889766422        0.18660334939129       -1.19809070004926
C           -4.52606209477459       -0.24451613559143       -1.85542420842750
C           -3.79531647009173        0.63999212209633       -2.62304725390197
C           -4.20190786147180        1.95913269541965       -2.75148465733931
C           -5.34809863043133        2.39056334855741       -2.10508118192491
C           -6.08600054115934        1.51208262940992       -1.33586420540184
C           -6.92115657075459       -0.26724785975059        0.82368022995580
C           -8.23083066850858       -0.55753208763944        1.20032967990442
C           -8.72795330311309       -0.13499074789061        2.41848623220734
C           -7.92369391119539        0.59751793481123        3.27725941845500
C           -6.62788191737500        0.90622014057978        2.90556069708829
C           -6.10207455325383        0.48410718967301        1.68724410388500
C           -4.71271056814855        0.81359629448879        1.32788676583146
C           -4.33163094187123        2.16344572618146        1.11811277701826
C           -5.23812548964572        3.22313561609617        1.29549262868083
C           -4.84569283534585        4.53942655273721        1.15521259588355
C           -3.52511017473660        4.83669922701874        0.85162135461186
C           -2.61802848573137        3.81318828727535        0.64155030686457
C           -2.99955669940758        2.46614892930912        0.71119450183567
C           -2.06071842345706        1.41291235462844        0.47033568011434
C           -0.76159146057668        1.73195405208644       -0.06701844116209
C           -0.69362433435738        2.49361137218799       -1.24967832699921
C            0.48934733453721        2.71593314411269       -1.89713459796465
C            1.71061611249334        2.24848209263776       -1.36308171216221
C            2.94094838889268        2.44686786338098       -2.01945073813444
C            4.11535337374403        2.01522197562103       -1.47157742003345
C            4.14505282479496        1.38210711483413       -0.20556602218043
C            5.34724418032737        0.93651750385659        0.38972179381198
C            6.65492938345352        1.12788851245175       -0.25995137977755
C            7.13700677074413        2.40596194396433       -0.52638477377771
C            8.39693424118930        2.59721732985445       -1.06336220768492
C            9.19900371354906        1.50221136184778       -1.34691827773167
C            8.73526361352819        0.22432065748422       -1.10154833039193
C            7.46720083795665        0.02239429934289       -0.56066252954462
N            6.99709227456671       -1.28493029847708       -0.34388927914075
C            7.82852157270792       -2.22922047759698        0.25590955326661
C            8.77039113716907       -1.83576751565397        1.20914485149393
C            9.59911210963892       -2.76931846977461        1.80003291395918
C            9.50303949100445       -4.10938139203610        1.46053696048886
C            8.57040485844758       -4.50683572328859        0.51542482771773
C            7.74265340130288       -3.57999640570082       -0.08740920412060
C            5.70250645100161       -1.61763077136061       -0.76158733995602
C            4.89397621085106       -2.45576897578032        0.00573651608224
C            3.60921277365359       -2.74864241550032       -0.40630008795118
C            3.10953610039344       -2.21515582143069       -1.58353762363169
C            3.91233419355653       -1.39181949867052       -2.35496340828144
C            5.20024911665191       -1.09653524531907       -1.95313473648824
C            5.30944845958962        0.30316494959260        1.62975320644537
C            4.12444565785736        0.10496973211587        2.29865132969166
C            2.90633895355025        0.51683324402873        1.73291960926237
C            1.67098476507756        0.33502046831557        2.39522378182178
C            0.49525743032570        0.71740518596585        1.81821232168802
C            0.46195497617985        1.30102288218718        0.53147298591880
C            1.69302758239946        1.56297125684455       -0.12190591596289
C            2.91594570100244        1.15249907989367        0.46685164976545
C           -2.45024597578884        0.05635668750621        0.70824058620069
C           -1.61905191718521       -1.02503728210906        0.38640616572611
C           -1.99629451578741       -2.33158161390802        0.63721236334248
C           -3.22442085653828       -2.59885625972895        1.22657544386937
C           -4.09432881641881       -1.56048182657913        1.49039225313626
C           -3.76122060386962       -0.22878217961841        1.18921455215903
C           -6.98360606864957       -3.03973435153202       -0.04215612687177
C           -7.29837011857204       -4.28861867571163       -0.54020389444286
H           -7.62825190886481       -5.48004383654087       -2.29227669798825
H           -7.23119280212027       -3.59341087841076       -3.83999852985957
H           -6.68952969641403       -1.36850391689498       -2.96701983273439
H           -4.20715536522416       -1.27074478048659       -1.74668009035766
H           -2.89775358348566        0.29929245823968       -3.11821471571904
H           -3.63121957638351        2.64642015760662       -3.35833301327369
H           -5.67357862964691        3.41565791793030       -2.20449289113572
H           -6.98391782633891        1.84483346275599       -0.83583656991767
H           -8.85900984327372       -1.11554274617861        0.52083603278933
H           -9.74559024146357       -0.37067502606615        2.69248314816035
H           -8.30414313574469        0.92723555770140        4.23248809090720
H           -5.99060170046299        1.46444874913079        3.57661836394654
H           -6.26147280312141        3.00030273309153        1.55654831389069
H           -5.56360654314832        5.33398161844705        1.29867288620154
H           -3.20076522546702        5.86447925755999        0.77826800887405
H           -1.58942991240217        4.06004228666199        0.42613791176486
H           -1.62245155869793        2.82673516533217       -1.68985051438266
H            0.50258601196912        3.23989560119433       -2.84247657724030
H            2.94039437550330        2.94996113674491       -2.97663474412663
H            5.04328055404341        2.16176555449354       -2.00340809195743
H            6.51859058340922        3.25664702109074       -0.27749536957074
H            8.75600009741541        3.59763146598246       -1.25386752757960
H           10.18351455883803        1.64352064582386       -1.76766837715569
H            9.35016685186421       -0.63413186367550       -1.33113175168300
H            8.84600321777425       -0.79341629710093        1.48362726743377
H           10.32063218006246       -2.44797898323465        2.53737330098949
H           10.15003004220773       -4.83708340152519        1.92686589876833
H            8.49295475468300       -5.54795132955093        0.23702639980660
H            7.02760142194077       -3.89385352343150       -0.83373163304888
H            5.27529225434111       -2.86082716261309        0.93150810503895
H            2.98825714627391       -3.38865285637372        0.20373261904397
H            2.10181266566737       -2.44104039256556       -1.89862656342721
H            3.53438423491822       -0.97826468766831       -3.27851766840889
H            5.82669907372177       -0.45705593204547       -2.55790783679285
H            6.23768269028841       -0.02328049362073        2.07808238890836
H            4.11918564473578       -0.37143462307331        3.26848835808627
H            1.67340497360413       -0.11521347943765        3.37797537106994
H           -0.43568673473101        0.57629535964777        2.34747603106574
H           -0.65753154272613       -0.83432403770488       -0.06499329735165
H           -1.32653493643219       -3.14051192103115        0.38418022933065
H           -3.50716992006888       -3.61445979515556        1.46226554709061
H           -5.05197712316589       -1.76695071943334        1.94301528650051
H           -6.91697919580700       -2.89056909095073        1.02487042832279
H           -7.47251640965946       -5.10465122572072        0.14639831249022

          :  Hamiltonian                  GFN2-xTB          :
         :: gradient norm              0.000045430154 Eh/a0 ::
         :: HOMO-LUMO gap              0.456574457445 eV    ::
         :: SCC energy              -172.940679456443 Eh    ::
         :: -> dispersion             -0.193251556658 Eh    ::
         :: -> Gsolv                  -0.058620735374 Eh    ::
         :: repulsion energy           3.264133610255 Eh    ::

    * Orbital Energies and Occupations

         #    Occupation            Energy/Eh            Energy/eV
      -------------------------------------------------------------
         1        2.0000           -0.6659830             -18.1223
       ...           ...                  ...                  ...
       148        2.0000           -0.4030902             -10.9686
       149        2.0000           -0.4006508             -10.9023
       150        2.0000           -0.4003771             -10.8948
       151        2.0000           -0.3990695             -10.8592
       152        2.0000           -0.3975101             -10.8168
       153        2.0000           -0.3968790             -10.7996
       154        2.0000           -0.3944379             -10.7332
       155        2.0000           -0.3873436             -10.5402
       156        2.0000           -0.3608898              -9.8203
       157        1.9661           -0.3508971              -9.5484
       158        1.9547           -0.3506095              -9.5406
       159        1.0792           -0.3453829              -9.3983
       160        0.9999           -0.2882263              -7.8430 (HOMO)
       161        0.0001           -0.2714472              -7.3865 (LUMO)
       162                         -0.2390792              -6.5057
       163                         -0.2327237              -6.3327
       164                         -0.2320306              -6.3139
       165                         -0.2307865              -6.2800
       166                         -0.2296968              -6.2504
       167                         -0.2287704              -6.2252
       168                         -0.2278335              -6.1997
       169                         -0.2254308              -6.1343
       170                         -0.2232773              -6.0757
       171                         -0.2227742              -6.0620
       ...                                ...                  ...
       316                          0.7251985              19.7337
      -------------------------------------------------------------
                  HL-Gap            0.0167791 Eh            0.4566 eV

     #   Z          covCN         q      C6AA      α(0)
     1   6 C        2.918    -0.041    29.017     8.833
     2   6 C        2.919    -0.030    28.756     8.794
     3   6 C        2.923    -0.051    29.259     8.870
     4   6 C        2.920     0.067    26.502     8.442
     5   7 N        2.751    -0.077    22.727     7.080
     6   6 C        2.926     0.069    26.458     8.435
     7   6 C        2.922    -0.042    29.045     8.838
     8   6 C        2.919    -0.028    28.699     8.785
     9   6 C        2.920    -0.035    28.880     8.813
    10   6 C        2.919    -0.029    28.721     8.788
    11   6 C        2.923    -0.044    29.086     8.844
    12   6 C        2.926     0.062    26.605     8.459
    13   6 C        2.921    -0.048    29.187     8.859
    14   6 C        2.918    -0.033    28.825     8.804
    15   6 C        2.916    -0.039    28.960     8.825
    16   6 C        2.924    -0.033    28.833     8.806
    17   6 C        2.975    -0.002    28.064     8.690
    18   6 C        2.975    -0.010    28.269     8.721
    19   6 C        2.979     0.006    27.881     8.661
    20   6 C        2.921    -0.039    28.963     8.825
    21   6 C        2.914    -0.032    28.806     8.801
    22   6 C        2.915    -0.033    28.834     8.805
    23   6 C        2.921    -0.037    28.932     8.821
    24   6 C        2.979     0.005    27.897     8.664
    25   6 C        2.973    -0.008    28.220     8.714
    26   6 C        2.972     0.005    27.907     8.665
    27   6 C        2.918    -0.033    28.834     8.805
    28   6 C        2.914    -0.042    29.041     8.837
    29   6 C        2.981     0.007    27.859     8.658
    30   6 C        2.914    -0.040    28.988     8.829
    31   6 C        2.914    -0.039    28.970     8.826
    32   6 C        2.981     0.004    27.922     8.668
    33   6 C        2.976    -0.001    28.036     8.685
    34   6 C        2.978    -0.002    28.077     8.692
    35   6 C        2.923    -0.034    28.839     8.807
    36   6 C        2.917    -0.037    28.931     8.820
    37   6 C        2.918    -0.032    28.808     8.802
    38   6 C        2.921    -0.046    29.147     8.853
    39   6 C        2.929     0.061    26.636     8.464
    40   7 N        2.752    -0.075    22.690     7.075
    41   6 C        2.921     0.067    26.508     8.443
    42   6 C        2.923    -0.049    29.215     8.864
    43   6 C        2.919    -0.030    28.756     8.794
    44   6 C        2.918    -0.040    28.995     8.830
    45   6 C        2.919    -0.030    28.747     8.792
    46   6 C        2.922    -0.049    29.227     8.866
    47   6 C        2.924     0.068    26.485     8.440
    48   6 C        2.922    -0.046    29.140     8.852
    49   6 C        2.920    -0.029    28.733     8.790
    50   6 C        2.919    -0.038    28.936     8.821
    51   6 C        2.919    -0.029    28.722     8.789
    52   6 C        2.923    -0.046    29.143     8.853
    53   6 C        2.918    -0.034    28.841     8.807
    54   6 C        2.917    -0.042    29.047     8.838
    55   6 C        2.982     0.007    27.847     8.656
    56   6 C        2.915    -0.040    28.993     8.830
    57   6 C        2.915    -0.035    28.874     8.811
    58   6 C        2.979     0.005    27.902     8.665
    59   6 C        2.993     0.001    28.001     8.680
    60   6 C        2.996     0.000    28.016     8.683
    61   6 C        2.977     0.007    27.862     8.658
    62   6 C        2.921    -0.036    28.891     8.814
    63   6 C        2.915    -0.033    28.817     8.803
    64   6 C        2.914    -0.033    28.820     8.803
    65   6 C        2.922    -0.037    28.909     8.817
    66   6 C        2.980     0.007    27.869     8.660
    67   6 C        2.923    -0.049    29.213     8.863
    68   6 C        2.919    -0.031    28.764     8.795
    69   1 H        0.926     0.031     2.578     2.511
    70   1 H        0.926     0.032     2.561     2.502
    71   1 H        0.926     0.029     2.602     2.522
    72   1 H        0.926     0.031     2.578     2.511
    73   1 H        0.926     0.034     2.528     2.486
    74   1 H        0.926     0.033     2.542     2.493
    75   1 H        0.926     0.034     2.529     2.487
    76   1 H        0.926     0.032     2.557     2.501
    77   1 H        0.926     0.034     2.529     2.487
    78   1 H        0.926     0.035     2.521     2.483
    79   1 H        0.926     0.034     2.528     2.486
    80   1 H        0.926     0.034     2.524     2.484
    81   1 H        0.926     0.030     2.581     2.512
    82   1 H        0.926     0.029     2.603     2.523
    83   1 H        0.926     0.029     2.603     2.523
    84   1 H        0.926     0.032     2.557     2.500
    85   1 H        0.926     0.033     2.543     2.494
    86   1 H        0.926     0.031     2.578     2.511
    87   1 H        0.925     0.030     2.593     2.518
    88   1 H        0.926     0.031     2.577     2.510
    89   1 H        0.926     0.036     2.504     2.475
    90   1 H        0.926     0.035     2.514     2.479
    91   1 H        0.926     0.036     2.505     2.475
    92   1 H        0.926     0.034     2.529     2.487
    93   1 H        0.926     0.029     2.601     2.522
    94   1 H        0.926     0.033     2.547     2.496
    95   1 H        0.926     0.031     2.568     2.506
    96   1 H        0.926     0.033     2.547     2.495
    97   1 H        0.926     0.031     2.570     2.507
    98   1 H        0.926     0.032     2.552     2.498
    99   1 H        0.926     0.033     2.544     2.494
   100   1 H        0.926     0.030     2.580     2.512
   101   1 H        0.926     0.032     2.554     2.499
   102   1 H        0.926     0.030     2.581     2.512
   103   1 H        0.925     0.026     2.638     2.540
   104   1 H        0.926     0.030     2.593     2.518
   105   1 H        0.926     0.029     2.601     2.522
   106   1 H        0.926     0.029     2.604     2.523
   107   1 H        0.926     0.030     2.593     2.518
   108   1 H        0.926     0.027     2.628     2.535
   109   1 H        0.926     0.027     2.628     2.535
   110   1 H        0.926     0.026     2.638     2.540
   111   1 H        0.926     0.031     2.577     2.510
   112   1 H        0.926     0.032     2.552     2.498

molecular dipole:
                 x           y           z       tot (Debye)
 q only:        0.072       0.010      -0.201
   full:        0.068      -0.014      -0.193       0.521

 projected vibrational frequencies (cm⁻¹)
eigval :       -0.00    -0.00    -0.00     0.00     0.00     0.00
eigval :        6.37     8.94    12.29    17.39    17.97    21.59
eigval :       29.85    39.30    44.72    48.69    52.86    54.74
eigval :       62.50    66.72    68.24    72.87    74.88    80.07
eigval :       85.09    87.28    91.23    97.77   102.71   112.59
eigval :      118.58   141.83   148.87   156.74   164.17   174.01
eigval :      177.65   193.39   203.85   208.54   221.69   223.70
eigval :      231.96   234.24   241.55   253.74   258.22   280.80
eigval :      284.49   295.63   299.93   318.82   319.48   332.63
eigval :      340.54   356.38   365.33   374.95   378.50   380.27
eigval :      384.54   385.12   387.23   387.81   389.61   401.67
eigval :      405.41   411.06   426.98   429.88   438.99   457.92
eigval :      459.77   465.94   469.79   472.74   474.26   478.42
eigval :      484.32   489.13   496.93   501.97   504.88   520.25
eigval :      525.57   543.83   559.01   572.25   577.60   582.17
eigval :      582.99   583.66   587.09   589.27   592.24   596.10
eigval :      598.61   599.59   603.53   612.62   630.76   638.52
eigval :      642.03   654.67   657.25   658.55   661.73   663.34
eigval :      674.27   674.87   678.83   691.44   695.30   704.20
eigval :      708.15   714.15   721.62   727.18   739.89   752.58
eigval :      753.64   754.15   755.74   758.08   760.05   765.31
eigval :      775.57   782.55   795.68   802.17   803.20   833.11
eigval :      837.45   839.17   853.17   858.70   871.00   871.24
eigval :      873.01   874.39   880.41   883.68   888.05   889.52
eigval :      891.81   894.44   894.92   898.13   898.62   900.93
eigval :      903.92   907.56   907.70   909.08   909.57   909.90
eigval :      910.21   915.20   917.48   919.83   920.89   923.79
eigval :      924.55   924.89   925.61   927.09   927.48   928.06
eigval :      928.35   928.68   929.75   930.98   945.81   953.16
eigval :      984.58   985.23   996.28  1002.38  1003.38  1059.78
eigval :     1081.20  1082.52  1083.55  1085.74  1092.19  1093.85
eigval :     1099.71  1102.16  1104.23  1119.10  1119.92  1120.64
eigval :     1122.67  1124.65  1125.25  1127.30  1129.78  1148.98
eigval :     1152.06  1169.53  1175.58  1176.28  1177.87  1178.53
eigval :     1178.84  1180.71  1181.38  1182.80  1185.79  1186.50
eigval :     1187.23  1194.74  1195.65  1198.59  1201.37  1205.45
eigval :     1213.17  1215.33  1223.73  1234.32  1236.02  1243.51
eigval :     1247.38  1256.57  1264.07  1276.90  1277.30  1279.10
eigval :     1279.34  1291.84  1298.75  1300.61  1305.54  1306.46
eigval :     1309.97  1312.22  1316.22  1317.03  1321.46  1322.34
eigval :     1325.91  1326.75  1327.40  1327.82  1336.49  1337.88
eigval :     1340.40  1365.71  1378.47  1385.50  1390.03  1395.50
eigval :     1405.82  1413.29  1417.54  1422.46  1425.97  1434.28
eigval :     1434.55  1439.40  1441.94  1442.78  1451.43  1458.43
eigval :     1462.95  1468.20  1469.71  1470.37  1472.11  1472.82
eigval :     1486.27  1491.88  1517.25  1520.37  1525.88  1526.94
eigval :     1541.38  1552.46  1554.03  1557.25  1558.16  1568.44
eigval :     1572.82  1573.40  1576.10  1578.10  1578.58  1582.11
eigval :     1589.44  1590.69  1596.61  1597.74  3063.16  3064.05
eigval :     3066.08  3066.89  3069.07  3070.46  3070.71  3070.75
eigval :     3071.82  3072.24  3072.38  3072.93  3073.26  3073.37
eigval :     3073.61  3074.86  3075.23  3075.69  3077.64  3077.98
eigval :     3079.09  3081.09  3081.93  3082.14  3082.41  3082.49
eigval :     3083.49  3084.05  3085.08  3085.99  3086.70  3087.65
eigval :     3088.57  3089.39  3089.66  3092.18  3092.34  3092.66
eigval :     3093.22  3093.39  3094.08  3094.72  3095.12  3097.40

   temp. (K)  partition function   enthalpy   heat capacity  entropy
                                   cal/mol     cal/K/mol   cal/K/mol   J/K/mol
 298.15  VIB  0.118E+26            31884.008    203.977    199.430
         ROT  0.187E+09              888.752      2.981     40.833
         INT  0.221E+34            32772.760    206.958    240.263
         TR   0.246E+29             1481.254      4.968     46.129
         TOT                       34254.0140   211.9258   286.3912  1198.2606

       T/K    H(0)-H(T)+PV         H(T)/Eh          T*S/Eh         G(T)/Eh
   ------------------------------------------------------------------------
    298.15    0.545872E-01    0.920297E+00    0.136074E+00    0.784223E+00
   ------------------------------------------------------------------------

         :::::::::::::::::::::::::::::::::::::::::::::::::::::
         ::                  THERMODYNAMIC                  ::
         :::::::::::::::::::::::::::::::::::::::::::::::::::::
         :: total free energy        -168.892322419979 Eh   ::
         ::.................................................::
         :: total energy             -169.676545845944 Eh   ::
         :: zero point energy           0.865709856920 Eh   ::
         :: G(RRHO) w/o ZPVE           -0.081486430955 Eh   ::
         :: G(RRHO) contrib.            0.784223425964 Eh   ::
         :::::::::::::::::::::::::::::::::::::::::::::::::::::

           -------------------------------------------------
          | TOTAL ENERGY             -169.676545845944 Eh   |
          | TOTAL ENTHALPY           -168.756248743018 Eh   |
          | TOTAL FREE ENERGY        -168.892322419979 Eh   |
          | GRADIENT NORM               0.000045604461 Eh/α |
          | HOMO-LUMO GAP               0.456581992249 eV   |
           -------------------------------------------------

 * finished run on 2025/09/03 at 19:59:42.650
