   * xtb version 6.7.1 (edcfbbe) compiled by 'albert@albert-system' on 2024-07-22

   ID    Z sym.   atoms
    1    6 C      1-4, 6-39, 41-68
    2    7 N      5, 40
    3    1 H      69-112

          program call               : xtb data2507/toluene/o-TPA-AP-TPA/o-TPA-AP-TPA_toluene_T1_crest.xyz --gfn 2 --uhf 2 --gbsa toluene --ohess vtight --parallel 40 --molden --ceasefiles --namespace data2507/toluene/o-TPA-AP-TPA/o-TPA-AP-TPA_toluene_T1_finalOpt
      * Solvation model:               GBSA
        Solvent                        toluene
        Solvent mass                       9.2140E+01 g/mol
          :  Hamiltonian                  GFN2-xTB          :
 * total energy  :  -169.6756278 Eh     change       -0.9482108E-08 Eh
 * total energy  :  -169.6757128 Eh     change       -0.8508225E-04 Eh
 * total energy  :  -169.6757836 Eh     change       -0.7073538E-04 Eh
 * total energy  :  -169.6758325 Eh     change       -0.4894302E-04 Eh
 * total energy  :  -169.6758701 Eh     change       -0.3761293E-04 Eh
 * total energy  :  -169.6759127 Eh     change       -0.4259420E-04 Eh
 * total energy  :  -169.6759269 Eh     change       -0.1416981E-04 Eh
 * total energy  :  -169.6759535 Eh     change       -0.2659527E-04 Eh
 * total energy  :  -169.6759631 Eh     change       -0.9653508E-05 Eh
 * total energy  :  -169.6759800 Eh     change       -0.1685438E-04 Eh
 * total energy  :  -169.6763301 Eh     change       -0.2181781E-06 Eh
 * total energy  :  -169.6763304 Eh     change       -0.2318465E-06 Eh
 * total energy  :  -169.6763306 Eh     change       -0.1932478E-06 Eh
 * total energy  :  -169.6763307 Eh     change       -0.1698777E-06 Eh
 * total energy  :  -169.6763310 Eh     change       -0.2215684E-06 Eh
 * total energy  :  -169.6763312 Eh     change       -0.2477288E-06 Eh
 * total energy  :  -169.6763315 Eh     change       -0.2777476E-06 Eh
 * total energy  :  -169.6763319 Eh     change       -0.3682607E-06 Eh
 * total energy  :  -169.6763319 Eh     change       -0.4085535E-08 Eh
   *** GEOMETRY OPTIMIZATION CONVERGED AFTER 94 ITERATIONS ***

 final structure:
================
112
 xtb: 6.7.1 (edcfbbe)
C           -6.61955900313286       -5.01377598291934        1.04904820765870
C           -6.12788854263498       -4.79625989285099       -0.22788154522669
C           -5.89057263241023       -3.51311976479221       -0.68036933178861
C           -6.13146703002875       -2.41290504196258        0.14603278992746
N           -5.88295878193534       -1.11829093021134       -0.30939518367108
C           -4.90792834162320       -0.88958057205937       -1.29165102592173
C           -3.66328250318144       -1.51535599735784       -1.21969488590485
C           -2.71612168428018       -1.28841456598557       -2.19777789712047
C           -2.99272756622701       -0.44125043541464       -3.25956695016388
C           -4.22648186102142        0.18305794268034       -3.33528163450810
C           -5.18121626684453       -0.03988283067383       -2.36215894083206
C           -6.64988191635475       -0.03726985701595        0.15339425804559
C           -8.02659268659133       -0.18003491590822        0.31166697944576
C           -8.80083968211054        0.86888673107547        0.76980493757687
C           -8.20844360387095        2.08573676995724        1.06872446851127
C           -6.84567006179834        2.24463778863084        0.89654462744599
C           -6.04368934304586        1.20051632603979        0.44142790211296
C           -4.59499039747434        1.39694945895709        0.27519467124376
C           -4.10438657956123        2.33361943276981       -0.66893693455836
C           -4.96717092724577        3.14336581421398       -1.42929290071902
C           -4.48043799801623        4.11506140826115       -2.27938980577041
C           -3.11150010906224        4.32228582842476       -2.37841553215115
C           -2.23887886357287        3.51017830101884       -1.67696025016522
C           -2.69905654679326        2.46438223621598       -0.86467293136856
C           -1.78558949747294        1.59392693778566       -0.18520161511739
C           -0.39829660747914        1.60337392314188       -0.56724223874974
C           -0.08646421266165        1.48581295553213       -1.93788873560381
C            1.19750062706180        1.34049154314777       -2.37898927329787
C            2.28466371835777        1.35372607865595       -1.47548970156108
C            3.61782371703196        1.21621689715736       -1.90518991176367
C            4.65204201659518        1.21519201844806       -1.01138795695247
C            4.42204807106092        1.36255661709833        0.37535865959444
C            5.46946667553406        1.30511435999708        1.32506059450902
C            6.83376585730084        0.88913970745600        0.96574402618721
C            7.89971938996273        1.71622948658382        1.31560901698220
C            9.20801430358006        1.37437206087935        1.03262987196160
C            9.47822931913211        0.16769126899766        0.40591170417118
C            8.44105342944007       -0.67959607628966        0.07042337403524
C            7.11441985667392       -0.33694993656288        0.33267247080365
N            6.09574796051826       -1.23747324007337       -0.01910983527104
C            5.04145033455681       -1.48248091714937        0.86969301920554
C            5.27622029784363       -1.53071183310619        2.24259731638052
C            4.23169098699639       -1.75053977558441        3.11969177768938
C            2.94383453392850       -1.93261727415140        2.64486318126810
C            2.70717082587634       -1.89727032812711        1.28003058191130
C            3.74347740107001       -1.67395751689757        0.39615726931116
C            6.17773896295125       -1.94953206497296       -1.21876592606776
C            6.76290250015202       -1.38162214802798       -2.35230188421692
C            6.83625726697860       -2.09205063912817       -3.53447944054278
C            6.32874065370538       -3.37860839179012       -3.61562150128061
C            5.75337534278056       -3.95257259573606       -2.49340583463468
C            5.68200173430835       -3.25217422078769       -1.30504272525702
C            5.20299499627068        1.63155344901275        2.65395222322122
C            3.93032985783655        1.93110651408414        3.08043870394951
C            2.84659932884825        1.88722010479468        2.18603229674255
C            1.51916931649497        2.14557804763828        2.59368447673256
C            0.47838159826038        2.05129824191523        1.71438743599153
C            0.68473492877542        1.69883108885067        0.36232434293850
C            2.01833779219713        1.54837613618379       -0.09643642991322
C            3.09623057267674        1.59974957939137        0.82194356437105
C           -2.29255518370019        0.67543459038641        0.79012298499223
C           -1.47903542999641       -0.27256574847369        1.42576965690018
C           -1.97825467827883       -1.13573445734841        2.38264567177264
C           -3.31700648782333       -1.07229623043841        2.74673902472087
C           -4.15925344438979       -0.20328640135948        2.08632551905024
C           -3.69185887625468        0.63498644467656        1.05909347552893
C           -6.63347038731536       -2.64120120347964        1.42909657526288
C           -6.87444088546825       -3.92738693955573        1.87016454669656
H           -6.80592305381958       -6.01804640956456        1.39886971364869
H           -5.93552312424576       -5.63325814048653       -0.88364393807575
H           -5.52212967031697       -3.35498993645619       -1.68330152276300
H           -3.44590743928129       -2.16860677848937       -0.38742673519576
H           -1.75187368720495       -1.77033941161988       -2.12760203264013
H           -2.25155569784312       -0.27456789382628       -4.02704421380533
H           -4.45076388751409        0.84320174186481       -4.16031487585802
H           -6.14690215084985        0.44030028195151       -2.42494683366045
H           -8.48494611591363       -1.12694874309557        0.06480192706741
H           -9.86641510138440        0.73756489769439        0.88584374038807
H           -8.80592476897088        2.90782193510229        1.43351966520492
H           -6.37587150727528        3.18623020100828        1.14305634837333
H           -6.03365657640362        3.00551124987839       -1.33699870060103
H           -5.16592819856645        4.72463098406374       -2.85016240163172
H           -2.72393909927174        5.11263714027067       -3.00451593801894
H           -1.17731363923213        3.69239220356300       -1.75171085236590
H           -0.90667449562003        1.42475821339561       -2.63828433857702
H            1.39844523641404        1.18857127616448       -3.43017788082029
H            3.81375290836498        1.11114394959564       -2.96341608576780
H            5.66820615919636        1.12664130971404       -1.36245227403161
H            7.68155060538683        2.65965507796772        1.79553153367543
H           10.01276560073526        2.04205167264544        1.30156010795671
H           10.49651718807682       -0.12033266716485        0.19080021258907
H            8.64986695640677       -1.63166904490991       -0.39634622722987
H            6.28165281352822       -1.39486181244424        2.61444134191494
H            4.42688768663134       -1.78440231218093        4.18165617724672
H            2.13060960421645       -2.10004943261463        3.33462419064200
H            1.70584834434634       -2.03502721162747        0.89868446094616
H            3.55355648653582       -1.62897581099387       -0.66610952690172
H            7.16462186538359       -0.38033107371954       -2.30451483311329
H            7.28946659208718       -1.63349331914173       -4.40162603337281
H            6.38485538506690       -3.92966324374596       -4.54232625070767
H            5.36501172720396       -4.95981613273646       -2.53960554736435
H            5.24580463363935       -3.71363978457880       -0.43116027532724
H            6.01562673683611        1.61345486385877        3.36691168899157
H            3.74605683096907        2.17487748021100        4.11682124373220
H            1.33707347294201        2.41580867823222        3.62426152738839
H           -0.52918708003965        2.24901987876464        2.04997100465327
H           -0.43339722809999       -0.32733571669977        1.16633340581540
H           -1.32142337509673       -1.84973772981233        2.85710712585928
H           -3.70159985209532       -1.71180759855876        3.52770180228363
H           -5.20185347103084       -0.15562080021351        2.36052234034343
H           -6.83519654875015       -1.80628537319248        2.08271761070350
H           -7.25961853798013       -4.08199408768877        2.86787260087717

          :  Hamiltonian                  GFN2-xTB          :
         :: gradient norm              0.000101277614 Eh/a0 ::
         :: HOMO-LUMO gap              0.477188529610 eV    ::
         :: SCC energy              -172.939751197181 Eh    ::
         :: -> dispersion             -0.197010723781 Eh    ::
         :: -> Gsolv                  -0.057058476468 Eh    ::
         :: repulsion energy           3.263419333453 Eh    ::

    * Orbital Energies and Occupations

         #    Occupation            Energy/Eh            Energy/eV
      -------------------------------------------------------------
         1        2.0000           -0.6655573             -18.1107
       ...           ...                  ...                  ...
       148        2.0000           -0.4030650             -10.9680
       149        2.0000           -0.4013423             -10.9211
       150        2.0000           -0.4002323             -10.8909
       151        2.0000           -0.3982155             -10.8360
       152        2.0000           -0.3973400             -10.8122
       153        2.0000           -0.3962434             -10.7823
       154        2.0000           -0.3943238             -10.7301
       155        2.0000           -0.3870437             -10.5320
       156        2.0000           -0.3608355              -9.8188
       157        1.9601           -0.3505207              -9.5382
       158        1.9587           -0.3504867              -9.5372
       159        1.0812           -0.3451930              -9.3932
       160        0.9999           -0.2894271              -7.8757 (HOMO)
       161        0.0001           -0.2718905              -7.3985 (LUMO)
       162                         -0.2393272              -6.5124
       163                         -0.2329790              -6.3397
       164                         -0.2318185              -6.3081
       165                         -0.2309527              -6.2845
       166                         -0.2289340              -6.2296
       167                         -0.2286802              -6.2227
       168                         -0.2279420              -6.2026
       169                         -0.2255099              -6.1364
       170                         -0.2229596              -6.0670
       171                         -0.2229044              -6.0655
       ...                                ...                  ...
       316                          0.7259871              19.7551
      -------------------------------------------------------------
                  HL-Gap            0.0175366 Eh            0.4772 eV

     #   Z          covCN         q      C6AA      α(0)
     1   6 C        2.918    -0.041    29.017     8.833
     2   6 C        2.919    -0.030    28.758     8.794
     3   6 C        2.923    -0.051    29.257     8.870
     4   6 C        2.920     0.067    26.503     8.442
     5   7 N        2.751    -0.077    22.729     7.081
     6   6 C        2.925     0.069    26.460     8.436
     7   6 C        2.922    -0.043    29.060     8.840
     8   6 C        2.919    -0.028    28.701     8.785
     9   6 C        2.920    -0.036    28.893     8.815
    10   6 C        2.919    -0.029    28.731     8.790
    11   6 C        2.923    -0.044    29.102     8.847
    12   6 C        2.925     0.062    26.606     8.459
    13   6 C        2.921    -0.048    29.180     8.858
    14   6 C        2.918    -0.033    28.824     8.804
    15   6 C        2.916    -0.039    28.959     8.825
    16   6 C        2.924    -0.034    28.836     8.806
    17   6 C        2.975    -0.002    28.065     8.690
    18   6 C        2.975    -0.010    28.254     8.719
    19   6 C        2.979     0.006    27.874     8.660
    20   6 C        2.921    -0.039    28.958     8.825
    21   6 C        2.914    -0.032    28.799     8.800
    22   6 C        2.915    -0.033    28.833     8.805
    23   6 C        2.921    -0.037    28.908     8.817
    24   6 C        2.980     0.005    27.901     8.664
    25   6 C        2.973    -0.008    28.213     8.713
    26   6 C        2.971     0.005    27.908     8.665
    27   6 C        2.918    -0.033    28.828     8.805
    28   6 C        2.914    -0.042    29.042     8.837
    29   6 C        2.982     0.007    27.854     8.657
    30   6 C        2.915    -0.040    28.987     8.829
    31   6 C        2.915    -0.037    28.918     8.818
    32   6 C        2.982     0.005    27.897     8.664
    33   6 C        2.976    -0.001    28.038     8.686
    34   6 C        2.976    -0.005    28.134     8.701
    35   6 C        2.927    -0.036    28.887     8.814
    36   6 C        2.916    -0.038    28.951     8.823
    37   6 C        2.918    -0.033    28.823     8.804
    38   6 C        2.922    -0.048    29.187     8.859
    39   6 C        2.923     0.062    26.620     8.461
    40   7 N        2.751    -0.074    22.683     7.074
    41   6 C        2.924     0.068    26.470     8.437
    42   6 C        2.923    -0.046    29.149     8.854
    43   6 C        2.920    -0.030    28.747     8.792
    44   6 C        2.919    -0.037    28.926     8.820
    45   6 C        2.920    -0.028    28.707     8.786
    46   6 C        2.922    -0.044    29.088     8.845
    47   6 C        2.922     0.067    26.501     8.442
    48   6 C        2.922    -0.047    29.174     8.858
    49   6 C        2.919    -0.030    28.760     8.794
    50   6 C        2.918    -0.040    28.992     8.830
    51   6 C        2.919    -0.030    28.750     8.793
    52   6 C        2.923    -0.049    29.222     8.865
    53   6 C        2.919    -0.036    28.898     8.815
    54   6 C        2.917    -0.042    29.045     8.838
    55   6 C        2.982     0.007    27.849     8.656
    56   6 C        2.915    -0.040    28.991     8.829
    57   6 C        2.915    -0.035    28.864     8.810
    58   6 C        2.979     0.005    27.897     8.664
    59   6 C        2.994     0.001    27.993     8.679
    60   6 C        2.997    -0.000    28.019     8.683
    61   6 C        2.976     0.007    27.861     8.658
    62   6 C        2.921    -0.036    28.889     8.814
    63   6 C        2.916    -0.032    28.808     8.801
    64   6 C        2.914    -0.033    28.817     8.803
    65   6 C        2.923    -0.036    28.895     8.815
    66   6 C        2.981     0.007    27.867     8.659
    67   6 C        2.923    -0.049    29.213     8.863
    68   6 C        2.919    -0.031    28.765     8.795
    69   1 H        0.926     0.031     2.579     2.511
    70   1 H        0.926     0.032     2.562     2.503
    71   1 H        0.926     0.029     2.599     2.521
    72   1 H        0.926     0.030     2.581     2.513
    73   1 H        0.926     0.033     2.544     2.494
    74   1 H        0.926     0.033     2.541     2.493
    75   1 H        0.926     0.033     2.538     2.491
    76   1 H        0.926     0.032     2.565     2.504
    77   1 H        0.926     0.034     2.531     2.488
    78   1 H        0.926     0.035     2.521     2.483
    79   1 H        0.926     0.034     2.526     2.486
    80   1 H        0.926     0.035     2.516     2.480
    81   1 H        0.926     0.031     2.567     2.506
    82   1 H        0.926     0.029     2.596     2.520
    83   1 H        0.926     0.029     2.598     2.521
    84   1 H        0.926     0.032     2.553     2.499
    85   1 H        0.926     0.033     2.544     2.494
    86   1 H        0.926     0.030     2.589     2.516
    87   1 H        0.925     0.028     2.619     2.531
    88   1 H        0.926     0.028     2.611     2.527
    89   1 H        0.926     0.035     2.519     2.482
    90   1 H        0.926     0.034     2.534     2.489
    91   1 H        0.926     0.034     2.526     2.485
    92   1 H        0.926     0.033     2.542     2.493
    93   1 H        0.926     0.030     2.580     2.512
    94   1 H        0.926     0.034     2.529     2.487
    95   1 H        0.926     0.032     2.558     2.501
    96   1 H        0.926     0.030     2.579     2.511
    97   1 H        0.926     0.030     2.585     2.514
    98   1 H        0.926     0.030     2.582     2.513
    99   1 H        0.926     0.033     2.539     2.492
   100   1 H        0.926     0.032     2.564     2.504
   101   1 H        0.926     0.033     2.549     2.496
   102   1 H        0.926     0.030     2.583     2.514
   103   1 H        0.926     0.030     2.586     2.515
   104   1 H        0.926     0.030     2.580     2.512
   105   1 H        0.926     0.029     2.594     2.519
   106   1 H        0.926     0.030     2.590     2.517
   107   1 H        0.926     0.031     2.573     2.509
   108   1 H        0.926     0.027     2.626     2.534
   109   1 H        0.926     0.027     2.626     2.534
   110   1 H        0.926     0.027     2.630     2.536
   111   1 H        0.926     0.031     2.577     2.510
   112   1 H        0.926     0.032     2.552     2.498

molecular dipole:
                 x           y           z       tot (Debye)
 q only:       -0.042      -0.155      -0.103
   full:       -0.047      -0.184      -0.090       0.534

 projected vibrational frequencies (cm⁻¹)
eigval :       -0.00    -0.00     0.00     0.00     0.00     0.00
eigval :        8.77    10.77    13.98    17.54    21.05    26.78
eigval :       30.94    41.50    45.35    54.64    58.21    64.78
eigval :       65.32    67.70    72.00    76.11    77.51    81.15
eigval :       84.98    88.59   100.10   102.96   108.75   115.31
eigval :      119.92   148.38   149.75   157.40   169.83   173.36
eigval :      177.96   193.94   206.84   209.44   222.74   231.09
eigval :      235.14   239.45   243.00   254.70   263.75   279.46
eigval :      286.69   289.36   300.43   318.92   322.82   333.09
eigval :      340.25   354.36   368.03   370.29   379.23   380.11
eigval :      386.14   386.77   387.52   388.73   395.14   401.07
eigval :      406.94   411.61   427.80   434.47   440.44   455.13
eigval :      460.15   467.29   470.09   474.51   476.61   479.44
eigval :      485.28   491.97   497.16   503.75   506.70   517.30
eigval :      524.41   545.45   559.87   573.12   578.64   582.75
eigval :      583.42   584.66   588.12   589.13   593.34   597.38
eigval :      598.43   599.29   602.96   612.67   633.68   635.49
eigval :      640.50   654.87   658.10   658.85   662.13   663.62
eigval :      673.79   676.86   679.63   688.26   693.39   701.79
eigval :      704.45   715.40   722.66   727.80   740.90   749.38
eigval :      752.73   754.28   756.00   758.98   761.55   765.80
eigval :      778.20   779.72   795.95   803.01   805.00   833.33
eigval :      835.41   838.82   856.78   859.47   871.81   872.66
eigval :      874.35   875.11   881.13   882.20   887.39   888.97
eigval :      891.26   894.45   894.95   899.91   900.05   901.86
eigval :      905.01   905.66   907.40   908.20   908.44   909.61
eigval :      911.22   912.76   918.08   919.30   920.58   923.88
eigval :      924.75   924.92   926.12   927.54   928.28   929.19
eigval :      929.28   930.19   932.02   935.28   946.31   953.97
eigval :      984.45   985.21   996.54  1002.20  1002.79  1058.25
eigval :     1081.72  1082.68  1084.63  1084.73  1094.77  1099.08
eigval :     1101.15  1102.15  1103.54  1119.10  1120.68  1122.74
eigval :     1123.98  1124.86  1126.21  1127.04  1130.28  1150.71
eigval :     1156.62  1169.88  1177.42  1178.28  1178.30  1178.51
eigval :     1178.67  1179.72  1182.64  1184.47  1186.08  1187.29
eigval :     1188.47  1195.05  1196.18  1198.92  1202.25  1208.97
eigval :     1209.85  1214.18  1224.87  1235.46  1237.24  1247.50
eigval :     1248.74  1257.55  1262.72  1275.99  1276.13  1279.12
eigval :     1279.24  1287.68  1295.97  1299.09  1301.80  1306.64
eigval :     1309.58  1311.34  1315.11  1315.78  1321.74  1322.67
eigval :     1327.09  1327.40  1327.86  1328.35  1336.60  1338.94
eigval :     1340.93  1365.61  1378.05  1385.22  1390.58  1399.02
eigval :     1406.20  1413.18  1418.13  1419.97  1422.97  1433.97
eigval :     1434.34  1437.39  1441.67  1442.53  1450.74  1457.41
eigval :     1462.52  1468.91  1469.42  1470.28  1471.45  1472.18
eigval :     1485.25  1490.48  1516.88  1519.99  1523.59  1530.49
eigval :     1540.90  1552.42  1553.61  1555.65  1557.06  1566.03
eigval :     1572.77  1574.05  1575.98  1578.24  1579.02  1582.05
eigval :     1589.66  1590.70  1596.65  1597.73  3063.96  3064.76
eigval :     3067.28  3067.73  3069.72  3070.08  3070.79  3071.47
eigval :     3072.20  3072.42  3072.52  3073.09  3073.15  3073.16
eigval :     3073.40  3074.52  3075.06  3075.22  3077.73  3077.97
eigval :     3081.46  3081.88  3082.23  3082.36  3082.46  3083.35
eigval :     3084.23  3085.04  3085.25  3085.64  3087.48  3087.77
eigval :     3088.95  3089.36  3092.52  3092.91  3092.97  3093.26
eigval :     3093.53  3094.92  3095.63  3096.51  3100.07  3102.54

   temp. (K)  partition function   enthalpy   heat capacity  entropy
                                   cal/mol     cal/K/mol   cal/K/mol   J/K/mol
 298.15  VIB  0.174E+25            31724.227    204.451    197.168
         ROT  0.166E+09              888.752      2.981     40.594
         INT  0.288E+33            32612.980    207.432    237.762
         TR   0.246E+29             1481.254      4.968     46.129
         TOT                       34094.2337   212.3997   283.8905  1187.7980

       T/K    H(0)-H(T)+PV         H(T)/Eh          T*S/Eh         G(T)/Eh
   ------------------------------------------------------------------------
    298.15    0.543326E-01    0.920516E+00    0.134886E+00    0.785631E+00
   ------------------------------------------------------------------------

         :::::::::::::::::::::::::::::::::::::::::::::::::::::
         ::                  THERMODYNAMIC                  ::
         :::::::::::::::::::::::::::::::::::::::::::::::::::::
         :: total free energy        -168.890701253500 Eh   ::
         ::.................................................::
         :: total energy             -169.676331865993 Eh   ::
         :: zero point energy           0.866183542530 Eh   ::
         :: G(RRHO) w/o ZPVE           -0.080552930036 Eh   ::
         :: G(RRHO) contrib.            0.785630612493 Eh   ::
         :::::::::::::::::::::::::::::::::::::::::::::::::::::

           -------------------------------------------------
          | TOTAL ENERGY             -169.676331865993 Eh   |
          | TOTAL ENTHALPY           -168.755815703631 Eh   |
          | TOTAL FREE ENERGY        -168.890701253500 Eh   |
          | GRADIENT NORM               0.000101202983 Eh/α |
          | HOMO-LUMO GAP               0.477196121976 eV   |
           -------------------------------------------------

 * finished run on 2025/09/03 at 20:22:02.410
