   * xtb version 6.7.1 (edcfbbe) compiled by 'albert@albert-system' on 2024-07-22

   ID    Z sym.   atoms
    1    6 C      1-34
    2    1 H      35-56

          program call               : xtb data2507/gas/ADN/ADN_gas_S0_finalOpt.xtbopt.xyz --gfn 2 --spinpol --tblite --uhf 2 --ohess vtight --parallel 40 --molden --ceasefiles --namespace data2507/gas/ADN/ADN_gas_T1_preOpt
 * total energy  :   -83.9549779 Eh     change        0.4000310E-07 Eh
 * total energy  :   -83.9613005 Eh     change       -0.6322531E-02 Eh
 * total energy  :   -83.9627539 Eh     change       -0.1453458E-02 Eh
 * total energy  :   -83.9628750 Eh     change       -0.1210444E-03 Eh
 * total energy  :   -83.9629815 Eh     change       -0.1065450E-03 Eh
 * total energy  :   -83.9630351 Eh     change       -0.5355422E-04 Eh
 * total energy  :   -83.9630898 Eh     change       -0.5476811E-04 Eh
 * total energy  :   -83.9631526 Eh     change       -0.6271168E-04 Eh
 * total energy  :   -83.9632161 Eh     change       -0.6352203E-04 Eh
 * total energy  :   -83.9632769 Eh     change       -0.6086583E-04 Eh
 * total energy  :   -83.9643111 Eh     change       -0.6157460E-06 Eh
 * total energy  :   -83.9643115 Eh     change       -0.3823070E-06 Eh
 * total energy  :   -83.9643117 Eh     change       -0.2128801E-06 Eh
 * total energy  :   -83.9643118 Eh     change       -0.1551579E-06 Eh
 * total energy  :   -83.9643120 Eh     change       -0.1790328E-06 Eh
 * total energy  :   -83.9643123 Eh     change       -0.2410279E-06 Eh
 * total energy  :   -83.9643125 Eh     change       -0.2134020E-06 Eh
 * total energy  :   -83.9643126 Eh     change       -0.1163833E-06 Eh
 * total energy  :   -83.9643126 Eh     change       -0.3209639E-07 Eh
   *** GEOMETRY OPTIMIZATION CONVERGED AFTER 38 ITERATIONS ***

 final structure:
================
56
 xtb: 6.7.1 (edcfbbe)
C           -7.86297214762103       -0.45349225874241        0.11972136464025
C           -7.28484106883731       -1.16519273068474        1.18191607189307
C           -5.92799960990185       -1.18186061231205        1.34585906784105
C           -5.08533689976227       -0.48522026253159        0.45249652873540
C           -3.68646723630103       -0.48843563001865        0.59316072789086
C           -2.87020370709586        0.20352203781613       -0.27994354909316
C           -1.41859801199306        0.19734523418045       -0.13206643214410
C           -0.70735521653141       -1.04396556289103       -0.09272205962070
C           -1.35665213794970       -2.26890194073183       -0.26083237592973
C           -0.67377945033238       -3.47774460930222       -0.14137718185640
C            0.67155724678751       -3.47769813070662        0.15306651968054
C            1.35517523104019       -2.26891202288483        0.26880612873283
C            0.70664970837651       -1.04410025979442        0.09686146713189
C            1.41860586184753        0.19691550246893        0.13236464263827
C            2.87015473248929        0.20302352894202        0.28059278355371
C            3.47086640782980        0.92837966321392        1.33955402162990
C            4.82295992266735        0.93659247514858        1.50777149524999
C            5.67273686167223        0.23790742983874        0.62097616422878
C            7.07292940283854        0.23489827425447        0.76289497737611
C            7.86310756304427       -0.45402301458589       -0.11704707407320
C            7.28507185647805       -1.17012657925253       -1.17631667280689
C            5.92819790580251       -1.18807526064894       -1.33988817064358
C            5.08539813593250       -0.48828322415452       -0.44911607442343
C            3.68652347080327       -0.49225208504567       -0.58978342843939
C            0.71246879093120        1.43707449116686        0.03225097496816
C            1.38273115408798        2.66101052999823       -0.02708084306875
C            0.68910140259850        3.86978418556841       -0.03582047054698
C           -0.68692838422417        3.87030668920789        0.02339425777927
C           -1.38128383214651        2.66193380679162        0.01878324320121
C           -0.71174198361276        1.43739822812469       -0.03625716949408
C           -3.47100769540732        0.92496930421102       -1.34149695445275
C           -4.82311212573588        0.93229693420082       -1.50975540181028
C           -5.67276578095350        0.23666118058952       -0.62045794731488
C           -7.07293091140750        0.23243944600441       -0.76267286854442
H           -8.93713826253154       -0.45137486597422        0.00537751764230
H           -7.92329461639328       -1.70003744922894        1.87007421459914
H           -5.47776382815315       -1.72987733514996        2.16153223601432
H           -3.24900263223291       -1.02023705456520        1.42684136222534
H           -2.41023205614837       -2.28421737138515       -0.49431961648994
H           -1.20946985081748       -4.40659415113506       -0.26894738187703
H            1.20666672701109       -4.40648539059208        0.28349633437502
H            2.40872876401581       -2.28415905803436        0.50241413364001
H            2.82970252223578        1.44841920471663        2.03685680134504
H            5.26710734529542        1.47743907475666        2.33178705765521
H            7.51365234870008        0.78855487072163        1.58010573112970
H            8.93730721617575       -0.45082317760386       -0.00304381523872
H            7.92361945433727       -1.70739310028364       -1.86249721959407
H            5.47804972369667       -1.73951926650476       -2.15329633883945
H            3.24918317959017       -1.02717452812367       -1.42152849866203
H            2.46102665842317        2.67577637454455       -0.07069357499081
H            1.23858695212236        4.79856739242475       -0.07365190159765
H           -1.23583412695673        4.79955701586996        0.05804315141933
H           -2.45957479607544        2.67746612423186        0.06225928408003
H           -2.82993669039107        1.44256988706489       -2.04069687465492
H           -5.26735191899839        1.47000768497053       -2.33577407624262
H           -7.51373344223474        0.78264377585982       -1.58216792232219

 projected vibrational frequencies (cm⁻¹)
eigval :       -0.00    -0.00    -0.00     0.00     0.00     0.00
eigval :       12.85    24.85    37.02    42.14    49.81    54.25
eigval :       79.28   115.37   140.00   142.21   145.31   167.63
eigval :      170.65   184.16   188.27   199.90   233.79   287.61
eigval :      300.56   340.21   341.74   345.25   359.45   373.82
eigval :      390.41   394.26   404.47   418.33   426.00   449.89
eigval :      451.20   470.28   476.17   495.34   495.69   496.57
eigval :      526.25   556.01   562.04   564.73   577.75   588.07
eigval :      592.59   608.07   627.52   640.92   651.66   672.98
eigval :      692.14   715.48   721.30   722.09   747.93   755.53
eigval :      755.58   761.81   783.55   795.66   806.34   824.11
eigval :      831.97   837.58   845.73   851.25   870.96   873.04
eigval :      878.44   884.50   886.63   889.08   889.38   895.39
eigval :      902.13   905.33   907.30   913.73   913.99   926.24
eigval :      926.27   931.47   932.09   945.84   984.19  1001.71
eigval :     1079.31  1079.51  1101.32  1104.75  1113.94  1119.79
eigval :     1142.16  1143.68  1171.44  1173.13  1176.27  1176.83
eigval :     1178.96  1179.15  1181.39  1183.28  1218.26  1218.66
eigval :     1229.05  1229.15  1234.89  1252.02  1260.02  1260.34
eigval :     1261.37  1286.34  1296.48  1318.74  1328.90  1333.44
eigval :     1362.44  1365.85  1373.03  1373.81  1377.87  1393.67
eigval :     1394.53  1408.46  1424.67  1425.28  1427.14  1443.85
eigval :     1445.87  1476.15  1486.39  1494.01  1494.24  1518.07
eigval :     1531.18  1545.12  1545.69  1559.49  1585.13  1586.82
eigval :     1604.20  1604.22  3065.43  3065.51  3067.51  3067.86
eigval :     3069.58  3069.62  3071.92  3071.94  3076.94  3077.10
eigval :     3079.51  3079.53  3081.85  3082.18  3085.44  3085.55
eigval :     3089.30  3089.98  3094.69  3095.17  3097.87  3098.50

   temp. (K)  partition function   enthalpy   heat capacity  entropy
                                   cal/mol     cal/K/mol   cal/K/mol   J/K/mol
 298.15  VIB  0.121E+11            14429.554     97.468     86.631
         ROT  0.137E+08              888.752      2.981     35.632
         INT  0.166E+18            15318.306    100.449    122.263
         TR   0.864E+28             1481.254      4.968     44.050
         TOT                       16799.5601   105.4174   166.3128   695.8528

       T/K    H(0)-H(T)+PV         H(T)/Eh          T*S/Eh         G(T)/Eh
   ------------------------------------------------------------------------
    298.15    0.267718E-01    0.458762E+00    0.790206E-01    0.379742E+00
   ------------------------------------------------------------------------

         :::::::::::::::::::::::::::::::::::::::::::::::::::::
         ::                  THERMODYNAMIC                  ::
         :::::::::::::::::::::::::::::::::::::::::::::::::::::
         :: total free energy         -83.584570960910 Eh   ::
         ::.................................................::
         :: total energy              -83.964312604876 Eh   ::
         :: zero point energy           0.431990420738 Eh   ::
         :: G(RRHO) w/o ZPVE           -0.052248776772 Eh   ::
         :: G(RRHO) contrib.            0.379741643966 Eh   ::
         :::::::::::::::::::::::::::::::::::::::::::::::::::::

           -------------------------------------------------
          | TOTAL ENERGY              -83.964312604876 Eh   |
          | TOTAL ENTHALPY            -83.505550381080 Eh   |
          | TOTAL FREE ENERGY         -83.584570960910 Eh   |
          | GRADIENT NORM               0.000068668316 Eh/α |
           -------------------------------------------------

 * finished run on 2025/09/09 at 22:14:13.980
