   * xtb version 6.7.1 (edcfbbe) compiled by 'albert@albert-system' on 2024-07-22

   ID    Z sym.   atoms
    1    6 C      1-34
    2    1 H      35-56

          program call               : xtb data2507/gas/ADN/ADN_gas_T1_crest.xyz --gfn 2 --spinpol --tblite --uhf 2 --ohess vtight --parallel 40 --molden --ceasefiles --namespace data2507/gas/ADN/ADN_gas_T1_finalOpt
 * total energy  :   -83.9642152 Eh     change        0.1076633E-07 Eh
 * total energy  :   -83.9642587 Eh     change       -0.4347950E-04 Eh
 * total energy  :   -83.9642716 Eh     change       -0.1294542E-04 Eh
 * total energy  :   -83.9642758 Eh     change       -0.4212317E-05 Eh
 * total energy  :   -83.9642799 Eh     change       -0.4016178E-05 Eh
 * total energy  :   -83.9642836 Eh     change       -0.3770221E-05 Eh
 * total energy  :   -83.9642884 Eh     change       -0.4743811E-05 Eh
 * total energy  :   -83.9642945 Eh     change       -0.6119167E-05 Eh
 * total energy  :   -83.9643003 Eh     change       -0.5837405E-05 Eh
 * total energy  :   -83.9643036 Eh     change       -0.3244273E-05 Eh
 * total energy  :   -83.9643058 Eh     change       -0.8005460E-06 Eh
 * total energy  :   -83.9643066 Eh     change       -0.8084728E-06 Eh
 * total energy  :   -83.9643078 Eh     change       -0.1181432E-05 Eh
 * total energy  :   -83.9643094 Eh     change       -0.1626004E-05 Eh
 * total energy  :   -83.9643111 Eh     change       -0.1686259E-05 Eh
 * total energy  :   -83.9643122 Eh     change       -0.1098299E-05 Eh
 * total energy  :   -83.9643126 Eh     change       -0.4236223E-06 Eh
 * total energy  :   -83.9643128 Eh     change       -0.1584532E-06 Eh
 * total energy  :   -83.9643129 Eh     change       -0.8443854E-07 Eh
   *** GEOMETRY OPTIMIZATION CONVERGED AFTER 20 ITERATIONS ***

 final structure:
================
56
 xtb: 6.7.1 (edcfbbe)
C           -7.86440000021351       -0.44512097205078        0.12706426767224
C           -7.28720683622581       -1.15930449183516        1.18808294373973
C           -5.93020795184808       -1.18052724849587        1.35024838735972
C           -5.08642530008777       -0.48582652625481        0.45644311701475
C           -3.68736949702319       -0.49323041218596        0.59559369944459
C           -2.87031407655896        0.19821421913276       -0.27703212204190
C           -1.41847144734162        0.18947626364895       -0.13037219878358
C           -0.70823958487547       -1.05253048674130       -0.09727638501303
C           -1.35913668558029       -2.27623168155950       -0.26797286034727
C           -0.67674295861635       -3.48610167273438       -0.15590912708897
C            0.66966356967262       -3.48831284317617        0.13350291591996
C            1.35461456693904       -2.28052138472555        0.25227648010710
C            0.70631450718228       -1.05451460332530        0.08841310893255
C            1.41903824360119        0.18586736003726        0.12875836933383
C            2.87075416830423        0.19109368517266        0.27652543534147
C            3.47091450142068        0.90941048695313        1.34056881528238
C            4.82297208484329        0.91717684560725        1.50903521824199
C            5.67319032438542        0.22563384260566        0.61710696606428
C            7.07340871676409        0.22286890735024        0.75892235775840
C            7.86419803840401       -0.45819714853395       -0.12652826602353
C            7.28676161039275       -1.16629569824978       -1.19148823997975
C            5.92986096083725       -1.18460390525335       -1.35488395313623
C            5.08640024282647       -0.49295365021901       -0.45840538418550
C            3.68744847957926       -0.49733477691244       -0.59884189559940
C            0.71365813341188        1.42696574215186        0.03573794378429
C            1.38473396482665        2.65066437976628       -0.01882232726954
C            0.69189444415414        3.85996910352906       -0.02084509156081
C           -0.68401942100391        3.86117387838020        0.04035499694298
C           -1.37927744234388        2.65329822461162        0.03110966470961
C           -0.71063166479809        1.42859726919148       -0.03046064907015
C           -3.47016740318685        0.92294809983162       -1.33685989077266
C           -4.82236828682900        0.93370054240704       -1.50414210647983
C           -5.67294750490249        0.23901058279659       -0.61500756135433
C           -7.07329219905097        0.23906497138711       -0.75568796238891
H           -8.93867069017481       -0.43976866622834        0.01387726141293
H           -7.92650530597532       -1.69262844326211        1.87663867959440
H           -5.48074756400202       -1.73054296487974        2.16500547744078
H           -3.25045237368464       -1.02768576994517        1.42786575961022
H           -2.41359987492161       -2.28973198819477       -0.49754436645495
H           -1.21364404543794       -4.41400752931728       -0.28524955108820
H            1.20459303437645       -4.41805195010201        0.25775124522049
H            2.40902413628177       -2.29754832711258        0.48185180465415
H            2.82931910559478        1.42444259907954        2.04117921468360
H            5.26673943077696        1.45241605959078        2.33690728660790
H            7.51360042468026        0.77040236007814        1.58052866343677
H            8.93838761770165       -0.45496795182721       -0.01249433868786
H            7.92579485429231       -1.69732369670530       -1.88205688934726
H            5.48024658797285       -1.73000867102489       -2.17264738125098
H            3.25043110945276       -1.02675833158268       -1.43427375494472
H            2.46298431526619        2.66485165413645       -0.06386069836422
H            1.24199817956670        4.78852686422066       -0.05498224432988
H           -1.23224573661449        4.79062015337340        0.08007356817321
H           -2.45750363513524        2.66934718569626        0.07609638682275
H           -2.82833978112187        1.44057349792775       -2.03534474632469
H           -5.26597912997477        1.47384091913262       -2.32890863563182
H           -7.51331924827984        0.79120498524173       -1.57429764158636

 projected vibrational frequencies (cm⁻¹)
eigval :       -0.00    -0.00    -0.00    -0.00    -0.00     0.00
eigval :       12.84    24.66    37.00    41.99    49.76    54.05
eigval :       79.23   115.25   139.94   142.06   145.22   167.56
eigval :      170.51   184.02   187.88   200.01   233.56   287.58
eigval :      300.51   340.14   341.82   345.09   359.36   373.65
eigval :      390.40   394.25   404.34   418.14   426.05   449.82
eigval :      451.12   470.28   476.11   495.28   495.64   496.59
eigval :      526.26   555.99   561.99   564.74   577.73   588.01
eigval :      592.47   608.06   627.49   640.90   651.67   672.93
eigval :      692.15   715.48   721.31   722.11   747.93   755.47
eigval :      755.50   761.81   783.38   795.71   806.32   824.12
eigval :      831.97   837.50   845.69   851.07   870.90   872.96
eigval :      878.41   884.53   886.64   889.06   889.21   895.36
eigval :      901.95   905.42   907.34   913.65   913.92   926.16
eigval :      926.19   931.26   931.83   945.89   984.21  1001.67
eigval :     1079.54  1079.66  1101.20  1104.85  1113.86  1119.71
eigval :     1142.13  1143.68  1171.42  1173.01  1176.13  1176.76
eigval :     1178.92  1179.06  1181.21  1183.14  1218.11  1218.24
eigval :     1229.05  1229.07  1234.93  1252.09  1259.87  1260.29
eigval :     1261.26  1286.45  1296.48  1318.72  1328.73  1333.27
eigval :     1362.59  1365.90  1373.09  1373.90  1377.75  1393.60
eigval :     1394.57  1408.34  1424.61  1425.26  1427.17  1444.02
eigval :     1445.93  1476.23  1486.27  1493.99  1494.22  1517.99
eigval :     1531.10  1545.20  1545.80  1559.52  1585.23  1586.91
eigval :     1604.24  1604.28  3065.34  3065.60  3067.40  3067.58
eigval :     3069.48  3069.66  3071.78  3071.91  3076.92  3077.08
eigval :     3079.45  3079.51  3081.73  3081.75  3085.30  3085.50
eigval :     3089.30  3089.72  3094.63  3095.13  3097.83  3098.56

   temp. (K)  partition function   enthalpy   heat capacity  entropy
                                   cal/mol     cal/K/mol   cal/K/mol   J/K/mol
 298.15  VIB  0.124E+11            14432.848     97.466     86.659
         ROT  0.137E+08              888.752      2.981     35.632
         INT  0.170E+18            15321.601    100.447    122.291
         TR   0.864E+28             1481.254      4.968     44.050
         TOT                       16802.8547   105.4148   166.3406   695.9691

       T/K    H(0)-H(T)+PV         H(T)/Eh          T*S/Eh         G(T)/Eh
   ------------------------------------------------------------------------
    298.15    0.267771E-01    0.458749E+00    0.790338E-01    0.379715E+00
   ------------------------------------------------------------------------

         :::::::::::::::::::::::::::::::::::::::::::::::::::::
         ::                  THERMODYNAMIC                  ::
         :::::::::::::::::::::::::::::::::::::::::::::::::::::
         :: total free energy         -83.584597596556 Eh   ::
         ::.................................................::
         :: total energy              -83.964312865856 Eh   ::
         :: zero point energy           0.431972004799 Eh   ::
         :: G(RRHO) w/o ZPVE           -0.052256735499 Eh   ::
         :: G(RRHO) contrib.            0.379715269300 Eh   ::
         :::::::::::::::::::::::::::::::::::::::::::::::::::::

           -------------------------------------------------
          | TOTAL ENERGY              -83.964312865856 Eh   |
          | TOTAL ENTHALPY            -83.505563807701 Eh   |
          | TOTAL FREE ENERGY         -83.584597596556 Eh   |
          | GRADIENT NORM               0.000026466705 Eh/α |
           -------------------------------------------------

 * finished run on 2025/09/09 at 22:16:19.294
