   * xtb version 6.7.1 (edcfbbe) compiled by 'albert@albert-system' on 2024-07-22

   ID    Z sym.   atoms
    1    6 C      1-34
    2    1 H      35-56

          program call               : xtb data2507/gas/ADN/ADN.xyz --gfn 2 --ohess vtight --parallel 40 --molden --ceasefiles --namespace data2507/gas/ADN/ADN_gas_S0_preOpt
          :  Hamiltonian                  GFN2-xTB          :
 * total energy  :   -84.0097360 Eh     change       -0.1290474E-08 Eh
 * total energy  :   -84.0230534 Eh     change       -0.1331746E-01 Eh
 * total energy  :   -84.0262113 Eh     change       -0.3157812E-02 Eh
 * total energy  :   -84.0264542 Eh     change       -0.2428981E-03 Eh
 * total energy  :   -84.0265411 Eh     change       -0.8691267E-04 Eh
 * total energy  :   -84.0265480 Eh     change       -0.6924065E-05 Eh
 * total energy  :   -84.0265502 Eh     change       -0.2234614E-05 Eh
 * total energy  :   -84.0265514 Eh     change       -0.1156801E-05 Eh
 * total energy  :   -84.0265522 Eh     change       -0.8204710E-06 Eh
 * total energy  :   -84.0265529 Eh     change       -0.6761171E-06 Eh
 * total energy  :   -84.0265534 Eh     change       -0.5452492E-06 Eh
 * total energy  :   -84.0265538 Eh     change       -0.4152676E-06 Eh
 * total energy  :   -84.0265542 Eh     change       -0.3129455E-06 Eh
 * total energy  :   -84.0265544 Eh     change       -0.2509971E-06 Eh
 * total energy  :   -84.0265546 Eh     change       -0.1986402E-06 Eh
 * total energy  :   -84.0265548 Eh     change       -0.1600410E-06 Eh
 * total energy  :   -84.0265549 Eh     change       -0.1276794E-06 Eh
 * total energy  :   -84.0265550 Eh     change       -0.1043457E-06 Eh
 * total energy  :   -84.0265551 Eh     change       -0.8618638E-07 Eh
   *** GEOMETRY OPTIMIZATION CONVERGED AFTER 19 ITERATIONS ***

 final structure:
================
56
 xtb: 6.7.1 (edcfbbe)
C           -7.88178628413182       -0.00093934684599        0.13795323572504
C           -7.35708893104583       -0.00317522793998        1.44017552650868
C           -6.00539578444037       -0.00338338254754        1.64029166130266
C           -5.11509844145454       -0.00134206107423        0.54603993218683
C           -3.71654032372929       -0.00150166709233        0.71984054562702
C           -2.86865071405753        0.00059639010533       -0.35800986353486
C           -1.39907258916116        0.00047719205233       -0.17162394569015
C           -0.70932795202003       -1.21494012221513       -0.08754774725237
C           -1.38231209173909       -2.46207770786933       -0.17207826218911
C           -0.69971245553058       -3.63604721018503       -0.08765324013104
C            0.69944528490689       -3.63612807802888        0.08707274790932
C            1.38213396513277       -2.46223716405966        0.17186701064655
C            0.70923964581730       -1.21502231645139        0.08774446116189
C            1.39909070350254        0.00031457316634        0.17212482308185
C            2.86870394529191        0.00025273681898        0.35826045805102
C            3.40256779034366        0.00130384791634        1.66376873804324
C            4.75312372458334        0.00126604779266        1.86273726315001
C            5.64593699301356        0.00022668050196        0.77022207804053
C            7.04553960663671        0.00019508626653        0.94210741950502
C            7.88172376852447       -0.00079065964612       -0.13885712995421
C            7.35672784119404       -0.00179427620708       -1.44096075586003
C            6.00498940698275       -0.00180964259320       -1.64076520868150
C            5.11494699503509       -0.00080704358337       -0.54630519721086
C            3.71635147459325       -0.00079191543988       -0.71978417242365
C            0.70933560041185        1.21573209863755        0.08811160018353
C            1.38233717756356        2.46286808661427        0.17253431571344
C            0.69972966283762        3.63683755446140        0.08816698818425
C           -0.69944963562893        3.63691818229782       -0.08638552359301
C           -1.38213935642253        2.46302644781925       -0.17116943065745
C           -0.70922589812792        1.21581322226983       -0.08720026371777
C           -3.40221974170626        0.00291697692305       -1.66363838870622
C           -4.75272839238562        0.00304732566483       -1.86291804214157
C           -5.64578912780418        0.00094976051317       -0.77060693123514
C           -7.04535172767785        0.00107412307195       -0.94281624503425
H           -8.95311122835854       -0.00082183450238       -0.00107945980387
H           -8.03312756071807       -0.00472955729915        2.28288673385542
H           -5.59619986873852       -0.00510394962119        2.64074972402064
H           -3.31285533418697       -0.00327488579018        1.72297692692318
H           -2.45446220828975       -2.45908869169298       -0.30543776155499
H           -1.22374518583401       -4.57837861028542       -0.15356815603519
H            1.22340942895754       -4.57851962670088        0.15267193125870
H            2.45428736656584       -2.45937046290243        0.30520458789153
H            2.72072052939788        0.00211838408966        2.50216465176288
H            5.15886924346162        0.00204578266472        2.86470662914572
H            7.44451623148494        0.00097299198666        1.94679380639819
H            8.95308076345430       -0.00080183283000       -0.00007237198667
H            8.03257175283357       -0.00255436862102       -2.28382927019235
H            5.59555966570261       -0.00258243538440       -2.64112873408493
H            3.31243469491771       -0.00159448510170       -1.72282824434181
H            2.45450419212149        2.45987976028203        0.30576321873345
H            1.22377168905225        4.57916881511602        0.15400985876378
H           -1.22342661211502        4.57931030047992       -0.15187397721906
H           -2.45431117879561        2.46016098382214       -0.30436150832404
H           -2.72017906430888        0.00455115725467       -2.50187575518510
H           -5.15824511196100        0.00478181749934       -2.86497902293572
H           -7.44409434395117        0.00280323642214       -1.94759426409746

          :  Hamiltonian                  GFN2-xTB          :
         :: gradient norm              0.000024005490 Eh/a0 ::
         :: HOMO-LUMO gap              2.191660853666 eV    ::
         :: SCC energy               -85.693403697743 Eh    ::
         :: -> dispersion             -0.076783950175 Eh    ::
         :: repulsion energy           1.666848610115 Eh    ::

    * Orbital Energies and Occupations

         #    Occupation            Energy/Eh            Energy/eV
      -------------------------------------------------------------
         1        2.0000           -0.6530157             -17.7695
       ...           ...                  ...                  ...
        67        2.0000           -0.4232690             -11.5177
        68        2.0000           -0.4175912             -11.3632
        69        2.0000           -0.4141419             -11.2694
        70        2.0000           -0.4138757             -11.2621
        71        2.0000           -0.4135291             -11.2527
        72        2.0000           -0.4040386             -10.9945
        73        2.0000           -0.3992777             -10.8649
        74        2.0000           -0.3970679             -10.8048
        75        2.0000           -0.3970585             -10.8045
        76        2.0000           -0.3946796             -10.7398
        77        2.0000           -0.3773968             -10.2695
        78        2.0000           -0.3766383             -10.2488
        79        2.0000           -0.3571371              -9.7182 (HOMO)
        80                         -0.2765951              -7.5265 (LUMO)
        81                         -0.2586117              -7.0372
        82                         -0.2585678              -7.0360
        83                         -0.2289851              -6.2310
        84                         -0.2274208              -6.1884
        85                         -0.2271994              -6.1824
        86                         -0.2182281              -5.9383
        87                         -0.1879751              -5.1151
        88                         -0.1879576              -5.1146
        89                         -0.1747972              -4.7565
        90                         -0.1705998              -4.6423
       ...                                ...                  ...
       158                          0.7176549              19.5284
      -------------------------------------------------------------
                  HL-Gap            0.0805421 Eh            2.1917 eV

     #   Z          covCN         q      C6AA      α(0)
     1   6 C        2.916    -0.031    28.764     8.795
     2   6 C        2.916    -0.030    28.747     8.792
     3   6 C        2.918    -0.035    28.878     8.812
     4   6 C        2.986     0.012    27.735     8.639
     5   6 C        2.923    -0.040    28.997     8.831
     6   6 C        2.974     0.015    27.669     8.628
     7   6 C        2.979    -0.006    28.175     8.707
     8   6 C        2.985     0.006    27.879     8.661
     9   6 C        2.917    -0.034    28.837     8.806
    10   6 C        2.914    -0.030    28.748     8.792
    11   6 C        2.914    -0.030    28.748     8.792
    12   6 C        2.917    -0.034    28.837     8.806
    13   6 C        2.985     0.006    27.879     8.661
    14   6 C        2.979    -0.006    28.175     8.707
    15   6 C        2.974     0.015    27.669     8.628
    16   6 C        2.920    -0.033    28.813     8.802
    17   6 C        2.917    -0.036    28.897     8.815
    18   6 C        2.987     0.011    27.773     8.645
    19   6 C        2.918    -0.035    28.871     8.811
    20   6 C        2.916    -0.031    28.764     8.795
    21   6 C        2.916    -0.030    28.747     8.792
    22   6 C        2.918    -0.035    28.878     8.812
    23   6 C        2.986     0.012    27.735     8.639
    24   6 C        2.923    -0.040    28.997     8.831
    25   6 C        2.985     0.006    27.879     8.661
    26   6 C        2.917    -0.034    28.837     8.806
    27   6 C        2.914    -0.030    28.748     8.792
    28   6 C        2.914    -0.030    28.748     8.792
    29   6 C        2.917    -0.034    28.837     8.806
    30   6 C        2.985     0.006    27.879     8.661
    31   6 C        2.920    -0.033    28.813     8.802
    32   6 C        2.917    -0.036    28.897     8.815
    33   6 C        2.987     0.011    27.773     8.645
    34   6 C        2.918    -0.035    28.871     8.811
    35   1 H        0.926     0.029     2.604     2.523
    36   1 H        0.926     0.029     2.602     2.522
    37   1 H        0.926     0.030     2.584     2.514
    38   1 H        0.925     0.029     2.597     2.520
    39   1 H        0.926     0.030     2.588     2.516
    40   1 H        0.926     0.028     2.611     2.527
    41   1 H        0.926     0.028     2.611     2.527
    42   1 H        0.926     0.030     2.588     2.516
    43   1 H        0.926     0.029     2.600     2.522
    44   1 H        0.926     0.031     2.574     2.509
    45   1 H        0.926     0.030     2.590     2.517
    46   1 H        0.926     0.029     2.604     2.523
    47   1 H        0.926     0.029     2.602     2.522
    48   1 H        0.926     0.030     2.584     2.514
    49   1 H        0.925     0.029     2.597     2.520
    50   1 H        0.926     0.030     2.588     2.516
    51   1 H        0.926     0.028     2.611     2.527
    52   1 H        0.926     0.028     2.611     2.527
    53   1 H        0.926     0.030     2.588     2.516
    54   1 H        0.926     0.029     2.600     2.522
    55   1 H        0.926     0.031     2.574     2.509
    56   1 H        0.926     0.030     2.590     2.517

molecular dipole:
                 x           y           z       tot (Debye)
 q only:        0.000       0.000      -0.000
   full:        0.000       0.000      -0.000       0.000

 projected vibrational frequencies (cm⁻¹)
eigval :       -0.00    -0.00    -0.00    -0.00     0.00     0.00
eigval :      -20.49   -16.50    15.63    26.71    43.00    60.10
eigval :       70.78   103.97   127.53   129.74   146.58   159.94
eigval :      160.31   167.89   180.06   201.05   209.95   284.98
eigval :      299.14   342.36   343.27   358.05   359.65   364.99
eigval :      397.26   400.91   406.18   443.07   447.62   448.35
eigval :      452.99   458.11   475.67   495.87   497.06   500.67
eigval :      530.18   556.47   561.53   580.65   581.71   592.88
eigval :      602.59   624.10   629.89   649.53   656.95   689.53
eigval :      691.92   723.83   725.27   738.41   754.61   758.34
eigval :      772.56   775.31   787.34   797.58   809.77   829.68
eigval :      831.01   833.43   873.58   873.59   873.60   875.39
eigval :      881.82   881.83   886.15   889.68   898.72   914.12
eigval :      914.32   917.32   917.65   921.77   921.83   927.57
eigval :      927.85   928.91   928.98   933.09   984.22  1004.07
eigval :     1077.79  1078.59  1079.20  1079.59  1131.77  1135.32
eigval :     1142.55  1146.42  1171.40  1173.04  1178.01  1179.24
eigval :     1179.86  1180.18  1186.64  1192.68  1226.38  1227.49
eigval :     1227.52  1227.99  1236.12  1256.98  1259.09  1259.10
eigval :     1266.08  1318.71  1329.81  1330.53  1346.54  1350.56
eigval :     1369.18  1383.52  1386.12  1397.90  1398.17  1419.54
eigval :     1426.73  1427.23  1430.54  1442.08  1453.34  1472.43
eigval :     1490.42  1502.06  1502.62  1527.10  1535.27  1544.88
eigval :     1561.70  1561.98  1608.61  1608.69  1608.86  1612.13
eigval :     1612.19  1623.41  3066.45  3066.45  3067.91  3067.92
eigval :     3069.83  3069.96  3072.19  3072.22  3072.42  3072.65
eigval :     3076.87  3077.04  3079.51  3079.51  3082.76  3082.86
eigval :     3085.43  3085.90  3089.40  3089.49  3091.26  3092.26

   temp. (K)  partition function   enthalpy   heat capacity  entropy
                                   cal/mol     cal/K/mol   cal/K/mol   J/K/mol
 298.15  VIB  0.588E+10            13926.005     95.066     83.408
         ROT  0.135E+08              888.752      2.981     35.605
         INT  0.793E+17            14814.757     98.047    119.013
         TR   0.864E+28             1481.254      4.968     44.050
         TOT                       16296.0113   103.0147   163.0630   682.2558

       T/K    H(0)-H(T)+PV         H(T)/Eh          T*S/Eh         G(T)/Eh
   ------------------------------------------------------------------------
    298.15    0.259693E-01    0.460072E+00    0.774765E-01    0.382596E+00
   ------------------------------------------------------------------------

         :::::::::::::::::::::::::::::::::::::::::::::::::::::
         ::                  THERMODYNAMIC                  ::
         :::::::::::::::::::::::::::::::::::::::::::::::::::::
         :: total free energy         -83.643959105916 Eh   ::
         ::.................................................::
         :: total energy              -84.026555087674 Eh   ::
         :: zero point energy           0.434103145859 Eh   ::
         :: G(RRHO) w/o ZPVE           -0.051507164102 Eh   ::
         :: G(RRHO) contrib.            0.382595981757 Eh   ::
         :::::::::::::::::::::::::::::::::::::::::::::::::::::

           -------------------------------------------------
          | TOTAL ENERGY              -84.026555087674 Eh   |
          | TOTAL ENTHALPY            -83.566482594766 Eh   |
          | TOTAL FREE ENERGY         -83.643959105916 Eh   |
          | GRADIENT NORM               0.000024289327 Eh/α |
          | HOMO-LUMO GAP               2.191660844491 eV   |
           -------------------------------------------------

 * finished run on 2025/09/09 at 22:11:45.427
