   * xtb version 6.7.1 (edcfbbe) compiled by 'albert@albert-system' on 2024-07-22

   ID    Z sym.   atoms
    1    6 C      1-34
    2    1 H      35-56

          program call               : xtb data2507/gas/ADN/ADN_gas_S0_crest.xyz --gfn 2 --ohess vtight --parallel 40 --molden --ceasefiles --namespace data2507/gas/ADN/ADN_gas_S0_finalOpt
          :  Hamiltonian                  GFN2-xTB          :
 * total energy  :   -84.0271016 Eh     change       -0.1986677E-08 Eh
 * total energy  :   -84.0271023 Eh     change       -0.6980864E-06 Eh
 * total energy  :   -84.0271026 Eh     change       -0.2681867E-06 Eh
 * total energy  :   -84.0271029 Eh     change       -0.3260971E-06 Eh
 * total energy  :   -84.0271033 Eh     change       -0.4221047E-06 Eh
 * total energy  :   -84.0271038 Eh     change       -0.4374775E-06 Eh
 * total energy  :   -84.0271040 Eh     change       -0.2848374E-06 Eh
 * total energy  :   -84.0271042 Eh     change       -0.1668996E-06 Eh
 * total energy  :   -84.0271044 Eh     change       -0.1530951E-06 Eh
 * total energy  :   -84.0271045 Eh     change       -0.1442715E-06 Eh
 * total energy  :   -84.0271046 Eh     change       -0.1292261E-06 Eh
 * total energy  :   -84.0271048 Eh     change       -0.1168057E-06 Eh
 * total energy  :   -84.0271049 Eh     change       -0.1010951E-06 Eh
 * total energy  :   -84.0271049 Eh     change       -0.8940472E-07 Eh
   *** GEOMETRY OPTIMIZATION CONVERGED AFTER 14 ITERATIONS ***

 final structure:
================
56
 xtb: 6.7.1 (edcfbbe)
C           -7.87237331597342       -0.28761958533191        0.15117689393641
C           -7.32181226352359       -0.73972442866793        1.36093954048248
C           -5.96748212532487       -0.75080385399970        1.54212188941904
C           -5.10035259971638       -0.30973206593368        0.52040618541817
C           -3.70011156812855       -0.31141793411700        0.67633697894854
C           -2.87182484653606        0.12256605921162       -0.32860619875552
C           -1.40359471584456        0.11909981106172       -0.16029934934066
C           -0.70941942617019       -1.09713341806765       -0.09022258523521
C           -1.37538034709793       -2.34592999993231       -0.20540772531729
C           -0.69509238501702       -3.52042365715381       -0.11060489831898
C            0.69645768742733       -3.51985335294145        0.11139252733009
C            1.37629768536168       -2.34486016315594        0.20317528561990
C            0.70987385713557       -1.09660971215670        0.08476234851200
C            1.40339408550831        0.12015174949486        0.15233225795920
C            2.87116344094011        0.12464218782890        0.32459739161670
C            3.42876071925301        0.58215671154848        1.53802340320692
C            4.78073047438426        0.59089472240374        1.72465835411595
C            5.65527477410261        0.14815106757587        0.70968045203819
C            7.05590218863859        0.14539019037756        0.87068164715390
C            7.87320754648565       -0.29177969435274       -0.13378286241293
C            7.32713401654962       -0.74598333422756       -1.34478803889888
C            5.97356504494237       -0.75556837683536       -1.53171064893145
C            5.10270302614055       -0.31103214923461       -0.51468020406929
C            3.70306429864361       -0.31211140169083       -0.67613808829353
C            0.71079009917629        1.33610087657394        0.06490991656362
C            1.38661089808766        2.58439303355360        0.09652108723954
C            0.70228568724172        3.75898032561219        0.03638037048606
C           -0.70391219468119        3.75857626904558       -0.05470339732142
C           -1.38778421933905        2.58357095533919       -0.11172947694168
C           -0.71149298719979        1.33561909123745       -0.07681301455681
C           -3.43381522597132        0.57704805781507       -1.54112426981479
C           -4.78652259583292        0.58626967763546       -1.72244407831982
C           -5.65742181330073        0.14707634218070       -0.70279535131245
C           -7.05873035977031        0.14581867792705       -0.85787059026804
H           -8.94538668601946       -0.28581728913105        0.02586987421008
H           -7.98004389617063       -1.07889824071375        2.14763026280540
H           -5.53835049432615       -1.09833842057673        2.47135445095772
H           -3.27819766847899       -0.65632637103889        1.61043938042601
H           -2.44210034653469       -2.34765145247800       -0.37379373194792
H           -1.21660112370578       -4.46212968644273       -0.20077160729149
H            1.21834981912761       -4.46111249406883        0.20398798708379
H            2.44302311305038       -2.34579193818975        0.37149977358196
H            2.76233317680126        0.91828010379039        2.31964118752505
H            5.20201945113527        0.93842324057969        2.65758310132440
H            7.47119700715750        0.49581524581926        1.80518789501247
H            8.94566229274329       -0.29144620379227       -0.00379744868808
H            7.98822013740825       -1.08800343249507       -2.12784299544124
H            5.54791954171859       -1.10469572763818       -2.46195155966759
H            3.28458324083831       -0.65906967538201       -1.61102343426044
H            2.46437487893372        2.58591136916199        0.16670869496330
H            1.23087687332531        4.70071839436534        0.06153589604876
H           -1.23289391930487        4.70002699787227       -0.08233137157403
H           -2.46553767310506        2.58453529179868       -0.18199663227343
H           -2.77024891829259        0.91060533619490       -2.32626983253478
H           -5.21122711874277        0.93163974483368       -2.65462105699355
H           -7.47750310334975        0.49468589350775       -1.79140925120405

          :  Hamiltonian                  GFN2-xTB          :
         :: gradient norm              0.000027115313 Eh/a0 ::
         :: HOMO-LUMO gap              2.101389583775 eV    ::
         :: SCC energy               -85.692465990944 Eh    ::
         :: -> dispersion             -0.077072765590 Eh    ::
         :: repulsion energy           1.665361042674 Eh    ::

    * Orbital Energies and Occupations

         #    Occupation            Energy/Eh            Energy/eV
      -------------------------------------------------------------
         1        2.0000           -0.6526643             -17.7599
       ...           ...                  ...                  ...
        67        2.0000           -0.4223797             -11.4935
        68        2.0000           -0.4178131             -11.3693
        69        2.0000           -0.4147715             -11.2865
        70        2.0000           -0.4138873             -11.2624
        71        2.0000           -0.4129034             -11.2357
        72        2.0000           -0.4041564             -10.9977
        73        2.0000           -0.3993668             -10.8673
        74        2.0000           -0.3968580             -10.7991
        75        2.0000           -0.3966125             -10.7924
        76        2.0000           -0.3948377             -10.7441
        77        2.0000           -0.3779213             -10.2838
        78        2.0000           -0.3768388             -10.2543
        79        2.0000           -0.3555693              -9.6755 (HOMO)
        80                         -0.2783446              -7.5741 (LUMO)
        81                         -0.2584772              -7.0335
        82                         -0.2576381              -7.0107
        83                         -0.2288657              -6.2278
        84                         -0.2276798              -6.1955
        85                         -0.2273206              -6.1857
        86                         -0.2179729              -5.9313
        87                         -0.1888440              -5.1387
        88                         -0.1881650              -5.1202
        89                         -0.1746062              -4.7513
        90                         -0.1703266              -4.6348
       ...                                ...                  ...
       158                          0.7191331              19.5686
      -------------------------------------------------------------
                  HL-Gap            0.0772246 Eh            2.1014 eV

     #   Z          covCN         q      C6AA      α(0)
     1   6 C        2.916    -0.031    28.762     8.794
     2   6 C        2.916    -0.030    28.748     8.792
     3   6 C        2.918    -0.035    28.879     8.812
     4   6 C        2.986     0.012    27.741     8.640
     5   6 C        2.923    -0.040    28.991     8.830
     6   6 C        2.973     0.015    27.684     8.631
     7   6 C        2.978    -0.007    28.181     8.708
     8   6 C        2.984     0.006    27.877     8.661
     9   6 C        2.917    -0.035    28.865     8.810
    10   6 C        2.914    -0.030    28.756     8.793
    11   6 C        2.914    -0.030    28.756     8.793
    12   6 C        2.917    -0.035    28.865     8.810
    13   6 C        2.984     0.006    27.877     8.661
    14   6 C        2.978    -0.007    28.181     8.708
    15   6 C        2.973     0.015    27.684     8.631
    16   6 C        2.920    -0.033    28.812     8.802
    17   6 C        2.916    -0.036    28.907     8.817
    18   6 C        2.987     0.011    27.768     8.644
    19   6 C        2.918    -0.035    28.871     8.811
    20   6 C        2.916    -0.031    28.763     8.794
    21   6 C        2.916    -0.030    28.748     8.792
    22   6 C        2.918    -0.035    28.879     8.812
    23   6 C        2.986     0.012    27.741     8.640
    24   6 C        2.923    -0.040    28.991     8.830
    25   6 C        2.984     0.006    27.878     8.661
    26   6 C        2.917    -0.034    28.854     8.809
    27   6 C        2.914    -0.030    28.757     8.794
    28   6 C        2.914    -0.030    28.757     8.794
    29   6 C        2.917    -0.034    28.854     8.809
    30   6 C        2.984     0.006    27.878     8.661
    31   6 C        2.920    -0.033    28.812     8.802
    32   6 C        2.916    -0.036    28.907     8.817
    33   6 C        2.987     0.011    27.769     8.644
    34   6 C        2.918    -0.035    28.871     8.811
    35   1 H        0.926     0.029     2.604     2.523
    36   1 H        0.926     0.029     2.602     2.522
    37   1 H        0.926     0.030     2.585     2.514
    38   1 H        0.925     0.030     2.582     2.513
    39   1 H        0.926     0.031     2.570     2.507
    40   1 H        0.926     0.028     2.616     2.529
    41   1 H        0.926     0.028     2.616     2.529
    42   1 H        0.926     0.031     2.570     2.507
    43   1 H        0.926     0.030     2.585     2.514
    44   1 H        0.926     0.031     2.578     2.511
    45   1 H        0.926     0.030     2.590     2.517
    46   1 H        0.926     0.029     2.604     2.523
    47   1 H        0.926     0.029     2.602     2.522
    48   1 H        0.926     0.030     2.585     2.514
    49   1 H        0.925     0.030     2.581     2.513
    50   1 H        0.926     0.031     2.571     2.507
    51   1 H        0.926     0.028     2.617     2.530
    52   1 H        0.926     0.028     2.617     2.530
    53   1 H        0.926     0.031     2.570     2.507
    54   1 H        0.926     0.030     2.585     2.514
    55   1 H        0.926     0.031     2.578     2.511
    56   1 H        0.926     0.030     2.590     2.517

molecular dipole:
                 x           y           z       tot (Debye)
 q only:       -0.000       0.009       0.000
   full:       -0.000       0.012       0.001       0.031

 projected vibrational frequencies (cm⁻¹)
eigval :       -0.00    -0.00     0.00     0.00     0.00     0.00
eigval :       15.35    19.71    29.06    32.59    47.14    58.64
eigval :       74.40   109.40   133.87   135.07   148.32   164.94
eigval :      168.06   173.03   183.63   201.91   215.68   288.48
eigval :      300.56   343.03   343.46   358.89   362.69   369.63
eigval :      398.00   402.44   407.88   445.45   449.11   449.92
eigval :      451.13   459.00   476.19   496.28   496.49   502.34
eigval :      530.62   556.48   563.09   578.83   582.80   593.37
eigval :      600.46   628.24   628.63   649.00   657.30   689.47
eigval :      693.12   723.70   725.07   738.13   756.47   758.49
eigval :      773.87   776.25   787.14   797.68   809.34   829.47
eigval :      834.22   836.21   873.02   874.72   875.00   876.22
eigval :      884.94   885.95   886.67   889.43   899.22   914.64
eigval :      915.00   918.00   919.37   923.73   925.56   928.27
eigval :      928.54   929.04   929.46   932.84   984.17  1004.43
eigval :     1079.19  1079.34  1081.95  1082.78  1131.97  1135.15
eigval :     1142.90  1146.84  1172.35  1173.84  1178.82  1179.34
eigval :     1181.34  1181.83  1187.63  1194.07  1226.45  1228.04
eigval :     1228.13  1231.81  1236.56  1259.00  1259.54  1259.62
eigval :     1265.14  1316.36  1330.09  1331.27  1346.57  1350.64
eigval :     1369.01  1383.53  1384.69  1398.61  1398.83  1418.01
eigval :     1426.77  1426.79  1430.02  1440.16  1453.07  1469.00
eigval :     1487.78  1501.52  1502.11  1527.22  1530.51  1542.30
eigval :     1561.43  1561.58  1606.27  1606.47  1608.57  1611.42
eigval :     1611.49  1622.78  3066.28  3066.29  3067.54  3067.55
eigval :     3069.60  3069.71  3071.74  3071.79  3072.98  3073.15
eigval :     3079.12  3079.45  3079.49  3079.94  3082.17  3082.31
eigval :     3088.82  3089.38  3089.52  3090.04  3093.17  3094.31

   temp. (K)  partition function   enthalpy   heat capacity  entropy
                                   cal/mol     cal/K/mol   cal/K/mol   J/K/mol
 298.15  VIB  0.228E+11            14384.847     96.194     86.700
         ROT  0.135E+08              888.752      2.981     35.612
         INT  0.308E+18            15273.599     99.175    122.312
         TR   0.864E+28             1481.254      4.968     44.050
         TOT                       16754.8531   104.1431   166.3615   696.0565

       T/K    H(0)-H(T)+PV         H(T)/Eh          T*S/Eh         G(T)/Eh
   ------------------------------------------------------------------------
    298.15    0.267006E-01    0.461171E+00    0.790437E-01    0.382127E+00
   ------------------------------------------------------------------------

         :::::::::::::::::::::::::::::::::::::::::::::::::::::
         ::                  THERMODYNAMIC                  ::
         :::::::::::::::::::::::::::::::::::::::::::::::::::::
         :: total free energy         -83.644978133094 Eh   ::
         ::.................................................::
         :: total energy              -84.027104948265 Eh   ::
         :: zero point energy           0.434469972151 Eh   ::
         :: G(RRHO) w/o ZPVE           -0.052343156980 Eh   ::
         :: G(RRHO) contrib.            0.382126815171 Eh   ::
         :::::::::::::::::::::::::::::::::::::::::::::::::::::

           -------------------------------------------------
          | TOTAL ENERGY              -84.027104948265 Eh   |
          | TOTAL ENTHALPY            -83.565934418148 Eh   |
          | TOTAL FREE ENERGY         -83.644978133094 Eh   |
          | GRADIENT NORM               0.000027111423 Eh/α |
          | HOMO-LUMO GAP               2.101389613466 eV   |
           -------------------------------------------------

 * finished run on 2025/09/09 at 22:14:10.086
