   * xtb version 6.7.1 (edcfbbe) compiled by 'albert@albert-system' on 2024-07-22

   ID    Z sym.   atoms
    1    6 C      1-6, 8-12, 14, 17-23, 25-38
    2    5 B      7
    3    7 N      13, 16, 24
    4   17 Cl     15
    5    1 H      39-69

          program call               : xtb data2507/toluene/PX-TRZ/PX-TRZ_toluene_T1_crest.xyz --gfn 2 --uhf 2 --gbsa toluene --ohess vtight --parallel 40 --molden --ceasefiles --namespace data2507/toluene/PX-TRZ/PX-TRZ_toluene_T1_finalOpt
      * Solvation model:               GBSA
        Solvent                        toluene
        Solvent mass                       9.2140E+01 g/mol
          :  Hamiltonian                  GFN2-xTB          :
 * total energy  :  -101.0247775 Eh     change       -0.7220038E-08 Eh
 * total energy  :  -101.0251999 Eh     change       -0.4224097E-03 Eh
 * total energy  :  -101.0253823 Eh     change       -0.1824350E-03 Eh
 * total energy  :  -101.0254036 Eh     change       -0.2128526E-04 Eh
 * total energy  :  -101.0254219 Eh     change       -0.1826488E-04 Eh
 * total energy  :  -101.0254287 Eh     change       -0.6847133E-05 Eh
 * total energy  :  -101.0254340 Eh     change       -0.5260527E-05 Eh
 * total energy  :  -101.0254402 Eh     change       -0.6214402E-05 Eh
 * total energy  :  -101.0254459 Eh     change       -0.5649055E-05 Eh
 * total energy  :  -101.0254494 Eh     change       -0.3512596E-05 Eh
 * total energy  :  -101.0254719 Eh     change       -0.2469736E-06 Eh
 * total energy  :  -101.0254722 Eh     change       -0.3265166E-06 Eh
 * total energy  :  -101.0254726 Eh     change       -0.3363948E-06 Eh
 * total energy  :  -101.0254728 Eh     change       -0.2643914E-06 Eh
 * total energy  :  -101.0254731 Eh     change       -0.2440305E-06 Eh
 * total energy  :  -101.0254732 Eh     change       -0.1842262E-06 Eh
 * total energy  :  -101.0254734 Eh     change       -0.1311912E-06 Eh
 * total energy  :  -101.0254735 Eh     change       -0.1184052E-06 Eh
 * total energy  :  -101.0254736 Eh     change       -0.8331865E-07 Eh
   *** GEOMETRY OPTIMIZATION CONVERGED AFTER 38 ITERATIONS ***

 final structure:
================
69
 xtb: 6.7.1 (edcfbbe)
C           -6.56268197953534       -4.40416186204055        0.65338233848224
C           -5.58878008474970       -3.28588451722473        0.47402225738295
C           -5.66474601720870       -2.44632225530457       -0.63422890787322
C           -4.76196630394720       -1.41758278802815       -0.82570798668870
C           -4.85879662238816       -0.56925256766217       -2.05266463683068
C           -3.75754357875471       -1.16350656128022        0.13902534011072
B           -2.81719072711918        0.08206329713756       -0.00612021893286
C           -1.29577130471328       -0.15164599027533       -0.06048447313671
C           -0.75354057769319       -1.41893866451876       -0.37525621543031
C            0.59606747479736       -1.62852233940522       -0.42989936430627
C            1.50484622330178       -0.58357725970679       -0.15454536639855
C            2.90424439418668       -0.79948312101123       -0.19895747134545
N            3.37769166321231       -2.05185125476165       -0.52243227905302
C            4.66819371847443       -2.14348303652069       -0.54178216659142
Cl           5.29917757392648       -3.70920427756228       -0.95203894024159
N            5.57891325445038       -1.23144084835805       -0.29767403146201
C            5.04215315372358       -0.01633169724774        0.02155140092094
C            5.96490819100536        1.06797031177677        0.31640989641031
C            7.34400443103613        0.85322108545363        0.26996205029069
C            8.21719256301211        1.88556145447802        0.55146091654778
C            7.72984033854519        3.14144074427146        0.88174290867830
C            6.36065690583732        3.36231994690313        0.92988236951649
C            5.48162210276526        2.33585901188052        0.64999964516744
N            3.75251627807687        0.20460300230179        0.07093921016098
C            0.97246560298730        0.68443787117695        0.16687830586809
C           -0.37771734283503        0.89109203002773        0.20300600193096
C           -3.35001496046901        1.55345447361205       -0.09710487188938
C           -3.07396200195922        2.36917736565704       -1.21627469916165
C           -2.17965601585515        1.91173685125864       -2.32865924841668
C           -3.65674755995618        3.62115223410435       -1.32111737586017
C           -4.48209537497153        4.12999910168536       -0.32413050813375
C           -5.08901704332557        5.48991776959020       -0.44105966928475
C           -4.72882925018549        3.33782224776107        0.79469395927540
C           -4.16376546529905        2.08451220674507        0.93270622276851
C           -4.42505944678725        1.28924865568463        2.17124125295061
C           -3.66029616295823       -2.03499423131919        1.24621069754392
C           -2.59262677386184       -1.87792090609242        2.28632215572264
C           -4.58246679693629       -3.05520326351629        1.40659702646207
H           -6.14420175507188       -5.19351577387230        1.27332117824422
H           -7.46185360661658       -4.02915449939510        1.14548010548138
H           -6.85913637406583       -4.82093287671922       -0.30683285647924
H           -6.43893166362302       -2.61494607102192       -1.36954026774949
H           -5.71945580988540       -0.85105301216776       -2.65394102154713
H           -4.94566651461638        0.48117847096851       -1.77859419319847
H           -3.96036947291916       -0.67633454720596       -2.65882714769136
H           -1.42325524755278       -2.23699977428248       -0.59755346384547
H            0.99913603456956       -2.59794496575505       -0.68441905261360
H            7.70454529020409       -0.13057577784956        0.01083654131129
H            9.28268187973285        1.71170006726293        0.51364746298893
H            8.41530025010353        3.94656575020321        1.10116354136870
H            5.98036984601063        4.34003470611298        1.18729486945094
H            4.41411114296211        2.49011349702267        0.68304858816156
H            1.66281066544315        1.48637197374506        0.38322768194655
H           -0.75461990128749        1.87040243715890        0.45973969186585
H           -2.08640362300610        0.83058499108839       -2.34722172753858
H           -1.17946302487167        2.32458927788554       -2.19355874038057
H           -2.55647213212561        2.26081106303900       -3.28824045253286
H           -3.45407137367531        4.22120009727745       -2.19727640936117
H           -5.07191032775648        6.00621797017910        0.51690427992368
H           -6.13204768393678        5.39961171987595       -0.74880716978555
H           -4.56696655250093        6.09133272433314       -1.18110469947245
H           -5.36580857091584        3.72096948199780        1.57947923292824
H           -4.84309861265289        0.31711823500509        1.91394192386371
H           -5.11672048622598        1.80943395119236        2.82908042062380
H           -3.49608042930633        1.11308744568239        2.71157741702583
H           -2.98574942886718       -2.11005708147233        3.27435462097640
H           -1.77386398466252       -2.56899243983566        2.08295329678357
H           -2.17969475490864       -0.87421573448984        2.28634983821746
H           -4.50879568060344       -3.69696860582827        2.27351366317985

          :  Hamiltonian                  GFN2-xTB          :
         :: gradient norm              0.000070424649 Eh/a0 ::
         :: HOMO-LUMO gap              0.567202899750 eV    ::
         :: SCC energy              -102.718388708428 Eh    ::
         :: -> dispersion             -0.086699752563 Eh    ::
         :: -> Gsolv                  -0.061868674439 Eh    ::
         :: repulsion energy           1.692915126357 Eh    ::

    * Orbital Energies and Occupations

         #    Occupation            Energy/Eh            Energy/eV
      -------------------------------------------------------------
         1        2.0000           -1.0668973             -29.0318
       ...           ...                  ...                  ...
        83        2.0000           -0.4106362             -11.1740
        84        2.0000           -0.4102738             -11.1641
        85        2.0000           -0.4064540             -11.0602
        86        2.0000           -0.4040275             -10.9941
        87        2.0000           -0.4032460             -10.9729
        88        2.0000           -0.3983633             -10.8400
        89        2.0000           -0.3960811             -10.7779
        90        2.0000           -0.3931631             -10.6985
        91        2.0000           -0.3887476             -10.5784
        92        1.9688           -0.3819004             -10.3920
        93        1.8309           -0.3801482             -10.3444
        94        1.2003           -0.3773209             -10.2674
        95        1.0000           -0.2986466              -8.1266 (HOMO)
        96        0.0000           -0.2778021              -7.5594 (LUMO)
        97                         -0.2566986              -6.9851
        98                         -0.2318987              -6.3103
        99                         -0.2274912              -6.1904
       100                         -0.2225851              -6.0568
       101                         -0.2214097              -6.0249
       102                         -0.2195544              -5.9744
       103                         -0.2145652              -5.8386
       104                         -0.2056366              -5.5957
       105                         -0.1692016              -4.6042
       106                         -0.1461341              -3.9765
       ...                                ...                  ...
       188                          0.6807242              18.5234
      -------------------------------------------------------------
                  HL-Gap            0.0208446 Eh            0.5672 eV

     #   Z          covCN         q      C6AA      α(0)
     1   6 C        3.758    -0.113    22.710     6.794
     2   6 C        2.962     0.030    27.337     8.576
     3   6 C        2.925    -0.052    29.295     8.876
     4   6 C        2.963     0.023    27.489     8.600
     5   6 C        3.759    -0.119    22.832     6.812
     6   6 C        2.889    -0.055    29.361     8.884
     7   5 B        2.712     0.224    18.063     7.126
     8   6 C        2.886    -0.052    29.298     8.874
     9   6 C        2.915    -0.032    28.809     8.802
    10   6 C        2.917    -0.037    28.912     8.817
    11   6 C        2.978    -0.020    28.498     8.757
    12   6 C        2.972     0.188    23.994     8.035
    13   7 N        1.907    -0.349    29.930     8.111
    14   6 C        2.914     0.314    21.680     7.635
    15  17 Cl       1.033    -0.209   105.748    15.733
    16   7 N        1.905    -0.371    30.521     8.191
    17   6 C        2.980     0.211    23.544     7.959
    18   6 C        2.982    -0.010    28.262     8.720
    19   6 C        2.923    -0.029    28.721     8.789
    20   6 C        2.917    -0.029    28.719     8.788
    21   6 C        2.920    -0.027    28.688     8.783
    22   6 C        2.917    -0.029    28.728     8.789
    23   6 C        2.923    -0.030    28.757     8.794
    24   7 N        1.844    -0.300    28.629     7.930
    25   6 C        2.917    -0.038    28.936     8.821
    26   6 C        2.915    -0.033    28.821     8.803
    27   6 C        2.889    -0.055    29.363     8.884
    28   6 C        2.962     0.024    27.477     8.598
    29   6 C        3.759    -0.118    22.808     6.809
    30   6 C        2.927    -0.052    29.282     8.874
    31   6 C        2.962     0.030    27.338     8.576
    32   6 C        3.758    -0.113    22.712     6.795
    33   6 C        2.926    -0.052    29.297     8.876
    34   6 C        2.963     0.023    27.490     8.600
    35   6 C        3.759    -0.119    22.834     6.812
    36   6 C        2.962     0.023    27.479     8.598
    37   6 C        3.759    -0.118    22.804     6.808
    38   6 C        2.927    -0.052    29.283     8.874
    39   1 H        0.925     0.051     2.307     2.375
    40   1 H        0.924     0.064     2.156     2.296
    41   1 H        0.925     0.053     2.280     2.361
    42   1 H        0.926     0.041     2.436     2.441
    43   1 H        0.925     0.050     2.314     2.379
    44   1 H        0.925     0.066     2.131     2.283
    45   1 H        0.925     0.056     2.243     2.342
    46   1 H        0.926     0.036     2.506     2.476
    47   1 H        0.926     0.032     2.559     2.502
    48   1 H        0.926     0.045     2.388     2.417
    49   1 H        0.926     0.042     2.416     2.431
    50   1 H        0.926     0.046     2.368     2.406
    51   1 H        0.926     0.045     2.378     2.412
    52   1 H        0.926     0.045     2.387     2.416
    53   1 H        0.926     0.031     2.570     2.507
    54   1 H        0.926     0.038     2.479     2.462
    55   1 H        0.925     0.053     2.277     2.360
    56   1 H        0.924     0.055     2.263     2.352
    57   1 H        0.925     0.053     2.288     2.366
    58   1 H        0.926     0.040     2.448     2.447
    59   1 H        0.925     0.055     2.263     2.353
    60   1 H        0.924     0.063     2.164     2.300
    61   1 H        0.925     0.050     2.317     2.380
    62   1 H        0.926     0.041     2.433     2.439
    63   1 H        0.925     0.065     2.138     2.286
    64   1 H        0.925     0.050     2.314     2.379
    65   1 H        0.925     0.056     2.243     2.342
    66   1 H        0.925     0.053     2.288     2.366
    67   1 H        0.924     0.054     2.273     2.357
    68   1 H        0.925     0.054     2.271     2.357
    69   1 H        0.926     0.040     2.449     2.447

molecular dipole:
                 x           y           z       tot (Debye)
 q only:       -7.471       2.709       0.675
   full:       -7.219       2.552       0.639      19.529

 projected vibrational frequencies (cm⁻¹)
eigval :       -0.00    -0.00    -0.00     0.00     0.00     0.00
eigval :      -45.06    10.90    17.70    20.73    26.13    33.01
eigval :       39.49    41.02    43.69    59.49    70.56    73.61
eigval :       80.61    89.02    96.66   106.62   112.73   118.40
eigval :      134.95   148.55   154.37   156.51   156.91   164.10
eigval :      182.25   184.15   191.39   196.24   200.98   203.97
eigval :      244.57   252.88   275.11   276.41   277.45   289.26
eigval :      312.12   314.76   326.73   337.07   366.08   366.38
eigval :      380.17   400.58   419.53   429.16   460.30   475.98
eigval :      477.11   478.27   481.45   499.01   506.97   517.34
eigval :      527.05   529.81   542.88   559.11   581.79   584.30
eigval :      587.28   590.55   597.36   597.68   598.77   631.11
eigval :      653.51   661.45   672.59   679.87   706.62   764.77
eigval :      766.79   804.59   804.96   834.06   839.79   840.48
eigval :      859.18   870.37   873.77   875.80   881.75   902.25
eigval :      915.66   922.96   924.07   929.41   951.38   961.71
eigval :      962.42   972.15   972.37   983.24   994.45  1006.54
eigval :     1010.38  1015.85  1018.33  1022.00  1023.75  1026.92
eigval :     1028.14  1032.18  1036.49  1042.54  1042.87  1064.00
eigval :     1075.15  1089.79  1091.88  1108.97  1117.59  1124.41
eigval :     1144.89  1178.19  1178.88  1183.03  1189.39  1197.46
eigval :     1213.80  1224.66  1225.38  1232.68  1263.09  1269.51
eigval :     1273.53  1284.65  1306.65  1311.52  1313.13  1321.87
eigval :     1329.21  1370.75  1392.54  1393.92  1395.32  1397.23
eigval :     1397.72  1400.10  1406.53  1409.07  1417.45  1420.17
eigval :     1424.93  1431.37  1436.31  1440.92  1449.84  1453.95
eigval :     1459.14  1460.21  1461.91  1464.87  1466.19  1468.85
eigval :     1470.25  1470.82  1471.14  1478.14  1480.15  1483.73
eigval :     1489.53  1492.11  1530.32  1553.69  1569.36  1572.73
eigval :     1574.05  1588.35  2985.38  2987.85  2996.11  2997.35
eigval :     3006.01  3006.48  3018.91  3019.88  3024.36  3025.32
eigval :     3027.33  3031.69  3038.81  3041.72  3042.96  3043.60
eigval :     3058.10  3059.53  3069.49  3069.61  3070.78  3071.24
eigval :     3071.67  3072.44  3074.59  3077.53  3082.99  3085.18
eigval :     3089.40  3097.60  3100.02

   temp. (K)  partition function   enthalpy   heat capacity  entropy
                                   cal/mol     cal/K/mol   cal/K/mol   J/K/mol
 298.15  VIB  0.179E+18            21556.417    126.744    136.945
         ROT  0.597E+08              888.752      2.981     38.562
         INT  0.107E+26            22445.170    129.725    175.507
         TR   0.113E+29             1481.254      4.968     44.588
         TOT                       23926.4236   134.6932   220.0957   920.8804

       T/K    H(0)-H(T)+PV         H(T)/Eh          T*S/Eh         G(T)/Eh
   ------------------------------------------------------------------------
    298.15    0.381292E-01    0.575997E+00    0.104575E+00    0.471422E+00
   ------------------------------------------------------------------------

         :::::::::::::::::::::::::::::::::::::::::::::::::::::
         ::                  THERMODYNAMIC                  ::
         :::::::::::::::::::::::::::::::::::::::::::::::::::::
         :: total free energy        -100.554051577056 Eh   ::
         ::.................................................::
         :: total energy             -101.025473577133 Eh   ::
         :: zero point energy           0.537867388663 Eh   ::
         :: G(RRHO) w/o ZPVE           -0.066445388586 Eh   ::
         :: G(RRHO) contrib.            0.471422000077 Eh   ::
         :::::::::::::::::::::::::::::::::::::::::::::::::::::

           -------------------------------------------------
          | TOTAL ENERGY             -101.025473577133 Eh   |
          | TOTAL ENTHALPY           -100.449477005392 Eh   |
          | TOTAL FREE ENERGY        -100.554051577056 Eh   |
          | GRADIENT NORM               0.000072732183 Eh/α |
          | HOMO-LUMO GAP               0.567209293727 eV   |
           -------------------------------------------------

 * finished run on 2025/08/29 at 20:38:58.684
