   * xtb version 6.7.1 (edcfbbe) compiled by 'albert@albert-system' on 2024-07-22

   ID    Z sym.   atoms
    1    6 C      1-6, 8-12, 14, 17-23, 25-38
    2    5 B      7
    3    7 N      13, 16, 24
    4   17 Cl     15
    5    1 H      39-69

          program call               : xtb data2507/toluene/PX-TRZ/PX-TRZ_toluene_S0_finalOpt.xtbopt.xyz --gfn 2 --uhf 2 --gbsa toluene --ohess vtight --parallel 40 --molden --ceasefiles --namespace data2507/toluene/PX-TRZ/PX-TRZ_toluene_T1_preOpt
      * Solvation model:               GBSA
        Solvent                        toluene
        Solvent mass                       9.2140E+01 g/mol
          :  Hamiltonian                  GFN2-xTB          :
 * total energy  :  -101.0192370 Eh     change       -0.1231204E-06 Eh
 * total energy  :  -101.0225326 Eh     change       -0.3295648E-02 Eh
 * total energy  :  -101.0237532 Eh     change       -0.1220588E-02 Eh
 * total energy  :  -101.0240015 Eh     change       -0.2483471E-03 Eh
 * total energy  :  -101.0242732 Eh     change       -0.2716876E-03 Eh
 * total energy  :  -101.0244287 Eh     change       -0.1555198E-03 Eh
 * total energy  :  -101.0245837 Eh     change       -0.1549925E-03 Eh
 * total energy  :  -101.0247273 Eh     change       -0.1435094E-03 Eh
 * total energy  :  -101.0248315 Eh     change       -0.1042394E-03 Eh
 * total energy  :  -101.0249036 Eh     change       -0.7215994E-04 Eh
 * total energy  :  -101.0254680 Eh     change       -0.5429836E-06 Eh
 * total energy  :  -101.0254683 Eh     change       -0.3155301E-06 Eh
 * total energy  :  -101.0254685 Eh     change       -0.1793632E-06 Eh
 * total energy  :  -101.0254686 Eh     change       -0.1058827E-06 Eh
 * total energy  :  -101.0254687 Eh     change       -0.1714926E-06 Eh
 * total energy  :  -101.0254689 Eh     change       -0.1596622E-06 Eh
 * total energy  :  -101.0254689 Eh     change        0.1241574E-08 Eh
 * total energy  :  -101.0254690 Eh     change       -0.1003764E-06 Eh
 * total energy  :  -101.0254690 Eh     change       -0.7535533E-08 Eh
   *** GEOMETRY OPTIMIZATION CONVERGED AFTER 76 ITERATIONS ***

 final structure:
================
69
 xtb: 6.7.1 (edcfbbe)
C           -6.58885171061170       -4.32179799580779        0.95194943178129
C           -5.60707999360514       -3.22427177645710        0.70150218289741
C           -5.66890173809198       -2.45698335244826       -0.45785038898100
C           -4.75551470290962       -1.44970909758951       -0.70823401025960
C           -4.83618457870911       -0.68223684761052       -1.98839067499163
C           -3.75581741748255       -1.14219950896585        0.24545286416495
B           -2.80319985775129        0.08324769540413        0.02842148663688
C           -1.28339099557637       -0.16534905262871        0.00487369374189
C           -0.74918892172155       -1.45426021170436       -0.22358637313505
C            0.59895553324437       -1.67800002054039       -0.25017726622448
C            1.51399879259476       -0.62524382335850       -0.03125978903617
C            2.91175356013571       -0.85541083189130       -0.04581452034931
N            3.37659860956656       -2.13073821233497       -0.27936532883812
C            4.66622322918982       -2.23530612942200       -0.27606009096638
Cl           5.28624936196767       -3.83035837716899       -0.57391933122147
N            5.58287487642901       -1.31726592311052       -0.08177644972688
C            5.05443137442104       -0.07830098922037        0.14701814218880
C            5.98482585209375        1.01449057560765        0.38022398639389
C            7.36198507297984        0.78335627699026        0.36567884461754
C            8.24294390828739        1.82291058855154        0.59048762050463
C            7.76529754525144        3.10229024361906        0.83306545033184
C            6.39815311483900        3.33971714691593        0.84852769376694
C            5.51139745036588        2.30624048551108        0.62437161716126
N            3.76656040565267        0.15717756840794        0.16548219996895
C            0.98959856883454        0.66479675071445        0.20399093200426
C           -0.35903543304776        0.88441207275672        0.21196224460350
C           -3.32065298391574        1.55021903123717       -0.16492457510770
C           -3.02168805524146        2.28776160547859       -1.33179348263834
C           -2.11838299569946        1.74797329975844       -2.39906566964377
C           -3.58879104372528        3.53591877295758       -1.52563412530771
C           -4.41973976084905        4.11836154640162       -0.57406642101189
C           -5.00679560655704        5.47486949031285       -0.78998135200408
C           -4.69003517029943        3.40370335165638        0.59013484241693
C           -4.14124791088783        2.15576020868582        0.81697181941265
C           -4.42696977603418        1.44637883503151        2.10140868293866
C           -3.67373768815685       -1.94159329813606        1.40744735995779
C           -2.61222391617265       -1.72417609931528        2.44303635964088
C           -4.60469418722514       -2.94209962207641        1.62540593839267
H           -6.12706826671231       -5.14087775825122        1.49908176010710
H           -7.41431386026091       -3.94153087126682        1.55627782727297
H           -7.00105679694872       -4.70020153471159        0.01959587483157
H           -6.43913657437939       -2.66562416222344       -1.18701891784322
H           -5.69969693067559       -0.98931733735517       -2.57300118462069
H           -4.90632899564564        0.38529081040648       -1.78473341788742
H           -3.93823908137845       -0.84358309659889       -2.58329657415655
H           -1.42396938693042       -2.27891360661054       -0.40189478422950
H            0.99605859397545       -2.66465184229260       -0.43939875801326
H            7.71490571246905       -0.21879762920939        0.17580579232818
H            9.30682064521022        1.63611674564437        0.57771931004910
H            8.45676023467516        3.91290417554949        1.00914031107178
H            6.02546636543092        4.33581777879007        1.03735844276125
H            4.44536612419703        2.47341365306685        0.63344607135846
H            1.68474283204911        1.47293187800614        0.37769123048465
H           -0.72979990378556        1.88089617773205        0.40317471425100
H           -2.05583416305848        0.66513901751038       -2.35844449246114
H           -1.10941489056274        2.13888452531752       -2.26389514781075
H           -2.46535263221945        2.05560298926325       -3.38365059894294
H           -3.36919000007997        4.07555144937618       -2.43627768892118
H           -4.42210399299090        6.04613601878640       -1.50698959694120
H           -5.06608540205133        6.02680481771605        0.14581942982315
H           -6.02057099865681        5.37590864022921       -1.18175945416910
H           -5.33182664766224        3.84407536933554        1.34022308458261
H           -4.84492675006067        0.46059567733276        1.90274430010733
H           -5.12711574231228        2.01185072586889        2.71111658607847
H           -3.50796090422590        1.30384651172028        2.66818851645332
H           -3.00844844775717       -1.90755622280642        3.43996286658473
H           -1.78766638027102       -2.41875686229627        2.27905163788064
H           -2.20590452636532       -0.71900408994276        2.39293025436534
H           -4.54321026371364       -3.52842612610667        2.53165044418283

          :  Hamiltonian                  GFN2-xTB          :
         :: gradient norm              0.000112849958 Eh/a0 ::
         :: HOMO-LUMO gap              0.566833148178 eV    ::
         :: SCC energy              -102.718469854080 Eh    ::
         :: -> dispersion             -0.086712083385 Eh    ::
         :: -> Gsolv                  -0.061863040665 Eh    ::
         :: repulsion energy           1.693000847076 Eh    ::

    * Orbital Energies and Occupations

         #    Occupation            Energy/Eh            Energy/eV
      -------------------------------------------------------------
         1        2.0000           -1.0669095             -29.0321
       ...           ...                  ...                  ...
        83        2.0000           -0.4106368             -11.1740
        84        2.0000           -0.4102717             -11.1641
        85        2.0000           -0.4064491             -11.0600
        86        2.0000           -0.4040110             -10.9937
        87        2.0000           -0.4032547             -10.9731
        88        2.0000           -0.3983563             -10.8398
        89        2.0000           -0.3960891             -10.7781
        90        2.0000           -0.3932269             -10.7002
        91        2.0000           -0.3887675             -10.5789
        92        1.9688           -0.3818804             -10.3915
        93        1.8314           -0.3801331             -10.3439
        94        1.1998           -0.3772986             -10.2668
        95        1.0000           -0.2986305              -8.1261 (HOMO)
        96        0.0000           -0.2777994              -7.5593 (LUMO)
        97                         -0.2567854              -6.9875
        98                         -0.2319924              -6.3128
        99                         -0.2274832              -6.1901
       100                         -0.2225452              -6.0558
       101                         -0.2214341              -6.0255
       102                         -0.2194999              -5.9729
       103                         -0.2145578              -5.8384
       104                         -0.2055788              -5.5941
       105                         -0.1691694              -4.6033
       106                         -0.1460864              -3.9752
       ...                                ...                  ...
       188                          0.6807650              18.5246
      -------------------------------------------------------------
                  HL-Gap            0.0208311 Eh            0.5668 eV

     #   Z          covCN         q      C6AA      α(0)
     1   6 C        3.758    -0.113    22.710     6.794
     2   6 C        2.962     0.030    27.336     8.576
     3   6 C        2.925    -0.052    29.291     8.876
     4   6 C        2.963     0.023    27.484     8.599
     5   6 C        3.759    -0.119    22.830     6.812
     6   6 C        2.889    -0.055    29.363     8.884
     7   5 B        2.712     0.224    18.065     7.126
     8   6 C        2.886    -0.052    29.294     8.873
     9   6 C        2.915    -0.032    28.808     8.801
    10   6 C        2.917    -0.037    28.912     8.817
    11   6 C        2.978    -0.020    28.498     8.757
    12   6 C        2.972     0.188    23.993     8.035
    13   7 N        1.907    -0.349    29.932     8.111
    14   6 C        2.914     0.314    21.679     7.635
    15  17 Cl       1.033    -0.209   105.748    15.733
    16   7 N        1.905    -0.371    30.523     8.191
    17   6 C        2.980     0.211    23.543     7.959
    18   6 C        2.982    -0.010    28.262     8.720
    19   6 C        2.923    -0.029    28.721     8.789
    20   6 C        2.917    -0.029    28.719     8.788
    21   6 C        2.920    -0.027    28.688     8.783
    22   6 C        2.917    -0.029    28.728     8.789
    23   6 C        2.923    -0.030    28.757     8.794
    24   7 N        1.844    -0.300    28.633     7.930
    25   6 C        2.917    -0.038    28.937     8.821
    26   6 C        2.915    -0.033    28.821     8.803
    27   6 C        2.889    -0.055    29.363     8.884
    28   6 C        2.962     0.023    27.479     8.598
    29   6 C        3.759    -0.118    22.809     6.809
    30   6 C        2.927    -0.052    29.282     8.874
    31   6 C        2.962     0.030    27.337     8.576
    32   6 C        3.758    -0.113    22.712     6.795
    33   6 C        2.925    -0.052    29.295     8.876
    34   6 C        2.963     0.023    27.489     8.600
    35   6 C        3.759    -0.119    22.832     6.812
    36   6 C        2.962     0.023    27.483     8.599
    37   6 C        3.759    -0.118    22.804     6.808
    38   6 C        2.927    -0.052    29.285     8.875
    39   1 H        0.925     0.053     2.287     2.365
    40   1 H        0.924     0.064     2.156     2.296
    41   1 H        0.925     0.052     2.299     2.371
    42   1 H        0.926     0.041     2.440     2.443
    43   1 H        0.925     0.051     2.313     2.378
    44   1 H        0.925     0.066     2.129     2.282
    45   1 H        0.925     0.056     2.243     2.342
    46   1 H        0.926     0.036     2.507     2.476
    47   1 H        0.926     0.032     2.559     2.502
    48   1 H        0.926     0.045     2.388     2.416
    49   1 H        0.926     0.042     2.417     2.431
    50   1 H        0.926     0.046     2.368     2.407
    51   1 H        0.926     0.045     2.379     2.412
    52   1 H        0.926     0.045     2.387     2.416
    53   1 H        0.926     0.031     2.571     2.507
    54   1 H        0.926     0.038     2.480     2.463
    55   1 H        0.925     0.054     2.275     2.359
    56   1 H        0.924     0.055     2.262     2.352
    57   1 H        0.925     0.052     2.292     2.367
    58   1 H        0.926     0.040     2.447     2.446
    59   1 H        0.925     0.051     2.309     2.376
    60   1 H        0.925     0.054     2.273     2.358
    61   1 H        0.924     0.063     2.160     2.298
    62   1 H        0.926     0.041     2.434     2.440
    63   1 H        0.925     0.065     2.137     2.286
    64   1 H        0.925     0.051     2.313     2.379
    65   1 H        0.925     0.056     2.243     2.342
    66   1 H        0.925     0.052     2.292     2.368
    67   1 H        0.924     0.054     2.273     2.358
    68   1 H        0.925     0.054     2.270     2.356
    69   1 H        0.926     0.040     2.445     2.445

molecular dipole:
                 x           y           z       tot (Debye)
 q only:       -7.450       2.809       0.416
   full:       -7.195       2.647       0.396      19.512

 projected vibrational frequencies (cm⁻¹)
eigval :       -0.00    -0.00     0.00     0.00     0.00     0.00
eigval :      -20.03     9.85    15.89    20.07    24.74    27.08
eigval :       37.36    40.98    43.32    58.14    71.28    77.09
eigval :       83.64    89.56    98.22   110.76   113.36   119.76
eigval :      137.49   143.18   149.22   156.28   158.09   161.31
eigval :      181.06   182.32   189.86   196.06   201.78   202.70
eigval :      244.30   252.91   275.92   276.68   277.86   289.31
eigval :      312.16   314.12   326.94   336.62   365.86   366.56
eigval :      379.26   400.47   419.86   428.47   460.20   476.07
eigval :      477.27   478.30   482.11   499.49   507.04   517.57
eigval :      527.36   529.93   542.99   559.48   582.36   584.24
eigval :      587.35   590.47   597.39   598.45   598.60   631.00
eigval :      652.93   661.00   672.36   680.06   708.81   764.42
eigval :      766.50   804.70   804.92   834.40   841.07   841.73
eigval :      859.11   871.20   874.74   875.60   882.03   901.19
eigval :      915.31   923.64   924.48   928.27   951.41   961.83
eigval :      963.07   972.06   972.52   983.23   994.58  1006.57
eigval :     1010.42  1016.73  1018.72  1021.60  1023.75  1027.82
eigval :     1029.60  1031.85  1036.09  1042.63  1043.46  1064.25
eigval :     1074.83  1090.20  1092.04  1109.01  1117.75  1124.78
eigval :     1144.83  1178.69  1179.54  1183.28  1189.38  1197.85
eigval :     1213.50  1225.15  1225.42  1232.76  1263.45  1269.20
eigval :     1273.55  1284.80  1307.83  1311.73  1313.09  1320.38
eigval :     1329.36  1370.93  1392.52  1394.37  1395.47  1397.26
eigval :     1398.10  1400.35  1406.52  1408.82  1417.88  1420.62
eigval :     1424.50  1431.58  1436.43  1441.06  1450.08  1453.76
eigval :     1458.72  1459.68  1462.01  1464.88  1466.68  1469.11
eigval :     1469.70  1471.11  1472.63  1478.14  1480.63  1483.49
eigval :     1489.12  1491.32  1530.41  1553.50  1569.47  1572.82
eigval :     1574.01  1588.39  2986.31  2986.50  2996.71  2997.33
eigval :     3005.65  3006.28  3018.83  3019.82  3026.29  3026.66
eigval :     3030.61  3032.59  3039.63  3039.99  3043.13  3043.42
eigval :     3056.58  3057.60  3069.21  3069.80  3070.77  3071.42
eigval :     3072.02  3072.47  3074.62  3077.66  3083.08  3085.24
eigval :     3089.27  3097.78  3099.94

   temp. (K)  partition function   enthalpy   heat capacity  entropy
                                   cal/mol     cal/K/mol   cal/K/mol   J/K/mol
 298.15  VIB  0.285E+18            21571.226    126.618    137.185
         ROT  0.597E+08              888.752      2.981     38.562
         INT  0.170E+26            22459.978    129.599    175.747
         TR   0.113E+29             1481.254      4.968     44.588
         TOT                       23941.2323   134.5668   220.3356   921.8840

       T/K    H(0)-H(T)+PV         H(T)/Eh          T*S/Eh         G(T)/Eh
   ------------------------------------------------------------------------
    298.15    0.381528E-01    0.576032E+00    0.104689E+00    0.471344E+00
   ------------------------------------------------------------------------

         :::::::::::::::::::::::::::::::::::::::::::::::::::::
         ::                  THERMODYNAMIC                  ::
         :::::::::::::::::::::::::::::::::::::::::::::::::::::
         :: total free energy        -100.554125258251 Eh   ::
         ::.................................................::
         :: total energy             -101.025469004728 Eh   ::
         :: zero point energy           0.537879501894 Eh   ::
         :: G(RRHO) w/o ZPVE           -0.066535755418 Eh   ::
         :: G(RRHO) contrib.            0.471343746477 Eh   ::
         :::::::::::::::::::::::::::::::::::::::::::::::::::::

           -------------------------------------------------
          | TOTAL ENERGY             -101.025469004728 Eh   |
          | TOTAL ENTHALPY           -100.449436720555 Eh   |
          | TOTAL FREE ENERGY        -100.554125258251 Eh   |
          | GRADIENT NORM               0.000113125340 Eh/α |
          | HOMO-LUMO GAP               0.566842143748 eV   |
           -------------------------------------------------

 * finished run on 2025/08/29 at 20:34:27.667
