   * xtb version 6.7.1 (edcfbbe) compiled by 'albert@albert-system' on 2024-07-22

   ID    Z sym.   atoms
    1    6 C      1-6, 8-12, 14, 17-23, 25-38
    2    5 B      7
    3    7 N      13, 16, 24
    4   17 Cl     15
    5    1 H      39-69

          program call               : xtb data2507/toluene/PX-TRZ/PX-TRZ.xyz --gfn 2 --gbsa toluene --ohess vtight --parallel 40 --molden --ceasefiles --namespace data2507/toluene/PX-TRZ/PX-TRZ_toluene_S0_preOpt
      * Solvation model:               GBSA
        Solvent                        toluene
        Solvent mass                       9.2140E+01 g/mol
          :  Hamiltonian                  GFN2-xTB          :
 * total energy  :  -101.0612306 Eh     change       -0.1728907E-08 Eh
 * total energy  :  -101.0897410 Eh     change       -0.2851044E-01 Eh
 * total energy  :  -101.0963498 Eh     change       -0.6608832E-02 Eh
 * total energy  :  -101.0969207 Eh     change       -0.5708546E-03 Eh
 * total energy  :  -101.0971259 Eh     change       -0.2052241E-03 Eh
 * total energy  :  -101.0972156 Eh     change       -0.8963657E-04 Eh
 * total energy  :  -101.0973064 Eh     change       -0.9080275E-04 Eh
 * total energy  :  -101.0974020 Eh     change       -0.9559646E-04 Eh
 * total energy  :  -101.0974881 Eh     change       -0.8615441E-04 Eh
 * total energy  :  -101.0975526 Eh     change       -0.6449685E-04 Eh
 * total energy  :  -101.0983981 Eh     change       -0.1198689E-06 Eh
 * total energy  :  -101.0983982 Eh     change       -0.1246819E-06 Eh
 * total energy  :  -101.0983983 Eh     change       -0.1404234E-06 Eh
 * total energy  :  -101.0983985 Eh     change       -0.1538121E-06 Eh
 * total energy  :  -101.0983987 Eh     change       -0.1705882E-06 Eh
 * total energy  :  -101.0983989 Eh     change       -0.1931946E-06 Eh
 * total energy  :  -101.0983991 Eh     change       -0.2070661E-06 Eh
 * total energy  :  -101.0983993 Eh     change       -0.2068929E-06 Eh
 * total energy  :  -101.0983993 Eh     change       -0.1061537E-08 Eh
   *** GEOMETRY OPTIMIZATION CONVERGED AFTER 94 ITERATIONS ***

 final structure:
================
69
 xtb: 6.7.1 (edcfbbe)
C           -5.72567223970140       -4.43036584904847        0.70195312981906
C           -4.77268704732960       -3.28836053052667        0.51756135846580
C           -5.00654921951857       -2.29611538459353       -0.42223123301779
C           -4.13819387459198       -1.22685885298934       -0.58482357579493
C           -4.44526541999316       -0.20245110080689       -1.63834383919425
C           -2.97439766623927       -1.13069528843661        0.19898402069377
B           -1.93750424226225        0.02218283800475       -0.02749958725438
C           -0.43563762103404       -0.37348702420824       -0.26729387334303
C           -0.09211660115334       -1.53224143424814       -0.97517272032613
C            1.22254509161603       -1.87691610262652       -1.20327298393271
C            2.25277541597967       -1.07432040828732       -0.70505872116225
C            3.64056206253010       -1.43284653621128       -0.93293602654040
N            3.89738617170435       -2.50853352263539       -1.69640131342811
C            5.17043815226870       -2.76390943402313       -1.86218400005801
Cl           5.55138875633954       -4.12695128142934       -2.83742587494381
N            6.18929513575525       -2.10144124127932       -1.37164358663668
C            5.85036864850379       -1.04533176353374       -0.61461547422435
C            6.92457776656488       -0.25929757699823       -0.02312584614823
C            8.25724990667671       -0.57281719166038       -0.29668782566826
C            9.27197881886198        0.17500827334406        0.26842522797977
C            8.96954779750722        1.23626124427241        1.10916411386261
C            7.64712063390192        1.55184211276849        1.38512455671683
C            6.62622229921052        0.81069048801306        0.82294220002338
N            4.59442281364267       -0.68847275644118       -0.38225386480067
C            1.93043682245265        0.08104698255926        0.01276682840873
C            0.61109602556833        0.42283739947062        0.21452110929766
C           -2.29645777637972        1.54802764393960       -0.03027233944437
C           -1.90894470889207        2.37917380969880       -1.09298772499979
C           -1.21966071819188        1.82579916078089       -2.30918874766541
C           -2.17630895324678        3.74039143039635       -1.05800452912000
C           -2.82207413674246        4.32457642605154        0.01964823230214
C           -3.11768239775942        5.79360463100572        0.05320461186017
C           -3.21076869284520        3.50309246146177        1.06981202164290
C           -2.96711212584701        2.13955025372495        1.05669490763943
C           -3.39610968177415        1.31526857744078        2.23572056464426
C           -2.74261795921356       -2.13396943823255        1.15544142839163
C           -1.54134191520939       -2.09289968112880        2.05865556627152
C           -3.63514684616522       -3.18344224519223        1.30542717235095
H           -5.18480847156023       -5.37199552877115        0.78244870303020
H           -6.29774481756606       -4.29574253476871        1.62079100029299
H           -6.42403573162390       -4.49468731730743       -0.12911237500810
H           -5.89045142437033       -2.35542524288495       -1.04313360276897
H           -5.43768197909105       -0.36457138627044       -2.05299489727323
H           -4.39613287190719        0.80194176413100       -1.22523229492804
H           -3.72277431835325       -0.26256483420424       -2.45135784176003
H           -0.88019213979913       -2.16619417393642       -1.35572630476139
H            1.47986508560087       -2.76851989117679       -1.75469827733396
H            8.47211218407245       -1.40171517754137       -0.95307375180319
H           10.30163524081720       -0.06939538597623        0.05457571327033
H            9.76553199136034        1.81758896664293        1.55004865770506
H            7.41363460699400        2.37693079356725        2.04102645842275
H            5.59207059166445        1.03939281223496        1.02611807918245
H            2.73152748250865        0.69786667446708        0.38936669262259
H            0.37338660376801        1.32479154046024        0.76001859651987
H           -1.44637573745877        0.77385357027035       -2.45268130107338
H           -0.13875855549414        1.92687235814131       -2.20573690168642
H           -1.52175660687791        2.37598800706696       -3.19879114465944
H           -1.87347874906326        4.35673020387928       -1.89400421959350
H           -2.80542959481063        6.22557960074229        1.00297245991290
H           -4.18978589596664        5.96309067369867       -0.05213292642696
H           -2.60680845171498        6.31314270193447       -0.75403451156321
H           -3.72095383185169        3.94127267193328        1.91715230148301
H           -3.97103731656377        0.45124084225601        1.91184170772529
H           -4.00332876811656        1.90703587886717        2.91702778078541
H           -2.52780170718149        0.94978426756176        2.78248932167675
H           -0.73365634665195       -2.68949008024495        1.63309961961908
H           -1.17644792366484       -1.07924404836161        2.19197098675546
H           -1.78607011007149       -2.51116571892314        3.03349890292705
H           -3.43941791202882       -3.94001809585919        2.05364000599045

          :  Hamiltonian                  GFN2-xTB          :
         :: gradient norm              0.000026030349 Eh/a0 ::
         :: HOMO-LUMO gap              1.575627581201 eV    ::
         :: SCC energy              -102.797276770722 Eh    ::
         :: -> dispersion             -0.086917427326 Eh    ::
         :: -> Gsolv                  -0.048297141618 Eh    ::
         :: repulsion energy           1.698877501290 Eh    ::

    * Orbital Energies and Occupations

         #    Occupation            Energy/Eh            Energy/eV
      -------------------------------------------------------------
         1        2.0000           -1.0820127             -29.4431
       ...           ...                  ...                  ...
        82        2.0000           -0.4219191             -11.4810
        83        2.0000           -0.4186691             -11.3926
        84        2.0000           -0.4167389             -11.3400
        85        2.0000           -0.4135043             -11.2520
        86        2.0000           -0.4111820             -11.1888
        87        2.0000           -0.4052455             -11.0273
        88        2.0000           -0.4025869             -10.9549
        89        2.0000           -0.4008390             -10.9074
        90        2.0000           -0.3938563             -10.7174
        91        2.0000           -0.3812155             -10.3734
        92        2.0000           -0.3808249             -10.3628
        93        2.0000           -0.3754611             -10.2168
        94        2.0000           -0.3696512             -10.0587 (HOMO)
        95                         -0.3117479              -8.4831 (LUMO)
        96                         -0.2978662              -8.1054
        97                         -0.2668881              -7.2624
        98                         -0.2395318              -6.5180
        99                         -0.2355520              -6.4097
       100                         -0.2323348              -6.3222
       101                         -0.2122667              -5.7761
       102                         -0.2097771              -5.7083
       103                         -0.2072847              -5.6405
       104                         -0.2067328              -5.6255
       105                         -0.1755333              -4.7765
       ...                                ...                  ...
       188                          0.6637699              18.0621
      -------------------------------------------------------------
                  HL-Gap            0.0579033 Eh            1.5756 eV

     #   Z          covCN         q      C6AA      α(0)
     1   6 C        3.757    -0.108    22.613     6.780
     2   6 C        2.962     0.013    27.723     8.636
     3   6 C        2.928    -0.057    29.419     8.895
     4   6 C        2.966     0.013    27.722     8.636
     5   6 C        3.758    -0.114    22.736     6.798
     6   6 C        2.889    -0.082    30.056     8.988
     7   5 B        2.709     0.252    17.678     7.051
     8   6 C        2.884    -0.041    29.010     8.830
     9   6 C        2.921    -0.024    28.611     8.772
    10   6 C        2.918    -0.025    28.623     8.773
    11   6 C        2.984    -0.009    28.230     8.716
    12   6 C        2.997     0.218    23.404     7.936
    13   7 N        1.906    -0.316    29.048     7.991
    14   6 C        2.930     0.303    21.865     7.668
    15  17 Cl       1.028    -0.155   104.012    15.603
    16   7 N        1.905    -0.317    29.072     7.994
    17   6 C        2.998     0.218    23.401     7.935
    18   6 C        2.983    -0.007    28.197     8.710
    19   6 C        2.923    -0.023    28.568     8.765
    20   6 C        2.917    -0.024    28.609     8.771
    21   6 C        2.920    -0.018    28.446     8.746
    22   6 C        2.917    -0.024    28.612     8.772
    23   6 C        2.923    -0.023    28.578     8.767
    24   7 N        1.844    -0.305    28.747     7.946
    25   6 C        2.918    -0.025    28.633     8.775
    26   6 C        2.921    -0.025    28.619     8.773
    27   6 C        2.890    -0.082    30.053     8.988
    28   6 C        2.966     0.012    27.739     8.639
    29   6 C        3.758    -0.112    22.688     6.791
    30   6 C        2.929    -0.057    29.417     8.895
    31   6 C        2.963     0.013    27.724     8.637
    32   6 C        3.757    -0.108    22.616     6.780
    33   6 C        2.929    -0.058    29.433     8.897
    34   6 C        2.966     0.013    27.724     8.637
    35   6 C        3.758    -0.114    22.740     6.799
    36   6 C        2.966     0.012    27.738     8.639
    37   6 C        3.759    -0.112    22.695     6.792
    38   6 C        2.929    -0.058    29.432     8.897
    39   1 H        0.925     0.043     2.409     2.427
    40   1 H        0.924     0.046     2.365     2.405
    41   1 H        0.925     0.040     2.449     2.447
    42   1 H        0.925     0.024     2.667     2.554
    43   1 H        0.925     0.040     2.451     2.448
    44   1 H        0.925     0.053     2.285     2.364
    45   1 H        0.925     0.042     2.420     2.433
    46   1 H        0.926     0.046     2.376     2.411
    47   1 H        0.926     0.048     2.345     2.395
    48   1 H        0.926     0.056     2.252     2.347
    49   1 H        0.926     0.054     2.270     2.356
    50   1 H        0.926     0.058     2.224     2.332
    51   1 H        0.926     0.056     2.245     2.343
    52   1 H        0.926     0.058     2.225     2.332
    53   1 H        0.926     0.050     2.317     2.380
    54   1 H        0.926     0.048     2.348     2.396
    55   1 H        0.925     0.041     2.441     2.443
    56   1 H        0.924     0.042     2.425     2.435
    57   1 H        0.925     0.044     2.398     2.422
    58   1 H        0.925     0.024     2.672     2.556
    59   1 H        0.925     0.044     2.396     2.420
    60   1 H        0.924     0.046     2.370     2.408
    61   1 H        0.925     0.040     2.455     2.450
    62   1 H        0.925     0.026     2.649     2.545
    63   1 H        0.925     0.052     2.292     2.367
    64   1 H        0.925     0.040     2.447     2.446
    65   1 H        0.925     0.042     2.416     2.431
    66   1 H        0.924     0.042     2.428     2.437
    67   1 H        0.925     0.042     2.426     2.436
    68   1 H        0.925     0.044     2.394     2.420
    69   1 H        0.925     0.025     2.659     2.550

molecular dipole:
                 x           y           z       tot (Debye)
 q only:       -1.176       1.965       1.418
   full:       -0.948       1.690       1.235       5.839

 projected vibrational frequencies (cm⁻¹)
eigval :       -0.00    -0.00     0.00     0.00     0.00     0.00
eigval :       12.50    17.23    23.67    28.55    30.33    32.81
eigval :       39.66    45.87    50.75    51.82    61.71    81.47
eigval :       82.14    86.52    89.26   100.26   103.82   112.93
eigval :      121.80   131.05   141.46   148.18   151.93   164.00
eigval :      180.96   182.13   189.46   198.71   203.49   206.21
eigval :      239.24   269.89   274.41   276.51   284.71   308.40
eigval :      320.45   325.08   328.42   335.63   358.24   365.23
eigval :      385.37   413.66   439.53   445.06   466.40   482.51
eigval :      491.28   497.28   498.68   506.93   510.32   522.94
eigval :      530.37   538.23   559.78   587.11   589.33   598.23
eigval :      599.03   603.91   608.95   618.12   635.46   650.92
eigval :      665.98   680.68   683.07   698.87   750.30   784.68
eigval :      815.97   818.70   833.97   842.83   844.95   871.70
eigval :      874.64   879.83   890.91   892.99   896.59   912.75
eigval :      927.33   932.25   935.02   936.53   963.55   964.01
eigval :      975.15   975.66   979.37  1008.04  1019.70  1021.31
eigval :     1027.14  1028.19  1030.11  1030.84  1032.00  1032.70
eigval :     1038.60  1039.99  1040.19  1044.40  1045.25  1073.62
eigval :     1090.59  1101.03  1111.55  1127.62  1159.48  1163.41
eigval :     1178.26  1186.50  1187.94  1195.20  1209.18  1222.54
eigval :     1229.49  1234.13  1235.75  1252.49  1265.02  1274.16
eigval :     1304.23  1306.23  1317.10  1329.55  1329.76  1333.25
eigval :     1372.10  1381.07  1389.86  1400.90  1401.17  1401.45
eigval :     1401.50  1402.37  1405.87  1425.07  1426.77  1427.66
eigval :     1448.56  1451.38  1459.35  1462.30  1474.04  1476.08
eigval :     1478.94  1479.36  1480.07  1480.77  1481.46  1482.26
eigval :     1483.22  1485.16  1486.13  1491.79  1494.03  1539.46
eigval :     1554.34  1556.83  1557.58  1577.54  1584.80  1593.51
eigval :     1597.35  1599.75  2992.09  2993.49  2993.81  2994.57
eigval :     3005.82  3006.35  3016.43  3019.64  3021.11  3022.04
eigval :     3033.43  3034.03  3037.64  3038.18  3041.49  3043.43
eigval :     3054.82  3055.94  3056.63  3057.23  3059.76  3060.36
eigval :     3076.10  3077.72  3082.28  3088.04  3096.03  3096.19
eigval :     3100.94  3105.61  3109.30

   temp. (K)  partition function   enthalpy   heat capacity  entropy
                                   cal/mol     cal/K/mol   cal/K/mol   J/K/mol
 298.15  VIB  0.110E+19            21897.843    125.859    140.701
         ROT  0.597E+08              888.752      2.981     38.561
         INT  0.656E+26            22786.595    128.840    179.262
         TR   0.113E+29             1481.254      4.968     44.588
         TOT                       24267.8488   133.8082   223.8506   936.5909

       T/K    H(0)-H(T)+PV         H(T)/Eh          T*S/Eh         G(T)/Eh
   ------------------------------------------------------------------------
    298.15    0.386733E-01    0.581295E+00    0.106359E+00    0.474937E+00
   ------------------------------------------------------------------------

         :::::::::::::::::::::::::::::::::::::::::::::::::::::
         ::                  THERMODYNAMIC                  ::
         :::::::::::::::::::::::::::::::::::::::::::::::::::::
         :: total free energy        -100.623462586079 Eh   ::
         ::.................................................::
         :: total energy             -101.098399273712 Eh   ::
         :: zero point energy           0.542622050214 Eh   ::
         :: G(RRHO) w/o ZPVE           -0.067685362581 Eh   ::
         :: G(RRHO) contrib.            0.474936687633 Eh   ::
         :::::::::::::::::::::::::::::::::::::::::::::::::::::

           -------------------------------------------------
          | TOTAL ENERGY             -101.098399273712 Eh   |
          | TOTAL ENTHALPY           -100.517103944715 Eh   |
          | TOTAL FREE ENERGY        -100.623462586079 Eh   |
          | GRADIENT NORM               0.000026026799 Eh/α |
          | HOMO-LUMO GAP               1.575629144972 eV   |
           -------------------------------------------------

 * finished run on 2025/08/29 at 20:31:06.101
