   * xtb version 6.7.1 (edcfbbe) compiled by 'albert@albert-system' on 2024-07-22

   ID    Z sym.   atoms
    1    6 C      1-6, 8-12, 14, 17-23, 25-38
    2    5 B      7
    3    7 N      13, 16, 24
    4   17 Cl     15
    5    1 H      39-69

          program call               : xtb data2507/toluene/PX-TRZ/PX-TRZ_toluene_S0_crest.xyz --gfn 2 --gbsa toluene --ohess vtight --parallel 40 --molden --ceasefiles --namespace data2507/toluene/PX-TRZ/PX-TRZ_toluene_S0_finalOpt
      * Solvation model:               GBSA
        Solvent                        toluene
        Solvent mass                       9.2140E+01 g/mol
          :  Hamiltonian                  GFN2-xTB          :
 * total energy  :  -101.0981952 Eh     change       -0.7470618E-08 Eh
 * total energy  :  -101.0982933 Eh     change       -0.9806020E-04 Eh
 * total energy  :  -101.0983437 Eh     change       -0.5045891E-04 Eh
 * total energy  :  -101.0983554 Eh     change       -0.1172213E-04 Eh
 * total energy  :  -101.0983630 Eh     change       -0.7589386E-05 Eh
 * total energy  :  -101.0983717 Eh     change       -0.8625698E-05 Eh
 * total energy  :  -101.0983815 Eh     change       -0.9788230E-05 Eh
 * total energy  :  -101.0983883 Eh     change       -0.6863809E-05 Eh
 * total energy  :  -101.0983915 Eh     change       -0.3194454E-05 Eh
 * total energy  :  -101.0983932 Eh     change       -0.1705890E-05 Eh
 * total energy  :  -101.0984169 Eh     change       -0.3660753E-06 Eh
 * total energy  :  -101.0984174 Eh     change       -0.5014402E-06 Eh
 * total energy  :  -101.0984180 Eh     change       -0.5193660E-06 Eh
 * total energy  :  -101.0984184 Eh     change       -0.3852078E-06 Eh
 * total energy  :  -101.0984187 Eh     change       -0.3853576E-06 Eh
 * total energy  :  -101.0984191 Eh     change       -0.4040432E-06 Eh
 * total energy  :  -101.0984195 Eh     change       -0.3707420E-06 Eh
 * total energy  :  -101.0984197 Eh     change       -0.1957479E-06 Eh
 * total energy  :  -101.0984197 Eh     change       -0.2291593E-07 Eh
   *** GEOMETRY OPTIMIZATION CONVERGED AFTER 37 ITERATIONS ***

 final structure:
================
69
 xtb: 6.7.1 (edcfbbe)
C           -6.25034318678865       -4.61354869879495        0.98391979202266
C           -5.39376853939516       -3.40705681069420        0.74455156935596
C           -5.61776214058088       -2.58621168610186       -0.35285292112545
C           -4.85441134941632       -1.45326988842340       -0.58284592020237
C           -5.13597348692059       -0.62477839368849       -1.80261924031742
C           -3.80903020535308       -1.11030947327764        0.29491175165438
B           -2.88320308512295        0.12119952545900        0.00537313185479
C           -1.33254598607013       -0.12772434383478       -0.05709586554317
C           -0.81100752397581       -1.34090074901873       -0.52460906023224
C            0.54681790788047       -1.56615903086430       -0.59143968124085
C            1.44151796491202       -0.57709206975398       -0.17323752471879
C            2.87335295666846       -0.80791348509261       -0.23442060815860
N            3.30097385109495       -2.00401577549809       -0.67315252657396
C            4.60276655060990       -2.13856680281073       -0.69832964528215
Cl           5.20038851763662       -3.65415919154329       -1.24632170104456
N            5.50463778074590       -1.25181952805965       -0.35509969883089
C            4.99859458043787       -0.08254537593766        0.06904156756698
C            5.93515834441217        0.95984861136603        0.46630774791831
C            7.30949451693081        0.71494999006664        0.44525025606249
C            8.19297319889420        1.70739860388403        0.82314970209032
C            7.71727482033732        2.94801717353205        1.22209971246552
C            6.35275386737830        3.19718448278410        1.24426191753461
C            5.46224206290070        2.21020218253543        0.86958758566564
N            3.69754889980077        0.16470352496474        0.14210537006314
C            0.94069808565054        0.63758572731068        0.30401337883888
C           -0.41938274595525        0.85284261083623        0.35131117731292
C           -3.40666069976388        1.58018233651605       -0.22760734423484
C           -3.01900735212026        2.31806776610713       -1.35655817729873
C           -2.16179430221827        1.71646869645610       -2.43546195862631
C           -3.44513512650250        3.62859303073465       -1.52448042007336
C           -4.25451686879514        4.25284991321084       -0.58998285227940
C           -4.71609975946859        5.66731862010822       -0.77087567745021
C           -4.64230815914212        3.52313025606988        0.52676293553828
C           -4.24149530194137        2.21099655567591        0.71478327982663
C           -4.68150825094229        1.49048821328357        1.95598933124675
C           -3.58699162548938       -1.93885696495606        1.40563451296108
C           -2.51429574012304       -1.63185575191493        2.41346667799611
C           -4.37516357762920       -3.06110607840662        1.61782442132017
H           -5.77514861090295       -5.29602610461167        1.68487144373235
H           -7.21252441681400       -4.31179309198880        1.40013264734556
H           -6.44208193463808       -5.14141902258496        0.05135794489872
H           -6.41135380475025       -2.83831208274536       -1.04351677159240
H           -6.04425751181209       -0.96387543748955       -2.29570529910049
H           -5.24953517817869        0.42348242696613       -1.53757503193007
H           -4.31354506747560       -0.70026569780803       -2.51285590693102
H           -1.49366996012938       -2.11550962768790       -0.84353670502933
H            0.94161617000042       -2.50206500876029       -0.95658777084052
H            7.65986420812764       -0.25623627931858        0.13182742172516
H            9.25516466802149        1.51472397158835        0.80700317231019
H            8.41091477658809        3.72174411407413        1.51562479084968
H            5.98446300677461        4.16325367812788        1.55494289360898
H            4.39805970337738        2.38458314028033        0.87891381165090
H            1.63811700421219        1.39597312243025        0.62423101784786
H           -0.79573704355931        1.79792071834645        0.71562907865924
H           -2.17484685108989        0.63178024578259       -2.39917522076822
H           -1.12911583732417        2.04795095388175       -2.32139181994791
H           -2.50805527997829        2.04007132960823       -3.41592926388652
H           -3.13783870367518        4.17038534488255       -2.40909674315369
H           -4.29834169396996        6.10156112619174       -1.67601478245202
H           -4.41491819004776        6.27721352095108        0.08044322867680
H           -5.80347725134013        5.70456900843023       -0.83700436126877
H           -5.27835255252780        3.99318648320774        1.26486664820278
H           -5.12250914014392        0.52854691156986        1.70671063838555
H           -5.41203995022408        2.08136268684337        2.50395981561306
H           -3.83141008810735        1.30555760047968        2.61139204603466
H           -2.86556692477385       -1.85653851967659        3.41943490014684
H           -1.63533912616652       -2.24874246763721        2.22264346455784
H           -2.21187608615872       -0.59029951244127        2.37082277477917
H           -4.18697815768932       -3.67847581522701        2.48616605451206

          :  Hamiltonian                  GFN2-xTB          :
         :: gradient norm              0.000118797121 Eh/a0 ::
         :: HOMO-LUMO gap              1.568498619636 eV    ::
         :: SCC energy              -102.797164372947 Eh    ::
         :: -> dispersion             -0.086886123367 Eh    ::
         :: -> Gsolv                  -0.048279649905 Eh    ::
         :: repulsion energy           1.698744640909 Eh    ::

    * Orbital Energies and Occupations

         #    Occupation            Energy/Eh            Energy/eV
      -------------------------------------------------------------
         1        2.0000           -1.0820168             -29.4432
       ...           ...                  ...                  ...
        82        2.0000           -0.4219470             -11.4818
        83        2.0000           -0.4184213             -11.3858
        84        2.0000           -0.4168101             -11.3420
        85        2.0000           -0.4132976             -11.2464
        86        2.0000           -0.4111288             -11.1874
        87        2.0000           -0.4052439             -11.0272
        88        2.0000           -0.4024820             -10.9521
        89        2.0000           -0.4008926             -10.9088
        90        2.0000           -0.3938237             -10.7165
        91        2.0000           -0.3809151             -10.3652
        92        2.0000           -0.3804975             -10.3539
        93        2.0000           -0.3751484             -10.2083
        94        2.0000           -0.3696387             -10.0584 (HOMO)
        95                         -0.3119976              -8.4899 (LUMO)
        96                         -0.2980502              -8.1104
        97                         -0.2667348              -7.2582
        98                         -0.2395465              -6.5184
        99                         -0.2351994              -6.4001
       100                         -0.2323201              -6.3218
       101                         -0.2119467              -5.7674
       102                         -0.2094173              -5.6985
       103                         -0.2073975              -5.6436
       104                         -0.2066282              -5.6226
       105                         -0.1757511              -4.7824
       ...                                ...                  ...
       188                          0.6637987              18.0629
      -------------------------------------------------------------
                  HL-Gap            0.0576411 Eh            1.5685 eV

     #   Z          covCN         q      C6AA      α(0)
     1   6 C        3.757    -0.108    22.611     6.779
     2   6 C        2.963     0.012    27.735     8.638
     3   6 C        2.929    -0.058    29.432     8.897
     4   6 C        2.966     0.013    27.733     8.638
     5   6 C        3.758    -0.114    22.739     6.798
     6   6 C        2.889    -0.082    30.061     8.989
     7   5 B        2.709     0.252    17.677     7.051
     8   6 C        2.884    -0.042    29.033     8.834
     9   6 C        2.921    -0.024    28.609     8.771
    10   6 C        2.918    -0.025    28.620     8.773
    11   6 C        2.984    -0.008    28.221     8.714
    12   6 C        2.997     0.218    23.405     7.936
    13   7 N        1.905    -0.316    29.042     7.990
    14   6 C        2.929     0.303    21.866     7.669
    15  17 Cl       1.028    -0.155   104.007    15.603
    16   7 N        1.906    -0.317    29.065     7.993
    17   6 C        2.998     0.218    23.402     7.936
    18   6 C        2.983    -0.007    28.196     8.710
    19   6 C        2.923    -0.022    28.567     8.765
    20   6 C        2.917    -0.024    28.608     8.771
    21   6 C        2.920    -0.017    28.446     8.746
    22   6 C        2.917    -0.024    28.612     8.772
    23   6 C        2.923    -0.023    28.577     8.767
    24   7 N        1.844    -0.304    28.740     7.945
    25   6 C        2.918    -0.025    28.630     8.774
    26   6 C        2.921    -0.024    28.614     8.772
    27   6 C        2.889    -0.082    30.056     8.988
    28   6 C        2.966     0.012    27.737     8.639
    29   6 C        3.759    -0.112    22.694     6.792
    30   6 C        2.929    -0.057    29.422     8.895
    31   6 C        2.962     0.013    27.725     8.637
    32   6 C        3.757    -0.108    22.616     6.780
    33   6 C        2.929    -0.058    29.433     8.897
    34   6 C        2.966     0.013    27.723     8.636
    35   6 C        3.759    -0.115    22.746     6.799
    36   6 C        2.966     0.012    27.745     8.640
    37   6 C        3.759    -0.112    22.691     6.791
    38   6 C        2.929    -0.057    29.427     8.896
    39   1 H        0.925     0.040     2.452     2.449
    40   1 H        0.924     0.046     2.366     2.406
    41   1 H        0.925     0.043     2.415     2.430
    42   1 H        0.925     0.025     2.661     2.551
    43   1 H        0.925     0.040     2.453     2.449
    44   1 H        0.925     0.052     2.289     2.366
    45   1 H        0.925     0.042     2.417     2.431
    46   1 H        0.926     0.046     2.369     2.407
    47   1 H        0.926     0.048     2.342     2.393
    48   1 H        0.926     0.056     2.251     2.346
    49   1 H        0.926     0.054     2.269     2.356
    50   1 H        0.926     0.058     2.224     2.332
    51   1 H        0.926     0.056     2.245     2.343
    52   1 H        0.926     0.058     2.224     2.332
    53   1 H        0.926     0.050     2.314     2.379
    54   1 H        0.926     0.048     2.339     2.391
    55   1 H        0.925     0.040     2.444     2.445
    56   1 H        0.924     0.042     2.417     2.431
    57   1 H        0.925     0.045     2.388     2.417
    58   1 H        0.925     0.024     2.669     2.555
    59   1 H        0.925     0.039     2.457     2.451
    60   1 H        0.925     0.045     2.385     2.415
    61   1 H        0.925     0.045     2.380     2.412
    62   1 H        0.925     0.026     2.651     2.546
    63   1 H        0.925     0.052     2.292     2.368
    64   1 H        0.925     0.040     2.450     2.448
    65   1 H        0.925     0.043     2.409     2.427
    66   1 H        0.925     0.045     2.388     2.417
    67   1 H        0.924     0.041     2.431     2.438
    68   1 H        0.925     0.041     2.430     2.438
    69   1 H        0.925     0.024     2.674     2.557

molecular dipole:
                 x           y           z       tot (Debye)
 q only:       -1.448       2.129       0.755
   full:       -1.190       1.846       0.661       5.830

 projected vibrational frequencies (cm⁻¹)
eigval :       -0.00    -0.00    -0.00    -0.00     0.00     0.00
eigval :        9.63    11.87    19.37    23.02    28.01    28.84
eigval :       31.77    33.94    35.12    40.41    46.56    58.79
eigval :       60.58    73.07    83.14    89.83   100.28   107.51
eigval :      117.38   122.89   140.37   148.42   152.43   163.33
eigval :      181.83   182.93   191.28   197.66   203.13   207.68
eigval :      242.28   267.64   273.34   276.76   282.42   309.08
eigval :      320.87   324.97   329.77   337.91   358.43   364.37
eigval :      385.87   412.97   439.32   444.45   464.48   480.77
eigval :      490.44   496.87   498.42   505.78   510.14   522.17
eigval :      530.36   536.42   559.69   586.62   588.79   598.21
eigval :      599.46   604.38   609.62   618.18   634.76   650.80
eigval :      666.90   679.93   683.12   697.91   751.74   785.91
eigval :      815.98   818.06   833.95   843.10   844.75   871.95
eigval :      877.92   879.57   891.46   892.53   896.46   917.04
eigval :      928.22   935.42   935.97   936.71   963.17   964.05
eigval :      973.87   974.35   979.36  1008.02  1019.55  1021.10
eigval :     1025.98  1027.87  1029.70  1030.69  1031.25  1031.64
eigval :     1038.48  1040.07  1040.16  1043.48  1044.09  1073.98
eigval :     1091.02  1101.00  1110.48  1127.89  1159.58  1163.07
eigval :     1175.39  1185.60  1187.57  1195.33  1209.16  1221.98
eigval :     1229.23  1233.62  1234.31  1252.70  1264.85  1274.40
eigval :     1302.49  1304.37  1317.81  1329.49  1331.71  1334.91
eigval :     1372.08  1380.75  1390.09  1399.72  1399.99  1400.27
eigval :     1401.74  1402.27  1405.40  1424.39  1426.20  1427.26
eigval :     1448.28  1450.81  1459.31  1461.97  1472.76  1475.64
eigval :     1478.29  1478.70  1478.89  1479.74  1480.99  1481.75
eigval :     1483.37  1483.97  1484.96  1490.70  1492.53  1539.51
eigval :     1554.64  1557.66  1557.96  1577.33  1584.92  1593.49
eigval :     1597.45  1599.78  2990.40  2992.51  2992.78  2997.90
eigval :     3006.59  3006.94  3011.62  3016.91  3018.27  3022.06
eigval :     3033.31  3033.86  3035.10  3038.18  3040.39  3041.01
eigval :     3055.46  3055.85  3057.05  3059.05  3059.13  3059.81
eigval :     3076.68  3078.36  3082.53  3088.05  3096.18  3097.51
eigval :     3101.38  3105.67  3110.18

   temp. (K)  partition function   enthalpy   heat capacity  entropy
                                   cal/mol     cal/K/mol   cal/K/mol   J/K/mol
 298.15  VIB  0.338E+20            22132.574    124.012    143.478
         ROT  0.597E+08              888.752      2.981     38.562
         INT  0.201E+28            23021.326    126.993    182.040
         TR   0.113E+29             1481.254      4.968     44.588
         TOT                       24502.5801   131.9609   226.6283   948.2127

       T/K    H(0)-H(T)+PV         H(T)/Eh          T*S/Eh         G(T)/Eh
   ------------------------------------------------------------------------
    298.15    0.390473E-01    0.581177E+00    0.107678E+00    0.473499E+00
   ------------------------------------------------------------------------

         :::::::::::::::::::::::::::::::::::::::::::::::::::::
         ::                  THERMODYNAMIC                  ::
         :::::::::::::::::::::::::::::::::::::::::::::::::::::
         :: total free energy        -100.624920810709 Eh   ::
         ::.................................................::
         :: total energy             -101.098419731059 Eh   ::
         :: zero point energy           0.542129984895 Eh   ::
         :: G(RRHO) w/o ZPVE           -0.068631064545 Eh   ::
         :: G(RRHO) contrib.            0.473498920350 Eh   ::
         :::::::::::::::::::::::::::::::::::::::::::::::::::::

           -------------------------------------------------
          | TOTAL ENERGY             -101.098419731059 Eh   |
          | TOTAL ENTHALPY           -100.517242399346 Eh   |
          | TOTAL FREE ENERGY        -100.624920810709 Eh   |
          | GRADIENT NORM               0.000118883770 Eh/α |
          | HOMO-LUMO GAP               1.568493855104 eV   |
           -------------------------------------------------

 * finished run on 2025/08/29 at 20:34:19.230
