   * xtb version 6.7.1 (edcfbbe) compiled by 'albert@albert-system' on 2024-07-22

   ID    Z sym.   atoms
    1    6 C      1-9, 11-16, 18-23, 25-34, 36-39, 41-57, 59-64, 66-80, 82-87
    2    7 N      10, 40
    3    8 O      17, 58, 65, 81
    4    5 B      24, 35
    5    1 H      88-141

          program call               : xtb data2507/gas/F2AcBO/F2AcBO.xyz --gfn 2 --ohess vtight --parallel 40 --molden --ceasefiles --namespace data2507/gas/F2AcBO/F2AcBO_gas_S0_preOpt
          :  Hamiltonian                  GFN2-xTB          :
 * total energy  :  -221.3132755 Eh     change       -0.1265170E-07 Eh
 * total energy  :  -221.3886529 Eh     change       -0.7537737E-01 Eh
 * total energy  :  -221.4201977 Eh     change       -0.3154479E-01 Eh
 * total energy  :  -221.4327027 Eh     change       -0.1250501E-01 Eh
 * total energy  :  -221.4398003 Eh     change       -0.7097601E-02 Eh
 * total energy  :  -221.4444187 Eh     change       -0.4618383E-02 Eh
 * total energy  :  -221.4481103 Eh     change       -0.3691651E-02 Eh
 * total energy  :  -221.4513344 Eh     change       -0.3224026E-02 Eh
 * total energy  :  -221.4540873 Eh     change       -0.2752930E-02 Eh
 * total energy  :  -221.4562240 Eh     change       -0.2136727E-02 Eh
 * total energy  :  -221.4670521 Eh     change       -0.7683287E-06 Eh
 * total energy  :  -221.4670529 Eh     change       -0.7972048E-06 Eh
 * total energy  :  -221.4670538 Eh     change       -0.9284677E-06 Eh
 * total energy  :  -221.4670548 Eh     change       -0.9932200E-06 Eh
 * total energy  :  -221.4670559 Eh     change       -0.1100477E-05 Eh
 * total energy  :  -221.4670571 Eh     change       -0.1247032E-05 Eh
 * total energy  :  -221.4670586 Eh     change       -0.1472357E-05 Eh
 * total energy  :  -221.4670603 Eh     change       -0.1678048E-05 Eh
 * total energy  :  -221.4670603 Eh     change       -0.7363099E-08 Eh
   *** GEOMETRY OPTIMIZATION CONVERGED AFTER 260 ITERATIONS ***

 final structure:
================
141
 xtb: 6.7.1 (edcfbbe)
C           -9.65930364924277        5.43706257597555       -0.12392525323550
C          -10.05518341022126        3.94967379497099       -0.16585561181331
C          -11.55998442261659        3.80616279988988       -0.45809081906170
C           -9.28086823425349        3.26892183549483       -1.27813625807200
C           -9.43073268176063        3.71596617262058       -2.58386635321909
C           -8.77461588604906        3.12023293344840       -3.64469434484566
C           -7.95472960828286        2.03261126320190       -3.40513359588528
C           -7.78888602819683        1.56692719320669       -2.11801802903576
C           -8.42984435555479        2.18457353062449       -1.03955226802621
N           -8.23579969888933        1.70100009215136        0.24593449073787
C           -7.37571890003222        0.59012201251367        0.43844447374513
C           -5.99269801605455        0.74052191504970        0.32320109425370
C           -5.16989193179350       -0.34878753072889        0.48892944594823
C           -5.65810668460940       -1.63140938160090        0.77953896314408
C           -7.05425468209788       -1.74424899200836        0.93572253776793
C           -7.90010753485810       -0.64876965258539        0.74946133222224
O           -7.70445850359635       -2.88924738767387        1.27154528933117
C           -7.04375205341317       -4.04197168205666        1.53263243872036
C           -7.79940119404113       -5.13467600058180        1.94209610846984
C           -7.16130699951057       -6.33167913050098        2.21632371397503
C           -5.79074560565906       -6.46095880351252        2.08151375935698
C           -5.04215080348568       -5.36624641172390        1.66149033011976
C           -5.65140365214547       -4.13195736627247        1.38599520372175
B           -4.82812446340181       -2.92859049298851        0.94184810385303
C           -3.33397139007715       -3.25804790725463        0.71624970584262
C           -2.36830666272034       -2.39300487223783        0.18861239673322
C           -1.05162365931652       -2.75743348372816       -0.00359228504041
C           -0.04137029276247       -1.76114758406637       -0.53817902264768
C            0.94797517105401       -2.39585095515160       -1.49412696293089
C            0.53122238238134       -3.36496176325735       -2.40837148148024
C            1.42198167674496       -3.88878825872679       -3.31505627903287
C            2.75529517466869       -3.47033452724124       -3.31978232923750
C            3.21622422400809       -2.51532791599431       -2.39473350621212
C            2.26366036754819       -1.98112170087040       -1.51954026275087
B            4.71933642796981       -2.15873423132448       -2.43404524059175
C            5.62167841750723       -1.29994708574551       -1.51488198636077
C            5.26304407921296       -0.71797005214844       -0.29021938224735
C            6.12992675180220        0.05618669023252        0.44573672561077
C            7.42451464235796        0.28238272333691       -0.02312594483263
N            8.32550460171371        1.09080750052167        0.71920568843755
C            8.55540008092463        2.39346132992579        0.30631848826119
C            7.85249207962718        2.90596610750970       -0.78808983032363
C            8.06516011301799        4.19565119743143       -1.22686933266802
C            8.98132149756654        5.00239117637044       -0.57667944923356
C            9.66214582556991        4.50438278754590        0.51869057377398
C            9.46597423497660        3.21119178761770        0.98349310489046
C           10.22707183224244        2.73350864304100        2.20565470236385
C           11.73600617758954        2.80674561500349        1.90898377334950
C            9.87208002082252        3.64748599389227        3.39277085613850
C            9.87458132684914        1.30340563155793        2.56872323488063
C           10.47984608636288        0.70870881633150        3.66721473437100
C           10.21382956284108       -0.59715669454328        4.03524429937669
C            9.32559359465588       -1.34355306527961        3.28244927265333
C            8.71005859747291       -0.77800829760449        2.18590200031098
C            8.96410381842091        0.54786759508131        1.82237556531613
C            7.83160386543706       -0.29534739649009       -1.20890078975580
C            6.94703164763243       -1.08726802051342       -1.94418083838404
O            7.48899323145257       -1.61895743383743       -3.07131757522922
C            6.80664976407370       -2.48557587937750       -3.85735408979006
C            7.48672272487920       -3.05413070963476       -4.92819424357747
C            6.82340485495498       -3.94872554302372       -5.74994505989244
C            5.49937905851867       -4.28228210335560       -5.52773915907869
C            4.82151709458971       -3.70099177463311       -4.46111602710343
C            5.46158998748983       -2.79256714382672       -3.60364344170231
O            3.52789828602770       -4.05144249431830       -4.27737811506708
C           -0.69529012152987       -0.57809028045518       -1.22627819869688
C           -1.45336841479451       -0.56397465124260       -2.37776388805157
C           -1.97991762629668        0.64458470578684       -2.81334300365859
C           -1.74444436142046        1.81665257710694       -2.11072288965087
C           -0.97104950071421        1.81086809455222       -0.96116101003610
C           -0.44530397045718        0.60728801422764       -0.52088334297508
C            0.38155179194136        0.29387285316238        0.63338680953118
C            0.91400708896373        1.11111138831891        1.61689707678223
C            1.69906660669459        0.53745242926808        2.60385635248893
C            1.94171587923390       -0.82775534995087        2.61291779557023
C            1.40587485494179       -1.65203329881467        1.63239470365650
C            0.63258709495629       -1.08536569807580        0.64156120455408
C           -0.65010472975329       -4.04231242933251        0.36633085282585
C           -1.56441457365025       -4.93063655001907        0.88031616642792
C           -2.90066029207014       -4.55576066134419        1.04510418441537
O           -3.70710508097452       -5.53867346223933        1.52945706831277
C           -8.86879304799599        2.26608704752771        1.34323778252662
C           -8.59309064457111        1.78503967706859        2.62678693453494
C           -9.21595736100018        2.31879471935771        3.73490974915492
C          -10.12291027122308        3.35215219156391        3.58498858756419
C          -10.37484731178291        3.84969063349315        2.32025711984317
C           -9.75931436200744        3.33347651858755        1.18798519054059
H           -8.59536696436065        5.53009644657512        0.08615147548500
H          -10.20879251634918        5.96418147388958        0.65098488434839
H           -9.86479519521906        5.92108985458424       -1.07465258806475
H          -12.15290481697422        4.29106506913347        0.31255219999800
H          -11.81425801618628        4.25314953236307       -1.41523279271956
H          -11.83163179337191        2.75258799294101       -0.48847529168114
H          -10.08125401605287        4.55344545404292       -2.78618954659020
H           -8.91125132971978        3.49598251122309       -4.64728354046863
H           -7.44483752325474        1.54038592167431       -4.21999281199515
H           -7.15816412376586        0.70898617080639       -1.94417832348087
H           -5.58259242159010        1.71392433234985        0.09933079087635
H           -4.10556097602796       -0.19996519202741        0.40694492887641
H           -8.96463877773264       -0.78406306201454        0.86485605550524
H           -8.86785957935306       -5.03247189183170        2.04320519834471
H           -7.74441958521505       -7.18087516827838        2.53889144709941
H           -5.29245682294454       -7.39410151627485        2.28985428336493
H           -2.67420328681663       -1.40151309873114       -0.09907372600847
H           -0.49399604281849       -3.70475288135855       -2.40606995510755
H            1.11154070379079       -4.62565645046410       -4.03991006874007
H            2.57239952371947       -1.20203722184340       -0.84250137161422
H            4.27353225375369       -0.89088146547220        0.10131091493304
H            5.82211703480755        0.49221323607371        1.38427666458360
H            7.12950302633435        2.28503443097650       -1.29440962135605
H            7.51187031784991        4.56851195937847       -2.07603108040337
H            9.16022899139935        6.01232709439111       -0.91296048610214
H           10.36628408344932        5.14856517770182        1.02348399171448
H           12.31711856849821        2.48652216598022        2.76940340281902
H           11.97945401581613        2.15784815286885        1.06970358602247
H           12.03300275352055        3.82077195233023        1.65575935111263
H           10.12562602129265        4.68159601407051        3.17660083915194
H           10.40778391559739        3.34642619677286        4.28877791138391
H            8.80417635626116        3.59114798828499        3.59564109154687
H           11.18384607518457        1.27626146735130        4.25700246313377
H           10.70121669267918       -1.02767369711731        4.89673126858005
H            9.11154195349765       -2.36904149964763        3.54484605471130
H            8.02530959600090       -1.36938996526662        1.59769279749232
H            8.83460108739761       -0.14690597442427       -1.57853854637329
H            8.51909491966387       -2.79486476034990       -5.09919847425267
H            7.34974606256807       -4.39524362050857       -6.57988832639324
H            4.98202255765547       -4.97904902107703       -6.16750041606345
H           -1.64373993303840       -1.47407217541449       -2.92687051562765
H           -2.58317138974512        0.67141485873291       -3.70869320576519
H           -2.16852152462985        2.74450300266142       -2.46584665876295
H           -0.78563418758012        2.72554041847418       -0.41798992290159
H            0.72626413336040        2.17441255828766        1.61224346039028
H            2.12801974105878        1.15988356010474        3.37553313009341
H            2.55753168599937       -1.25564917944557        3.39031021200247
H            1.60310214320890       -2.71356921494723        1.64401122173439
H            0.37636857818905       -4.34877529996121        0.22934983398972
H           -1.27421489074124       -5.93297936077293        1.15577851471302
H           -7.87739592448586        0.98785610203426        2.75488555762133
H           -8.98852284032094        1.92690556869525        4.71515632305815
H          -10.62204327649819        3.77470383745015        4.44365308799317
H          -11.07277696083696        4.66702375709807        2.21836084339933

          :  Hamiltonian                  GFN2-xTB          :
         :: gradient norm              0.000063018460 Eh/a0 ::
         :: HOMO-LUMO gap              1.711637480293 eV    ::
         :: SCC energy              -225.334192809142 Eh    ::
         :: -> dispersion             -0.213326850913 Eh    ::
         :: repulsion energy           3.867132525081 Eh    ::

    * Orbital Energies and Occupations

         #    Occupation            Energy/Eh            Energy/eV
      -------------------------------------------------------------
         1        2.0000           -0.7348965             -19.9976
       ...           ...                  ...                  ...
       193        2.0000           -0.3973747             -10.8131
       194        2.0000           -0.3943031             -10.7295
       195        2.0000           -0.3937394             -10.7142
       196        2.0000           -0.3931715             -10.6987
       197        2.0000           -0.3918429             -10.6626
       198        2.0000           -0.3906250             -10.6294
       199        2.0000           -0.3885988             -10.5743
       200        2.0000           -0.3881320             -10.5616
       201        2.0000           -0.3829446             -10.4205
       202        2.0000           -0.3729135             -10.1475
       203        2.0000           -0.3715932             -10.1116
       204        2.0000           -0.3426033              -9.3227
       205        2.0000           -0.3418505              -9.3022 (HOMO)
       206                         -0.2789490              -7.5906 (LUMO)
       207                         -0.2778517              -7.5607
       208                         -0.2553108              -6.9474
       209                         -0.2401207              -6.5340
       210                         -0.2395615              -6.5188
       211                         -0.2368380              -6.4447
       212                         -0.2356652              -6.4128
       213                         -0.2318733              -6.3096
       214                         -0.2304092              -6.2698
       215                         -0.2267473              -6.1701
       216                         -0.2236327              -6.0854
       ...                                ...                  ...
       402                          0.7258940              19.7526
      -------------------------------------------------------------
                  HL-Gap            0.0629014 Eh            1.7116 eV

     #   Z          covCN         q      C6AA      α(0)
     1   6 C        3.761    -0.103    22.514     6.764
     2   6 C        3.909     0.021    20.157     6.382
     3   6 C        3.761    -0.103    22.510     6.763
     4   6 C        2.980    -0.014    28.357     8.735
     5   6 C        2.928    -0.036    28.907     8.817
     6   6 C        2.917    -0.045    29.121     8.849
     7   6 C        2.920    -0.033    28.830     8.805
     8   6 C        2.924    -0.059    29.472     8.903
     9   6 C        2.928     0.058    26.691     8.473
    10   7 N        2.754    -0.068    22.567     7.055
    11   6 C        2.927     0.073    26.363     8.420
    12   6 C        2.916    -0.049    29.228     8.865
    13   6 C        2.924    -0.032    28.788     8.799
    14   6 C        2.882    -0.092    30.314     9.026
    15   6 C        2.876     0.140    24.945     8.188
    16   6 C        2.919    -0.064    29.590     8.920
    17   8 O        1.712    -0.218    17.625     5.668
    18   6 C        2.874     0.140    24.950     8.188
    19   6 C        2.913    -0.066    29.651     8.929
    20   6 C        2.923    -0.026    28.647     8.777
    21   6 C        2.913    -0.066    29.652     8.929
    22   6 C        2.875     0.140    24.939     8.186
    23   6 C        2.888    -0.120    31.045     9.135
    24   5 B        2.724     0.211    18.226     7.154
    25   6 C        2.883    -0.091    30.288     9.022
    26   6 C        2.929    -0.041    29.016     8.834
    27   6 C        2.974     0.008    27.832     8.654
    28   6 C        3.947     0.007    20.387     6.416
    29   6 C        2.974     0.008    27.831     8.654
    30   6 C        2.923    -0.031    28.766     8.795
    31   6 C        2.915    -0.054    29.341     8.882
    32   6 C        2.877     0.137    25.014     8.199
    33   6 C        2.883    -0.091    30.288     9.022
    34   6 C        2.929    -0.040    29.000     8.832
    35   5 B        2.724     0.211    18.221     7.152
    36   6 C        2.882    -0.092    30.303     9.025
    37   6 C        2.923    -0.032    28.789     8.799
    38   6 C        2.916    -0.049    29.220     8.864
    39   6 C        2.928     0.074    26.348     8.418
    40   7 N        2.755    -0.070    22.592     7.059
    41   6 C        2.928     0.058    26.691     8.473
    42   6 C        2.924    -0.059    29.465     8.902
    43   6 C        2.920    -0.033    28.825     8.804
    44   6 C        2.917    -0.045    29.123     8.850
    45   6 C        2.928    -0.036    28.907     8.817
    46   6 C        2.979    -0.014    28.365     8.736
    47   6 C        3.909     0.021    20.157     6.382
    48   6 C        3.761    -0.103    22.509     6.763
    49   6 C        3.761    -0.103    22.512     6.764
    50   6 C        2.979    -0.014    28.365     8.736
    51   6 C        2.928    -0.036    28.906     8.817
    52   6 C        2.917    -0.045    29.127     8.850
    53   6 C        2.920    -0.033    28.830     8.805
    54   6 C        2.924    -0.059    29.474     8.903
    55   6 C        2.928     0.059    26.688     8.472
    56   6 C        2.919    -0.063    29.569     8.917
    57   6 C        2.875     0.140    24.940     8.187
    58   8 O        1.712    -0.218    17.626     5.668
    59   6 C        2.874     0.140    24.949     8.188
    60   6 C        2.913    -0.066    29.646     8.928
    61   6 C        2.923    -0.026    28.646     8.777
    62   6 C        2.913    -0.066    29.648     8.929
    63   6 C        2.874     0.140    24.937     8.186
    64   6 C        2.889    -0.120    31.042     9.134
    65   8 O        1.711    -0.220    17.649     5.672
    66   6 C        3.057     0.003    27.904     8.663
    67   6 C        2.914    -0.034    28.849     8.808
    68   6 C        2.922    -0.032    28.803     8.801
    69   6 C        2.921    -0.033    28.812     8.802
    70   6 C        2.915    -0.034    28.852     8.808
    71   6 C        3.035     0.000    27.984     8.677
    72   6 C        3.035     0.001    27.978     8.676
    73   6 C        2.915    -0.034    28.845     8.807
    74   6 C        2.921    -0.033    28.815     8.803
    75   6 C        2.922    -0.033    28.818     8.803
    76   6 C        2.914    -0.035    28.862     8.810
    77   6 C        3.057     0.003    27.902     8.663
    78   6 C        2.923    -0.031    28.763     8.795
    79   6 C        2.915    -0.054    29.343     8.883
    80   6 C        2.877     0.137    25.016     8.199
    81   8 O        1.711    -0.220    17.650     5.672
    82   6 C        2.927     0.058    26.696     8.473
    83   6 C        2.924    -0.059    29.461     8.901
    84   6 C        2.920    -0.033    28.824     8.804
    85   6 C        2.917    -0.045    29.116     8.848
    86   6 C        2.928    -0.036    28.906     8.817
    87   6 C        2.980    -0.014    28.358     8.735
    88   1 H        0.925     0.031     2.572     2.508
    89   1 H        0.925     0.039     2.465     2.455
    90   1 H        0.925     0.039     2.465     2.455
    91   1 H        0.925     0.039     2.464     2.455
    92   1 H        0.925     0.039     2.466     2.456
    93   1 H        0.925     0.031     2.568     2.506
    94   1 H        0.926     0.029     2.597     2.520
    95   1 H        0.926     0.025     2.656     2.549
    96   1 H        0.926     0.026     2.644     2.543
    97   1 H        0.926     0.025     2.660     2.550
    98   1 H        0.926     0.041     2.429     2.437
    99   1 H        0.926     0.042     2.417     2.431
   100   1 H        0.926     0.055     2.262     2.352
   101   1 H        0.926     0.049     2.328     2.386
   102   1 H        0.926     0.045     2.381     2.413
   103   1 H        0.926     0.049     2.332     2.388
   104   1 H        0.926     0.040     2.443     2.444
   105   1 H        0.926     0.038     2.477     2.461
   106   1 H        0.926     0.047     2.358     2.401
   107   1 H        0.926     0.040     2.449     2.447
   108   1 H        0.926     0.043     2.404     2.425
   109   1 H        0.926     0.042     2.426     2.436
   110   1 H        0.926     0.023     2.683     2.561
   111   1 H        0.926     0.026     2.641     2.541
   112   1 H        0.926     0.025     2.658     2.549
   113   1 H        0.926     0.029     2.600     2.522
   114   1 H        0.925     0.039     2.467     2.456
   115   1 H        0.925     0.031     2.569     2.507
   116   1 H        0.925     0.039     2.466     2.456
   117   1 H        0.925     0.039     2.467     2.456
   118   1 H        0.925     0.039     2.467     2.456
   119   1 H        0.925     0.031     2.573     2.509
   120   1 H        0.926     0.029     2.600     2.522
   121   1 H        0.926     0.025     2.660     2.550
   122   1 H        0.926     0.026     2.645     2.543
   123   1 H        0.926     0.024     2.680     2.560
   124   1 H        0.926     0.055     2.261     2.351
   125   1 H        0.926     0.049     2.326     2.385
   126   1 H        0.926     0.045     2.379     2.412
   127   1 H        0.926     0.049     2.330     2.387
   128   1 H        0.926     0.030     2.588     2.516
   129   1 H        0.926     0.032     2.563     2.504
   130   1 H        0.926     0.032     2.565     2.504
   131   1 H        0.926     0.032     2.557     2.501
   132   1 H        0.926     0.032     2.554     2.499
   133   1 H        0.926     0.031     2.572     2.508
   134   1 H        0.926     0.031     2.568     2.506
   135   1 H        0.926     0.030     2.590     2.517
   136   1 H        0.926     0.038     2.477     2.461
   137   1 H        0.926     0.047     2.359     2.402
   138   1 H        0.926     0.024     2.667     2.554
   139   1 H        0.926     0.027     2.636     2.539
   140   1 H        0.926     0.025     2.654     2.548
   141   1 H        0.926     0.029     2.597     2.520

molecular dipole:
                 x           y           z       tot (Debye)
 q only:       -0.057      -0.199      -0.065
   full:       -0.062      -0.321      -0.111       0.877

 projected vibrational frequencies (cm⁻¹)
eigval :       -0.00    -0.00     0.00     0.00     0.00     0.00
eigval :        3.48     4.24     5.17     6.45     9.93    14.52
eigval :       17.66    19.72    21.24    22.82    24.32    29.64
eigval :       39.03    40.69    46.93    48.13    59.08    66.55
eigval :       75.87    76.80    84.20    87.41    89.45    98.25
eigval :       99.69   100.25   101.96   116.06   128.54   129.10
eigval :      129.76   130.38   135.83   144.85   152.31   157.05
eigval :      166.82   171.38   173.56   190.09   190.57   205.31
eigval :      206.48   216.88   218.72   220.89   226.45   234.55
eigval :      237.64   242.60   244.33   247.58   253.16   261.07
eigval :      263.19   282.32   292.06   296.85   298.63   311.98
eigval :      314.52   316.00   318.57   329.67   331.29   332.17
eigval :      338.76   345.07   346.82   354.75   356.97   371.13
eigval :      374.92   377.14   381.67   386.93   389.17   390.46
eigval :      390.85   394.90   409.97   411.29   413.03   416.08
eigval :      424.86   426.59   433.25   436.65   440.28   451.16
eigval :      452.50   454.95   466.17   466.56   467.83   479.94
eigval :      491.48   492.03   496.99   507.50   515.20   515.38
eigval :      515.98   532.06   532.74   537.89   541.89   545.26
eigval :      547.42   547.46   548.33   549.46   558.05   562.60
eigval :      569.99   582.17   586.60   587.35   589.01   591.52
eigval :      594.10   600.88   605.56   622.52   629.26   632.52
eigval :      641.94   642.64   646.56   648.51   656.70   662.27
eigval :      677.28   677.54   682.55   683.00   685.02   687.24
eigval :      688.77   691.75   693.58   693.97   696.45   698.93
eigval :      716.95   717.49   728.00   729.06   732.07   752.38
eigval :      753.69   768.55   771.89   776.50   776.80   777.84
eigval :      778.15   784.74   800.26   800.38   815.34   817.31
eigval :      823.54   827.13   828.01   830.96   832.12   832.44
eigval :      850.69   855.72   865.36   866.01   866.30   866.99
eigval :      870.98   871.14   872.03   874.79   876.94   877.53
eigval :      878.22   879.09   884.49   899.95   900.39   904.14
eigval :      908.83   909.16   909.61   912.67   912.77   913.53
eigval :      913.60   914.79   915.44   916.95   917.83   920.78
eigval :      920.85   921.05   921.20   921.48   921.49   924.48
eigval :      925.71   927.29   928.10   938.43   938.48   957.07
eigval :      957.10   976.47   996.08   999.70  1007.97  1014.34
eigval :     1014.44  1024.15  1054.22  1055.02  1076.18  1077.36
eigval :     1077.47  1081.23  1081.43  1081.68  1090.89  1091.15
eigval :     1097.89  1098.21  1107.35  1113.20  1114.03  1119.66
eigval :     1120.32  1133.85  1134.75  1140.85  1141.11  1144.53
eigval :     1151.71  1153.35  1156.93  1160.03  1160.49  1160.73
eigval :     1170.05  1170.08  1176.74  1179.35  1180.31  1180.67
eigval :     1184.70  1187.58  1187.91  1187.97  1188.53  1204.10
eigval :     1205.54  1206.16  1210.46  1212.64  1221.55  1222.12
eigval :     1226.50  1227.93  1235.32  1241.59  1243.93  1247.20
eigval :     1248.07  1249.61  1250.03  1250.61  1251.44  1260.21
eigval :     1268.86  1269.21  1273.13  1274.62  1282.29  1283.71
eigval :     1286.49  1290.74  1291.35  1295.24  1295.54  1310.29
eigval :     1311.02  1325.51  1326.04  1326.27  1331.62  1332.62
eigval :     1334.29  1336.32  1337.24  1338.65  1342.84  1343.84
eigval :     1344.18  1345.59  1365.87  1387.78  1388.32  1402.59
eigval :     1402.78  1409.66  1413.51  1420.58  1420.75  1421.84
eigval :     1422.87  1428.91  1429.70  1429.81  1432.31  1436.99
eigval :     1437.35  1443.88  1444.81  1452.24  1454.08  1462.95
eigval :     1467.90  1468.40  1472.71  1480.61  1481.66  1490.18
eigval :     1490.32  1491.19  1491.31  1497.32  1497.95  1500.68
eigval :     1500.84  1505.50  1505.63  1530.00  1530.52  1542.69
eigval :     1544.80  1563.73  1564.19  1575.43  1575.57  1579.69
eigval :     1579.99  1585.69  1587.57  1588.17  1591.35  1591.63
eigval :     1593.43  1593.47  1594.06  1596.59  1599.03  1603.14
eigval :     1603.48  1603.56  1604.02  3026.59  3026.69  3028.86
eigval :     3028.87  3038.74  3038.78  3041.52  3041.72  3047.76
eigval :     3047.91  3051.83  3052.48  3074.85  3075.72  3076.75
eigval :     3076.95  3076.98  3077.42  3080.01  3081.40  3081.68
eigval :     3081.75  3081.92  3082.21  3082.45  3083.62  3087.60
eigval :     3089.39  3089.66  3089.73  3089.76  3089.88  3093.02
eigval :     3093.56  3093.75  3094.07  3094.27  3095.39  3098.33
eigval :     3098.75  3099.59  3100.56  3101.23  3101.86  3102.59
eigval :     3102.97  3107.85  3108.00  3109.29  3111.60  3111.67
eigval :     3111.96  3122.58  3129.87

   temp. (K)  partition function   enthalpy   heat capacity  entropy
                                   cal/mol     cal/K/mol   cal/K/mol   J/K/mol
 298.15  VIB  0.562E+35            41761.462    262.646    262.476
         ROT  0.586E+09              888.752      2.981     43.103
         INT  0.329E+44            42650.215    265.627    305.579
         TR   0.361E+29             1481.254      4.968     46.890
         TOT                       44131.4687   270.5950   352.4683  1474.7275

       T/K    H(0)-H(T)+PV         H(T)/Eh          T*S/Eh         G(T)/Eh
   ------------------------------------------------------------------------
    298.15    0.703280E-01    0.115369E+01    0.167469E+00    0.986222E+00
   ------------------------------------------------------------------------

         :::::::::::::::::::::::::::::::::::::::::::::::::::::
         ::                  THERMODYNAMIC                  ::
         :::::::::::::::::::::::::::::::::::::::::::::::::::::
         :: total free energy        -220.480838340976 Eh   ::
         ::.................................................::
         :: total energy             -221.467060284058 Eh   ::
         :: zero point energy           1.083363047201 Eh   ::
         :: G(RRHO) w/o ZPVE           -0.097141104119 Eh   ::
         :: G(RRHO) contrib.            0.986221943082 Eh   ::
         :::::::::::::::::::::::::::::::::::::::::::::::::::::

           -------------------------------------------------
          | TOTAL ENERGY             -221.467060284058 Eh   |
          | TOTAL ENTHALPY           -220.313369264940 Eh   |
          | TOTAL FREE ENERGY        -220.480838340976 Eh   |
          | GRADIENT NORM               0.000063018734 Eh/α |
          | HOMO-LUMO GAP               1.711635023253 eV   |
           -------------------------------------------------

 * finished run on 2025/07/18 at 09:38:59.045
