   * xtb version 6.7.1 (edcfbbe) compiled by 'albert@albert-system' on 2024-07-22

   ID    Z sym.   atoms
    1    6 C      1-9, 11-16, 18-23, 25-34, 36-39, 41-57, 59-64, 66-80, 82-87
    2    7 N      10, 40
    3    8 O      17, 58, 65, 81
    4    5 B      24, 35
    5    1 H      88-141

          program call               : xtb data2507/gas/F2AcBO/F2AcBO_gas_S0_finalOpt.xtbopt.xyz --gfn 2 --spinpol --tblite --uhf 2 --ohess vtight --parallel 40 --molden --ceasefiles --namespace data2507/gas/F2AcBO/F2AcBO_gas_T1_preOpt
 * total energy  :  -221.3840966 Eh     change       -0.2438051E-07 Eh
 * total energy  :  -221.3848233 Eh     change       -0.7267029E-03 Eh
 * total energy  :  -221.3849996 Eh     change       -0.1762957E-03 Eh
 * total energy  :  -221.3850093 Eh     change       -0.9763737E-05 Eh
 * total energy  :  -221.3850139 Eh     change       -0.4539785E-05 Eh
 * total energy  :  -221.3850161 Eh     change       -0.2265405E-05 Eh
 * total energy  :  -221.3850202 Eh     change       -0.4030299E-05 Eh
 * total energy  :  -221.3850220 Eh     change       -0.1864815E-05 Eh
 * total energy  :  -221.3850239 Eh     change       -0.1839933E-05 Eh
 * total energy  :  -221.3850250 Eh     change       -0.1148733E-05 Eh
 * total energy  :  -221.3850690 Eh     change       -0.6274673E-06 Eh
 * total energy  :  -221.3850695 Eh     change       -0.4652407E-06 Eh
 * total energy  :  -221.3850699 Eh     change       -0.3969065E-06 Eh
 * total energy  :  -221.3850702 Eh     change       -0.3758339E-06 Eh
 * total energy  :  -221.3850706 Eh     change       -0.3195324E-06 Eh
 * total energy  :  -221.3850708 Eh     change       -0.2727477E-06 Eh
 * total energy  :  -221.3850710 Eh     change       -0.1827835E-06 Eh
 * total energy  :  -221.3850712 Eh     change       -0.1849530E-06 Eh
 * total energy  :  -221.3850713 Eh     change       -0.5384706E-07 Eh
   *** GEOMETRY OPTIMIZATION CONVERGED AFTER 55 ITERATIONS ***

 final structure:
================
141
 xtb: 6.7.1 (edcfbbe)
C          -11.67333108590544        4.05763292467487       -1.01351344825042
C          -10.34342968503226        3.66424712216015       -1.68378898596001
C          -10.17184328729608        4.42414468167560       -3.01269136682035
C           -9.20637629203603        4.04026195577163       -0.75640551304165
C           -9.03447058430094        5.36623254242350       -0.38430409974854
C           -8.02619101392587        5.76093220348395        0.47563165318453
C           -7.16428540100854        4.80920405109861        0.99617817488211
C           -7.31077312121678        3.48599216869844        0.64538057102092
C           -8.31924282347032        3.08416459325846       -0.24100878481957
N           -8.43387783631417        1.75213358999123       -0.58144858357427
C           -7.51216551448955        0.81725415792157       -0.02770514078832
C           -6.22195316913488        0.71034497319829       -0.53915648777414
C           -5.34078160795213       -0.19180559038184        0.01408074862740
C           -5.68070915514129       -1.02655112346199        1.09540372943417
C           -7.01294708553153       -0.92223799024288        1.56064113556031
C           -7.90826144355907       -0.00721702194230        1.01821216567958
O           -7.54352525288745       -1.68557608213105        2.55819792635018
C           -6.83821830422289       -2.68759398207116        3.14797166192519
C           -7.50586019443020       -3.47079338428099        4.08398999567796
C           -6.82989598811937       -4.50912750522194        4.70549080904841
C           -5.50288836218009       -4.77071855088367        4.40618888103128
C           -4.84338981890557       -3.97468101866804        3.47366096550658
C           -5.49507008843594       -2.91574702513606        2.82480525806857
B           -4.76735400627124       -2.04505257017771        1.80320350383410
C           -3.26594540253745       -2.37695132746962        1.67631993018987
C           -2.31879023319793       -1.66860491121190        0.92782468576388
C           -0.99965786523552       -2.06611859856940        0.80448766566310
C           -0.01961013978651       -1.24715919585565       -0.01104860651329
C            0.96134161782735       -2.11899462783422       -0.76770083934081
C            0.52846097518324       -3.29352035387819       -1.38293750190244
C            1.41835409619478       -4.05384521283764       -2.11326144106415
C            2.75491219138569       -3.67104661718050       -2.22040521823940
C            3.23688507440314       -2.50549474050775       -1.58445445974899
C            2.28517161900180       -1.74076788528577       -0.89966554603094
B            4.74541914781341       -2.20174212130982       -1.70085033418654
C            5.65911200094230       -1.15039450378611       -1.04276242550408
C            5.30555845218329       -0.22924305123927       -0.03833078550878
C            6.19387049086178        0.68292328892384        0.48610475192344
C            7.50619261118365        0.71370127076918        0.02289243436673
N            8.43576814829890        1.65826642209323        0.54582967647724
C            8.74882526828195        2.77480665257745       -0.20187280250822
C            8.11600052654928        2.97911980138668       -1.43541876267727
C            8.41499646469881        4.07762140142513       -2.20948903798981
C            9.34856832536997        5.00072006651313       -1.76662953368177
C            9.96011751182620        4.81370622393266       -0.54075057501685
C            9.67778950467894        3.71721621925986        0.26202601210323
C           10.36189512482552        3.57729935131533        1.60622615806579
C           11.88434046201177        3.50714839848278        1.38292323990686
C           10.00606596059506        4.80366017487256        2.46776666193403
C            9.92342260797909        2.32461576118508        2.33623746433325
C           10.45164739619332        2.03925906970566        3.58752897858250
C           10.10148382108382        0.89966904617934        4.28802113069136
C            9.20660353229417        0.00350788841927        3.72613811652531
C            8.66629896072302        0.26003035975840        2.48610608813242
C            9.00301806484862        1.42368757797733        1.78130039973789
C            7.91318349562395       -0.19035819152598       -0.95058888053390
C            7.00865559335628       -1.11119834422090       -1.46704323606162
O            7.55093972757466       -1.95336144185517       -2.39227043279996
C            6.84141116957140       -2.98076016012527       -2.93078050681225
C            7.51935526923234       -3.84092221482247       -3.78869523343078
C            6.83933283101147       -4.90579034938551       -4.35870228170586
C            5.49899215252361       -5.11982384199013       -4.08200895083276
C            4.83009580768485       -4.24795768378675       -3.22705617821064
C            5.48431147628149       -3.15779684648528       -2.63494198842040
O            3.52065490719679       -4.50302568516534       -2.98190715830430
C           -0.70615564918142       -0.31738103660989       -0.99251758768429
C           -1.49407532344062       -0.64014464178258       -2.07693973755439
C           -2.04663209327614        0.38810008572349       -2.82846430567697
C           -1.80696419718396        1.71460022918204       -2.50277738122165
C           -1.00551579485492        2.04501460025028       -1.42221452990876
C           -0.45448561712515        1.02294993932243       -0.66681276693131
C            0.39799842953062        1.06090240213353        0.50986285143398
C            0.93963978676818        2.12970459654701        1.20507107890457
C            1.74570048207154        1.86918302056945        2.30117975238302
C            1.99913163723555        0.56580070090922        2.70147495497739
C            1.45471116783980       -0.50881756962279        2.01154230467849
C            0.66251829705046       -0.25591227459513        0.91170052625586
C           -0.56850793947095       -3.20267224954370        1.48832364952295
C           -1.45441503263470       -3.90599587680113        2.27822372449044
C           -2.78517779866189       -3.50241697043416        2.38125070511820
O           -3.54598132204756       -4.27128367228841        3.21111374213354
C           -9.41927120814839        1.29804109331699       -1.43387932802746
C           -9.46508666409017       -0.06032631444513       -1.77563083942778
C          -10.44386553401355       -0.54589548228156       -2.61316119052293
C          -11.39612759335950        0.31516346255337       -3.13424253283625
C          -11.34180666592648        1.65982941289773       -2.81702262526026
C          -10.36605793485718        2.17837298325425       -1.97711040995866
H          -11.78819278350576        3.51901143898517       -0.07484700504544
H          -12.51641567215752        3.81486237692372       -1.65406466350333
H          -11.70083008413159        5.12303048568746       -0.80324074621131
H           -9.23148331579349        4.14132601701314       -3.48192482843394
H          -10.98115061024565        4.19218452305823       -3.69907752969918
H          -10.16362739249553        5.49763523260230       -2.84684591119823
H           -9.70512722605458        6.11804671502879       -0.77163919283511
H           -7.91961619044564        6.80113927752771        0.74251291347257
H           -6.37913516090993        5.09749639196385        1.67842881076309
H           -6.64464455869228        2.74557427794745        1.05872155682543
H           -5.92389320225243        1.33626604878477       -1.36780371002060
H           -4.35432948298088       -0.26834315099242       -0.41325314935075
H           -8.91176472238367        0.04746435485429        1.41161608831223
H           -8.53946675659841       -3.26137376510241        4.31021836661451
H           -7.34401950147059       -5.12139046420735        5.43034517333128
H           -4.97033157250884       -5.57821871098440        4.88330296569173
H           -2.63440070079299       -0.76650245836803        0.43053661886974
H           -0.49935330264739       -3.61033403293763       -1.28919866834032
H            1.09851460798700       -4.95524776386072       -2.61360853951366
H            2.60180551044370       -0.81118464445607       -0.45700387291706
H            4.30061908632164       -0.24168506457091        0.35036478389257
H            5.88270724724541        1.37927409423591        1.25130967876226
H            7.38292143346658        2.26609018157043       -1.77736156695045
H            7.91801650701526        4.21480206199633       -3.15777084120360
H            9.59354136421092        5.86331080006577       -2.36706135946103
H           10.67642834358895        5.54792032316546       -0.20478813892954
H           12.41127165874542        3.42438766976495        2.32924184257734
H           12.12968074821452        2.63791723306072        0.77576319253359
H           12.24184616868415        4.39578006274488        0.87053187085217
H           10.32283500002066        5.72275499537802        1.98314737609212
H           10.48845811659816        4.74756870694603        3.43942191531985
H            8.92942645136048        4.84889346908998        2.62026166918370
H           11.15940729488657        2.72119902674380        4.03369309838200
H           10.52959592621042        0.70963868273313        5.26022032853827
H            8.93189843840439       -0.89749877260153        4.25319273162872
H            7.97736344149174       -0.44316222599681        2.04606840167332
H            8.93084942103553       -0.19028237869464       -1.30989217150815
H            8.56345859254009       -3.66786719328416       -3.99673869495606
H            7.36095028520043       -5.57709534394999       -5.02339885601123
H            4.96331649734925       -5.94894522387887       -4.51667206645241
H           -1.68890890401670       -1.67065404907751       -2.33313297033946
H           -2.67393976109517        0.15105333863937       -3.67546884721558
H           -2.25044072106906        2.49861456650235       -3.09968937178951
H           -0.81886424069121        3.07884503132236       -1.17160541142162
H            0.74238707818996        3.14570028977259        0.89636441064013
H            2.18221862987949        2.69016467535093        2.85173130826248
H            2.63066049030756        0.38367406421852        3.55887130845400
H            1.65931559445505       -1.52130889788016        2.32558741979648
H            0.45537659343706       -3.53408741014692        1.40234837041416
H           -1.13507148381857       -4.77629805420828        2.83118801578393
H           -8.71963483362980       -0.73028455922179       -1.37804543328432
H          -10.46282770267868       -1.59622487646049       -2.86113998227489
H          -12.17045975196832       -0.05532685490217       -3.78823047813921
H          -12.08371632921138        2.31957902779802       -3.24049880982944

 projected vibrational frequencies (cm⁻¹)
eigval :       -0.00    -0.00    -0.00    -0.00     0.00     0.00
eigval :        2.59     3.44     4.22     5.10    10.69    14.37
eigval :       17.28    19.06    22.53    22.89    24.29    28.11
eigval :       37.77    42.48    45.82    50.65    59.57    69.29
eigval :       73.49    75.50    82.95    85.53    87.52    96.09
eigval :       96.87    99.01   100.00   123.04   123.54   129.02
eigval :      129.14   131.22   136.11   144.02   150.34   152.89
eigval :      167.03   172.00   172.55   191.54   191.61   206.08
eigval :      207.20   214.56   216.76   218.84   226.57   234.04
eigval :      237.88   240.22   243.04   248.97   251.16   254.87
eigval :      261.24   281.08   290.76   296.74   297.69   311.38
eigval :      312.36   314.42   317.29   327.43   327.91   329.43
eigval :      336.95   342.72   344.16   350.45   356.53   369.38
eigval :      371.26   377.04   379.06   381.32   381.96   389.39
eigval :      391.22   393.00   408.40   409.20   411.16   414.93
eigval :      419.44   420.41   429.26   432.50   437.99   450.16
eigval :      450.23   452.48   460.60   461.17   464.78   476.73
eigval :      495.36   503.97   505.09   508.09   508.15   509.36
eigval :      510.47   529.09   529.56   535.91   536.82   540.74
eigval :      543.65   544.23   544.32   546.08   552.49   559.67
eigval :      563.79   572.77   578.19   585.11   585.20   586.32
eigval :      590.03   597.26   602.86   615.23   627.14   628.27
eigval :      632.15   632.29   640.60   641.77   652.91   660.33
eigval :      672.22   673.49   674.03   674.36   684.30   686.14
eigval :      686.23   687.35   688.46   691.63   699.10   699.13
eigval :      705.83   706.19   723.44   727.23   727.78   746.93
eigval :      753.21   764.88   770.01   774.27   774.47   776.10
eigval :      776.28   783.72   785.17   785.45   803.44   805.29
eigval :      813.21   819.56   824.55   825.17   825.76   825.89
eigval :      844.20   848.13   849.52   850.63   858.28   859.52
eigval :      862.59   863.08   868.62   868.69   869.08   869.16
eigval :      874.32   875.29   879.04   895.39   896.30   898.22
eigval :      899.28   901.14   901.64   901.99   904.08   904.85
eigval :      906.12   908.14   908.58   913.39   913.48   914.37
eigval :      914.45   914.94   915.05   921.81   922.00   922.03
eigval :      922.20   925.40   926.29   937.08   937.26   957.39
eigval :      957.45   973.37   988.34   993.66  1004.55  1012.88
eigval :     1013.32  1014.28  1044.40  1044.77  1065.58  1075.51
eigval :     1075.96  1075.99  1077.03  1081.00  1086.95  1088.35
eigval :     1090.38  1090.81  1106.45  1107.92  1108.14  1114.64
eigval :     1114.68  1123.74  1125.41  1138.62  1138.64  1143.72
eigval :     1147.41  1149.72  1153.61  1153.76  1154.10  1155.54
eigval :     1166.59  1166.75  1174.70  1175.88  1177.60  1177.85
eigval :     1182.54  1183.92  1184.10  1184.16  1184.64  1196.79
eigval :     1199.16  1202.87  1205.17  1209.22  1213.49  1215.97
eigval :     1219.63  1219.88  1228.31  1228.72  1235.45  1236.17
eigval :     1239.93  1240.92  1244.10  1244.91  1246.37  1247.98
eigval :     1248.18  1256.98  1258.91  1260.72  1265.62  1267.16
eigval :     1273.88  1273.91  1286.55  1294.51  1294.54  1308.57
eigval :     1309.20  1317.73  1319.00  1320.04  1322.42  1323.16
eigval :     1326.97  1331.68  1331.80  1331.89  1335.22  1335.32
eigval :     1343.84  1344.17  1365.80  1374.20  1379.29  1387.17
eigval :     1391.21  1400.77  1400.81  1412.76  1413.23  1416.13
eigval :     1418.11  1418.33  1418.90  1427.09  1427.13  1428.45
eigval :     1429.65  1431.27  1431.88  1436.46  1438.91  1454.67
eigval :     1456.53  1460.26  1460.31  1462.57  1472.09  1479.92
eigval :     1482.76  1486.77  1486.92  1487.31  1487.46  1492.26
eigval :     1494.03  1497.07  1497.21  1501.23  1501.55  1505.55
eigval :     1512.24  1515.63  1522.38  1537.56  1541.68  1546.29
eigval :     1547.96  1559.33  1559.40  1562.63  1572.14  1573.84
eigval :     1576.40  1581.83  1581.86  1584.70  1592.25  1593.08
eigval :     1593.30  1601.39  1602.72  3029.03  3029.07  3030.88
eigval :     3030.95  3042.51  3042.58  3044.92  3045.02  3050.70
eigval :     3050.75  3054.21  3054.28  3069.87  3070.48  3077.29
eigval :     3077.63  3077.78  3078.82  3081.06  3082.81  3082.86
eigval :     3082.92  3083.05  3083.18  3085.17  3086.80  3087.55
eigval :     3087.95  3088.34  3088.37  3088.48  3088.53  3092.59
eigval :     3093.38  3094.97  3095.46  3096.93  3097.16  3098.33
eigval :     3098.48  3098.75  3098.85  3100.68  3100.74  3105.42
eigval :     3105.61  3109.92  3110.35  3110.69  3110.99  3111.51
eigval :     3112.15  3121.17  3123.42

   temp. (K)  partition function   enthalpy   heat capacity  entropy
                                   cal/mol     cal/K/mol   cal/K/mol   J/K/mol
 298.15  VIB  0.190E+36            42019.010    264.461    264.867
         ROT  0.584E+09              888.752      2.981     43.095
         INT  0.111E+45            42907.763    267.441    307.962
         TR   0.361E+29             1481.254      4.968     46.890
         TOT                       44389.0166   272.4096   354.8521  1484.7011

       T/K    H(0)-H(T)+PV         H(T)/Eh          T*S/Eh         G(T)/Eh
   ------------------------------------------------------------------------
    298.15    0.707384E-01    0.114923E+01    0.168602E+00    0.980626E+00
   ------------------------------------------------------------------------

         :::::::::::::::::::::::::::::::::::::::::::::::::::::
         ::                  THERMODYNAMIC                  ::
         :::::::::::::::::::::::::::::::::::::::::::::::::::::
         :: total free energy        -220.404445471120 Eh   ::
         ::.................................................::
         :: total energy             -221.385071222659 Eh   ::
         :: zero point energy           1.078489021962 Eh   ::
         :: G(RRHO) w/o ZPVE           -0.097863270423 Eh   ::
         :: G(RRHO) contrib.            0.980625751539 Eh   ::
         :::::::::::::::::::::::::::::::::::::::::::::::::::::

           -------------------------------------------------
          | TOTAL ENERGY             -221.385071222659 Eh   |
          | TOTAL ENTHALPY           -220.235843800072 Eh   |
          | TOTAL FREE ENERGY        -220.404445471120 Eh   |
          | GRADIENT NORM               0.000101591239 Eh/α |
           -------------------------------------------------

 * finished run on 2025/07/18 at 09:57:29.739
