   * xtb version 6.7.1 (edcfbbe) compiled by 'albert@albert-system' on 2024-07-22

   ID    Z sym.   atoms
    1    6 C      1-9, 11-16, 18-23, 25-34, 36-39, 41-57, 59-64, 66-80, 82-87
    2    7 N      10, 40
    3    8 O      17, 58, 65, 81
    4    5 B      24, 35
    5    1 H      88-141

          program call               : xtb data2507/gas/F2AcBO/F2AcBO_gas_S0_crest.xyz --gfn 2 --ohess vtight --parallel 40 --molden --ceasefiles --namespace data2507/gas/F2AcBO/F2AcBO_gas_S0_finalOpt
          :  Hamiltonian                  GFN2-xTB          :
 * total energy  :  -221.4672597 Eh     change       -0.8649550E-08 Eh
 * total energy  :  -221.4672609 Eh     change       -0.1216598E-05 Eh
 * total energy  :  -221.4672630 Eh     change       -0.2132645E-05 Eh
 * total energy  :  -221.4672654 Eh     change       -0.2423491E-05 Eh
 * total energy  :  -221.4672671 Eh     change       -0.1648048E-05 Eh
 * total energy  :  -221.4672690 Eh     change       -0.1944463E-05 Eh
 * total energy  :  -221.4672712 Eh     change       -0.2144735E-05 Eh
 * total energy  :  -221.4672731 Eh     change       -0.1915423E-05 Eh
 * total energy  :  -221.4672750 Eh     change       -0.1852580E-05 Eh
 * total energy  :  -221.4672768 Eh     change       -0.1886530E-05 Eh
 * total energy  :  -221.4673775 Eh     change       -0.2390815E-06 Eh
 * total energy  :  -221.4673778 Eh     change       -0.3244307E-06 Eh
 * total energy  :  -221.4673783 Eh     change       -0.5311666E-06 Eh
 * total energy  :  -221.4673793 Eh     change       -0.9106450E-06 Eh
 * total energy  :  -221.4673795 Eh     change       -0.2096162E-06 Eh
 * total energy  :  -221.4673798 Eh     change       -0.3301131E-06 Eh
 * total energy  :  -221.4673795 Eh     change        0.2689902E-06 Eh
 * total energy  :  -221.4673799 Eh     change       -0.3592887E-06 Eh
 * total energy  :  -221.4673800 Eh     change       -0.8043190E-07 Eh
   *** GEOMETRY OPTIMIZATION CONVERGED AFTER 98 ITERATIONS ***

 final structure:
================
141
 xtb: 6.7.1 (edcfbbe)
C          -11.63759640127819        4.08274430831872       -0.93285518728367
C          -10.35220895994794        3.64155902149878       -1.65639346523263
C          -10.23682330768317        4.35008009626550       -3.01850685543525
C           -9.16039957522260        4.02865547437585       -0.80180356898385
C           -8.95008369616941        5.36507682052658       -0.49073075319746
C           -7.89687271198587        5.77761641051268        0.30400897553506
C           -7.02999715222493        4.83168102003749        0.82013064419762
C           -7.21587888146695        3.49709899245686        0.52777995528919
C           -8.26692101680686        3.07950301547681       -0.29428513335927
N           -8.42406620088753        1.73138071237907       -0.57729839382243
C           -7.50635610599544        0.80131773008299       -0.02408742248434
C           -6.22022316688587        0.68001139023087       -0.55252460027607
C           -5.33604105215648       -0.21681543345127        0.00046248344042
C           -5.67084248927798       -1.03565022095642        1.08893848847046
C           -6.98935140653098       -0.92393923708350        1.57363338039754
C           -7.88745789722743       -0.00173910004999        1.03255758415838
O           -7.50929776954364       -1.67676176110444        2.57881805636923
C           -6.81111657343901       -2.68215493492845        3.15882299586879
C           -7.47045442221648       -3.46304088866792        4.10113296420897
C           -6.79067389169312       -4.50457933281269        4.70839504916083
C           -5.47044692380828       -4.77839376247786        4.39879520718324
C           -4.81295417226087       -3.98548787653311        3.46391599772032
C           -5.47026566224363       -2.92291249245200        2.82456975644481
B           -4.74991399488562       -2.05559548602277        1.80039655254641
C           -3.24581460026854       -2.38290535435120        1.66771346062484
C           -2.30937407166641       -1.66677240057691        0.91338015054919
C           -0.99358433470214       -2.05899909555251        0.77851096979709
C           -0.01823242147974       -1.23184986203752       -0.03584055589373
C            0.96233522567306       -2.09662034802256       -0.80283627823254
C            0.53157365333500       -3.26576764985819       -1.43288806346199
C            1.41278723283017       -4.01795178720084       -2.17256760720928
C            2.75229274363563       -3.63449206853325       -2.28169947222246
C            3.22784922097932       -2.47880999890460       -1.63514008325729
C            2.28289351362242       -1.72009528962968       -0.93472314364572
B            4.73959964923776       -2.17643270216675       -1.74487499023477
C            5.65628450743241       -1.13174772766759       -1.06298267191971
C            5.29896085837420       -0.23579901503576       -0.04459288467353
C            6.18344868179190        0.67125934466804        0.49093474086659
C            7.49773817228883        0.71694941640008        0.02365093867052
N            8.41902571721782        1.65046797425589        0.56482467255139
C            8.77945988653674        2.75675629985253       -0.18925660889805
C            8.18266265322136        2.96961909206176       -1.43553825794732
C            8.52827644960982        4.05506587088153       -2.21224277564930
C            9.47280662331098        4.95637617009460       -1.75576317430840
C           10.04475756047506        4.76252759626043       -0.51229288649287
C            9.71386644270797        3.67998010647575        0.29130335433038
C           10.35666419427819        3.54275380954022        1.65824559450828
C           11.88196005590341        3.43287387472869        1.47997483959997
C           10.00534621898096        4.78847725457422        2.49213024811292
C            9.86691122357280        2.30912264725249        2.39232964065860
C           10.35536065082481        2.03275266971015        3.66198865719985
C            9.96804009859840        0.91051193568005        4.37024174316825
C            9.07720490950196        0.02328436531553        3.79414988563116
C            8.57603843593732        0.27338031078708        2.53424454647702
C            8.94728978094096        1.42022208040390        1.82574661944173
C            7.90146460769919       -0.16354815433647       -0.96028320924972
C            6.99701315354186       -1.08342371958008       -1.49470232892061
O            7.53668945486725       -1.90479321358296       -2.43346934757646
C            6.83514148957825       -2.92230887045962       -2.98721789431656
C            7.50997308448759       -3.76618483281727       -3.86187964641104
C            6.82848972429310       -4.82284736931000       -4.44019647860901
C            5.49222170678833       -5.05185469342072       -4.16525732606824
C            4.82042091566837       -4.19740543315555       -3.29713807853328
C            5.47734959777504       -3.11468654523533       -2.69182197304492
O            3.51588392298488       -4.45720473105863       -3.05059733288142
C           -0.71438078568579       -0.29703490299728       -1.00660341920234
C           -1.51261638147861       -0.61407295214451       -2.08512085288478
C           -2.07311350732435        0.41829185423629       -2.82545362179376
C           -1.83120200473365        1.74286070871905       -2.49404480825444
C           -1.01971201989450        2.06754489831436       -1.41907610530964
C           -0.46120362455813        1.04137068185706       -0.67499185711984
C            0.40143593287732        1.07346844255453        0.49510294701792
C            0.94769174682542        2.13913087527335        1.19132490364598
C            1.76236462555948        1.87347315978377        2.28000203984450
C            2.01930878759782        0.56843898785373        2.67226771055198
C            1.47016136378162       -0.50312270956909        1.98083852982437
C            0.66944364726979       -0.24500658482402        0.88843431536041
C           -0.56056828188542       -3.20072805459897        1.45541844714835
C           -1.43399021832960       -3.91066505170032        2.24468274234958
C           -2.76750772674054       -3.50958406410798        2.36166099535372
O           -3.52247118270420       -4.28373956091393        3.18773697968649
C           -9.46294947107983        1.26560556881283       -1.36858697911283
C           -9.54760237582926       -0.09713843536562       -1.66964429882185
C          -10.57493913291110       -0.59086856161080       -2.44530805304030
C          -11.53648860884098        0.26903759924606       -2.94413493202739
C          -11.44012069358562        1.62052531852350       -2.67012323968213
C          -10.41526761516460        2.14492376153205       -1.89434400573932
H          -11.71032138640953        3.58064147626584        0.03012751913514
H          -12.51804780254431        3.83155061681194       -1.51790151213305
H          -11.63777651717810        5.15553540155988       -0.76062516416905
H           -9.32772699848049        4.03089450247674       -3.52488505858926
H          -11.08489878761026        4.11134411633621       -3.65420064702572
H          -10.19911491654841        5.42867977656037       -2.89357662124920
H           -9.62791462281619        6.11217319326474       -0.87533375392779
H           -7.76157328917069        6.82562995210274        0.52404879787078
H           -6.20857906437629        5.12901998446301        1.45500856692593
H           -6.54167356353732        2.76513726424425        0.94493817700012
H           -5.93166366743983        1.29570597581534       -1.39124430496107
H           -4.35451617914434       -0.30417638898149       -0.43715253856820
H           -8.88482061837415        0.06024963379508        1.44023606242299
H           -8.50010746512550       -3.25069506656488        4.33984561551877
H           -7.30116682415223       -5.11586278226184        5.43706583032582
H           -4.94074716559212       -5.58989672450834        4.87136069050322
H           -2.63248299479733       -0.76211285438760        0.42566658249702
H           -0.49657007626161       -3.58286357608103       -1.33930698583245
H            1.09127613224015       -4.91400683612543       -2.68095597795327
H            2.60369690269189       -0.79551786688983       -0.48483740567094
H            4.29500315743684       -0.26154762006475        0.34713550996223
H            5.87470129324669        1.34907074575410        1.27263518736690
H            7.43621308118128        2.27773591391039       -1.79392515640682
H            8.05571350388443        4.19562544640524       -3.17303518704887
H            9.75598268229741        5.80736327685940       -2.35630304172260
H           10.77005678912052        5.48126160391126       -0.16171078228699
H           12.38076599634858        3.35136768098800        2.44177905671892
H           12.12243205346753        2.54855153210374        0.89270875309342
H           12.27639976301763        4.30432501334926        0.96469622771622
H           10.35818223099105        5.69382757377568        2.00610888584297
H           10.45598043294034        4.73508270387848        3.47930616740018
H            8.92579363665140        4.86102164114022        2.61066609097037
H           11.06295297648127        2.70940376614749        4.11693709761652
H           10.36567437842524        0.72772324604243        5.35690009758989
H            8.77242144681377       -0.86806653183938        4.32224661676257
H            7.89104748787888       -0.43070452362261        2.08774542006796
H            8.91734506616129       -0.15495604634924       -1.32453037316285
H            8.55245616896706       -3.58896740652443       -4.07184983500860
H            7.35037106708109       -5.48213489998770       -5.11709654242999
H            4.96109147154356       -5.87617595989730       -4.61339979402240
H           -1.70977476911065       -1.64313564275898       -2.34629701498340
H           -2.70813598085505        0.18571930926024       -3.66770533317622
H           -2.28100988751833        2.52983442296235       -3.08161440008724
H           -0.83151803536190        3.09975024892030       -1.16423647025917
H            0.74759469340622        3.15627340339971        0.88930996229869
H            2.20293407863196        2.69165091404961        2.83082248773736
H            2.65698689782340        0.38238710086417        3.52400041734986
H            1.67779389510453       -1.51701686792416        2.28918658773816
H            0.46412593431981       -3.52872269232621        1.36133211595773
H           -1.10946006179046       -4.78385567173386        2.78962170206040
H           -8.79526588927594       -0.77334110906197       -1.29412402360671
H          -10.62035641051816       -1.64814705583134       -2.66055157176897
H          -12.34887983029702       -0.10545405196309       -3.54810073421538
H          -12.18927372899595        2.28280110328170       -3.07718873975856

          :  Hamiltonian                  GFN2-xTB          :
         :: gradient norm              0.000035754685 Eh/a0 ::
         :: HOMO-LUMO gap              1.723574103770 eV    ::
         :: SCC energy              -225.334659368628 Eh    ::
         :: -> dispersion             -0.213652545987 Eh    ::
         :: repulsion energy           3.867279398934 Eh    ::

    * Orbital Energies and Occupations

         #    Occupation            Energy/Eh            Energy/eV
      -------------------------------------------------------------
         1        2.0000           -0.7346935             -19.9920
       ...           ...                  ...                  ...
       193        2.0000           -0.3978705             -10.8266
       194        2.0000           -0.3939244             -10.7192
       195        2.0000           -0.3938725             -10.7178
       196        2.0000           -0.3926865             -10.6855
       197        2.0000           -0.3919900             -10.6666
       198        2.0000           -0.3908360             -10.6352
       199        2.0000           -0.3884207             -10.5695
       200        2.0000           -0.3883760             -10.5682
       201        2.0000           -0.3829208             -10.4198
       202        2.0000           -0.3729172             -10.1476
       203        2.0000           -0.3716061             -10.1119
       204        2.0000           -0.3423057              -9.3146
       205        2.0000           -0.3422616              -9.3134 (HOMO)
       206                         -0.2789215              -7.5898 (LUMO)
       207                         -0.2778088              -7.5596
       208                         -0.2553569              -6.9486
       209                         -0.2400712              -6.5327
       210                         -0.2395502              -6.5185
       211                         -0.2367962              -6.4436
       212                         -0.2356835              -6.4133
       213                         -0.2319123              -6.3107
       214                         -0.2305599              -6.2739
       215                         -0.2266768              -6.1682
       216                         -0.2237574              -6.0887
       ...                                ...                  ...
       402                          0.7259192              19.7533
      -------------------------------------------------------------
                  HL-Gap            0.0633402 Eh            1.7236 eV

     #   Z          covCN         q      C6AA      α(0)
     1   6 C        3.761    -0.103    22.509     6.763
     2   6 C        3.909     0.021    20.157     6.382
     3   6 C        3.761    -0.103    22.513     6.764
     4   6 C        2.980    -0.014    28.362     8.736
     5   6 C        2.928    -0.036    28.907     8.817
     6   6 C        2.917    -0.045    29.122     8.849
     7   6 C        2.920    -0.033    28.829     8.805
     8   6 C        2.924    -0.059    29.471     8.903
     9   6 C        2.928     0.058    26.690     8.472
    10   7 N        2.754    -0.069    22.578     7.057
    11   6 C        2.928     0.073    26.358     8.419
    12   6 C        2.916    -0.049    29.223     8.865
    13   6 C        2.923    -0.032    28.795     8.800
    14   6 C        2.882    -0.092    30.310     9.026
    15   6 C        2.875     0.140    24.942     8.187
    16   6 C        2.919    -0.064    29.580     8.919
    17   8 O        1.712    -0.219    17.631     5.669
    18   6 C        2.874     0.140    24.949     8.188
    19   6 C        2.913    -0.066    29.647     8.928
    20   6 C        2.923    -0.026    28.648     8.777
    21   6 C        2.913    -0.066    29.648     8.929
    22   6 C        2.874     0.140    24.938     8.186
    23   6 C        2.889    -0.120    31.043     9.135
    24   5 B        2.725     0.211    18.222     7.153
    25   6 C        2.883    -0.091    30.289     9.023
    26   6 C        2.929    -0.040    29.005     8.832
    27   6 C        2.974     0.008    27.830     8.653
    28   6 C        3.947     0.007    20.387     6.416
    29   6 C        2.974     0.008    27.832     8.654
    30   6 C        2.923    -0.031    28.762     8.795
    31   6 C        2.915    -0.054    29.343     8.883
    32   6 C        2.877     0.137    25.014     8.199
    33   6 C        2.883    -0.091    30.290     9.023
    34   6 C        2.929    -0.040    29.006     8.832
    35   5 B        2.724     0.211    18.224     7.153
    36   6 C        2.882    -0.092    30.310     9.026
    37   6 C        2.924    -0.032    28.795     8.800
    38   6 C        2.916    -0.049    29.226     8.865
    39   6 C        2.928     0.073    26.357     8.419
    40   7 N        2.754    -0.069    22.576     7.057
    41   6 C        2.928     0.058    26.694     8.473
    42   6 C        2.924    -0.059    29.463     8.901
    43   6 C        2.920    -0.033    28.824     8.804
    44   6 C        2.917    -0.045    29.119     8.849
    45   6 C        2.928    -0.036    28.907     8.817
    46   6 C        2.980    -0.014    28.361     8.736
    47   6 C        3.909     0.021    20.157     6.382
    48   6 C        3.761    -0.103    22.510     6.763
    49   6 C        3.761    -0.103    22.512     6.764
    50   6 C        2.980    -0.014    28.361     8.736
    51   6 C        2.928    -0.036    28.906     8.817
    52   6 C        2.917    -0.045    29.123     8.849
    53   6 C        2.920    -0.033    28.830     8.805
    54   6 C        2.924    -0.059    29.473     8.903
    55   6 C        2.928     0.058    26.690     8.472
    56   6 C        2.919    -0.063    29.578     8.918
    57   6 C        2.875     0.140    24.944     8.187
    58   8 O        1.712    -0.219    17.629     5.669
    59   6 C        2.874     0.140    24.949     8.188
    60   6 C        2.913    -0.066    29.648     8.929
    61   6 C        2.923    -0.026    28.647     8.777
    62   6 C        2.913    -0.066    29.650     8.929
    63   6 C        2.874     0.140    24.939     8.186
    64   6 C        2.889    -0.120    31.043     9.135
    65   8 O        1.711    -0.220    17.649     5.672
    66   6 C        3.056     0.003    27.903     8.663
    67   6 C        2.914    -0.035    28.864     8.810
    68   6 C        2.922    -0.033    28.818     8.803
    69   6 C        2.921    -0.033    28.812     8.802
    70   6 C        2.915    -0.034    28.840     8.806
    71   6 C        3.035     0.001    27.973     8.675
    72   6 C        3.035     0.001    27.973     8.675
    73   6 C        2.915    -0.034    28.842     8.807
    74   6 C        2.921    -0.033    28.814     8.803
    75   6 C        2.922    -0.033    28.818     8.803
    76   6 C        2.914    -0.035    28.863     8.810
    77   6 C        3.057     0.003    27.903     8.663
    78   6 C        2.923    -0.031    28.765     8.795
    79   6 C        2.914    -0.054    29.342     8.883
    80   6 C        2.876     0.137    25.014     8.199
    81   8 O        1.711    -0.220    17.652     5.673
    82   6 C        2.928     0.058    26.694     8.473
    83   6 C        2.924    -0.059    29.466     8.902
    84   6 C        2.920    -0.033    28.826     8.804
    85   6 C        2.917    -0.045    29.120     8.849
    86   6 C        2.928    -0.036    28.906     8.817
    87   6 C        2.980    -0.014    28.361     8.736
    88   1 H        0.925     0.031     2.568     2.506
    89   1 H        0.925     0.039     2.465     2.455
    90   1 H        0.925     0.039     2.467     2.456
    91   1 H        0.925     0.031     2.573     2.508
    92   1 H        0.925     0.039     2.466     2.456
    93   1 H        0.925     0.039     2.466     2.456
    94   1 H        0.926     0.029     2.598     2.521
    95   1 H        0.926     0.025     2.657     2.549
    96   1 H        0.926     0.026     2.641     2.541
    97   1 H        0.926     0.024     2.667     2.554
    98   1 H        0.926     0.042     2.428     2.437
    99   1 H        0.926     0.043     2.406     2.426
   100   1 H        0.926     0.055     2.262     2.352
   101   1 H        0.926     0.049     2.327     2.385
   102   1 H        0.926     0.045     2.380     2.412
   103   1 H        0.926     0.049     2.331     2.388
   104   1 H        0.926     0.040     2.446     2.446
   105   1 H        0.926     0.038     2.477     2.461
   106   1 H        0.926     0.047     2.358     2.401
   107   1 H        0.926     0.040     2.444     2.445
   108   1 H        0.926     0.043     2.406     2.425
   109   1 H        0.926     0.042     2.428     2.437
   110   1 H        0.926     0.024     2.673     2.556
   111   1 H        0.926     0.026     2.638     2.540
   112   1 H        0.926     0.025     2.656     2.548
   113   1 H        0.926     0.029     2.598     2.521
   114   1 H        0.925     0.039     2.467     2.456
   115   1 H        0.925     0.031     2.568     2.506
   116   1 H        0.925     0.039     2.465     2.455
   117   1 H        0.925     0.039     2.466     2.456
   118   1 H        0.925     0.039     2.466     2.456
   119   1 H        0.925     0.031     2.573     2.508
   120   1 H        0.926     0.029     2.598     2.521
   121   1 H        0.926     0.025     2.658     2.549
   122   1 H        0.926     0.026     2.643     2.542
   123   1 H        0.926     0.024     2.670     2.555
   124   1 H        0.926     0.055     2.263     2.352
   125   1 H        0.926     0.049     2.327     2.386
   126   1 H        0.926     0.045     2.381     2.413
   127   1 H        0.926     0.049     2.332     2.388
   128   1 H        0.926     0.030     2.591     2.517
   129   1 H        0.926     0.031     2.572     2.508
   130   1 H        0.926     0.031     2.570     2.507
   131   1 H        0.926     0.033     2.551     2.498
   132   1 H        0.926     0.032     2.552     2.498
   133   1 H        0.926     0.031     2.572     2.508
   134   1 H        0.926     0.031     2.568     2.506
   135   1 H        0.926     0.030     2.591     2.517
   136   1 H        0.926     0.038     2.477     2.461
   137   1 H        0.926     0.047     2.358     2.401
   138   1 H        0.926     0.024     2.676     2.558
   139   1 H        0.926     0.026     2.639     2.541
   140   1 H        0.926     0.025     2.656     2.549
   141   1 H        0.926     0.029     2.598     2.521

molecular dipole:
                 x           y           z       tot (Debye)
 q only:       -0.003      -0.194      -0.005
   full:       -0.001      -0.313      -0.001       0.795

 projected vibrational frequencies (cm⁻¹)
eigval :       -0.00     0.00     0.00     0.00     0.00     0.00
eigval :        3.80     4.91     5.65     7.29    11.33    14.20
eigval :       17.47    19.51    23.26    23.72    24.83    28.19
eigval :       38.33    42.41    47.53    49.90    57.58    70.10
eigval :       75.92    77.68    84.27    87.46    88.66    98.83
eigval :       99.33   100.58   100.98   123.56   126.66   128.90
eigval :      128.97   133.20   137.33   144.79   152.29   154.11
eigval :      167.92   172.41   172.88   190.24   190.26   205.97
eigval :      207.19   216.62   218.57   221.02   226.71   234.63
eigval :      238.66   242.38   245.62   247.84   250.79   260.04
eigval :      265.97   281.61   291.61   297.84   298.50   311.94
eigval :      313.87   316.22   317.28   329.63   331.52   332.05
eigval :      339.98   345.17   346.70   354.06   356.86   372.63
eigval :      375.40   376.92   382.21   386.41   389.14   390.47
eigval :      391.51   394.81   410.61   411.35   413.01   415.75
eigval :      425.00   428.05   435.02   436.22   440.51   451.88
eigval :      452.03   455.04   465.82   466.40   468.34   479.58
eigval :      491.81   491.94   497.63   508.21   515.25   515.29
eigval :      515.88   532.13   532.73   537.98   541.96   545.37
eigval :      547.41   547.45   548.08   549.62   557.55   562.83
eigval :      570.74   581.49   586.54   587.38   589.03   591.43
eigval :      593.83   600.77   606.90   621.41   629.85   631.73
eigval :      641.54   642.81   647.09   648.33   656.63   662.43
eigval :      677.18   677.46   682.79   682.82   684.77   686.74
eigval :      690.15   692.03   693.76   693.84   696.75   698.14
eigval :      716.74   717.24   728.00   728.80   731.95   752.56
eigval :      753.63   768.47   772.11   776.69   776.72   777.99
eigval :      778.03   785.08   800.23   800.26   817.56   818.32
eigval :      824.67   827.69   828.48   830.87   831.48   833.28
eigval :      850.61   855.36   866.02   866.05   866.57   866.64
eigval :      871.10   871.15   875.25   876.74   877.50   877.63
eigval :      878.77   879.83   885.18   900.19   901.00   904.44
eigval :      909.14   909.47   909.82   912.80   912.84   913.62
eigval :      913.70   915.28   916.18   917.80   917.98   920.99
eigval :      920.99   921.04   921.12   921.46   921.46   924.58
eigval :      925.37   927.42   928.21   938.43   938.46   957.08
eigval :      957.11   976.79   996.08   999.70  1007.98  1014.38
eigval :     1014.40  1023.43  1054.11  1054.59  1076.18  1077.40
eigval :     1077.42  1081.16  1081.38  1081.59  1090.81  1090.95
eigval :     1097.80  1098.01  1107.39  1113.73  1113.87  1120.03
eigval :     1120.03  1133.82  1134.71  1141.00  1141.02  1144.76
eigval :     1151.72  1153.27  1157.14  1160.10  1160.51  1160.77
eigval :     1170.11  1170.16  1176.90  1179.62  1180.57  1180.59
eigval :     1184.75  1187.79  1187.80  1188.21  1188.26  1204.29
eigval :     1205.96  1206.36  1210.40  1212.95  1221.86  1221.98
eigval :     1227.01  1228.40  1235.31  1240.76  1244.14  1247.43
eigval :     1248.05  1249.59  1250.06  1250.89  1251.28  1260.35
eigval :     1269.01  1269.05  1273.04  1273.74  1282.37  1284.04
eigval :     1286.77  1290.64  1291.15  1295.49  1295.50  1310.45
eigval :     1310.97  1325.72  1325.77  1326.31  1331.56  1332.53
eigval :     1334.16  1336.32  1337.11  1338.38  1343.51  1343.72
eigval :     1344.31  1344.34  1365.80  1388.07  1388.34  1402.65
eigval :     1402.69  1410.18  1413.90  1420.70  1420.73  1421.88
eigval :     1422.92  1428.98  1429.76  1429.91  1432.52  1437.14
eigval :     1437.16  1444.25  1444.26  1452.20  1454.08  1463.07
eigval :     1467.86  1468.12  1472.73  1481.06  1481.09  1490.27
eigval :     1490.31  1491.16  1491.20  1497.48  1497.61  1500.65
eigval :     1500.70  1505.56  1505.60  1530.10  1530.37  1542.51
eigval :     1544.66  1563.83  1564.29  1575.53  1575.54  1579.60
eigval :     1579.79  1585.70  1587.43  1588.06  1591.41  1591.53
eigval :     1593.45  1593.47  1594.01  1596.52  1599.04  1603.17
eigval :     1603.47  1603.55  1604.01  3026.58  3026.63  3028.88
eigval :     3028.91  3038.86  3038.89  3041.62  3041.68  3047.93
eigval :     3047.95  3052.08  3052.20  3074.66  3075.15  3076.96
eigval :     3077.08  3077.23  3077.29  3079.87  3081.16  3081.70
eigval :     3082.08  3082.10  3082.24  3082.33  3083.64  3087.62
eigval :     3089.37  3089.51  3089.63  3089.74  3089.84  3093.50
eigval :     3093.54  3093.55  3094.07  3094.16  3094.99  3098.46
eigval :     3098.88  3100.70  3100.81  3101.37  3101.45  3102.50
eigval :     3102.57  3107.91  3107.92  3108.47  3110.88  3111.61
eigval :     3111.65  3122.38  3125.41

   temp. (K)  partition function   enthalpy   heat capacity  entropy
                                   cal/mol     cal/K/mol   cal/K/mol   J/K/mol
 298.15  VIB  0.261E+35            41730.726    262.691    261.649
         ROT  0.582E+09              888.752      2.981     43.088
         INT  0.152E+44            42619.478    265.672    304.736
         TR   0.361E+29             1481.254      4.968     46.890
         TOT                       44100.7324   270.6398   351.6261  1471.2034

       T/K    H(0)-H(T)+PV         H(T)/Eh          T*S/Eh         G(T)/Eh
   ------------------------------------------------------------------------
    298.15    0.702790E-01    0.115373E+01    0.167069E+00    0.986663E+00
   ------------------------------------------------------------------------

         :::::::::::::::::::::::::::::::::::::::::::::::::::::
         ::                  THERMODYNAMIC                  ::
         :::::::::::::::::::::::::::::::::::::::::::::::::::::
         :: total free energy        -220.480717448052 Eh   ::
         ::.................................................::
         :: total energy             -221.467379969694 Eh   ::
         :: zero point energy           1.083452416779 Eh   ::
         :: G(RRHO) w/o ZPVE           -0.096789895137 Eh   ::
         :: G(RRHO) contrib.            0.986662521642 Eh   ::
         :::::::::::::::::::::::::::::::::::::::::::::::::::::

           -------------------------------------------------
          | TOTAL ENERGY             -221.467379969694 Eh   |
          | TOTAL ENTHALPY           -220.313648562366 Eh   |
          | TOTAL FREE ENERGY        -220.480717448052 Eh   |
          | GRADIENT NORM               0.000035778023 Eh/α |
          | HOMO-LUMO GAP               1.723573495022 eV   |
           -------------------------------------------------

 * finished run on 2025/07/18 at 09:56:22.168
