   * xtb version 6.7.1 (edcfbbe) compiled by 'albert@albert-system' on 2024-07-22

   ID    Z sym.   atoms
    1    6 C      1-9, 11-16, 18-23, 25-34, 36-39, 41-57, 59-64, 66-80, 82-87
    2    7 N      10, 40
    3    8 O      17, 58, 65, 81
    4    5 B      24, 35
    5    1 H      88-141

          program call               : xtb data2507/gas/F2AcBO/F2AcBO_gas_T1_crest.xyz --gfn 2 --spinpol --tblite --uhf 2 --ohess vtight --parallel 40 --molden --ceasefiles --namespace data2507/gas/F2AcBO/F2AcBO_gas_T1_finalOpt
 * total energy  :  -221.3850769 Eh     change       -0.4485429E-08 Eh
 * total energy  :  -221.3850785 Eh     change       -0.1632922E-05 Eh
 * total energy  :  -221.3850796 Eh     change       -0.1075463E-05 Eh
 * total energy  :  -221.3850809 Eh     change       -0.1310804E-05 Eh
 * total energy  :  -221.3850825 Eh     change       -0.1532301E-05 Eh
 * total energy  :  -221.3850843 Eh     change       -0.1881855E-05 Eh
 * total energy  :  -221.3850857 Eh     change       -0.1335921E-05 Eh
 * total energy  :  -221.3850864 Eh     change       -0.7153598E-06 Eh
 * total energy  :  -221.3850867 Eh     change       -0.2737176E-06 Eh
 * total energy  :  -221.3850871 Eh     change       -0.4396195E-06 Eh
 * total energy  :  -221.3850915 Eh     change       -0.6062629E-06 Eh
 * total energy  :  -221.3850918 Eh     change       -0.3391166E-06 Eh
 * total energy  :  -221.3850921 Eh     change       -0.3163057E-06 Eh
 * total energy  :  -221.3850921 Eh     change        0.1187942E-08 Eh
 * total energy  :  -221.3850923 Eh     change       -0.1285512E-06 Eh
 * total energy  :  -221.3850924 Eh     change       -0.1570196E-06 Eh
 * total energy  :  -221.3850925 Eh     change       -0.3742414E-07 Eh
 * total energy  :  -221.3850926 Eh     change       -0.1696168E-06 Eh
 * total energy  :  -221.3850927 Eh     change       -0.3508842E-07 Eh
   *** GEOMETRY OPTIMIZATION CONVERGED AFTER 27 ITERATIONS ***

 final structure:
================
141
 xtb: 6.7.1 (edcfbbe)
C          -11.90987485474984        3.56066260956656       -1.36672298385436
C          -10.39420611270777        3.60954005466123       -1.63691577736673
C          -10.05475424492245        4.80074350984494       -2.55264546346927
C           -9.67019706313095        3.79188464502705       -0.31891037978747
C           -9.91900254039435        4.91966746385181        0.45087686445862
C           -9.27232412659041        5.14345591438127        1.65237551747555
C           -8.33797697078738        4.22544910687703        2.10412159839769
C           -8.07183882972710        3.09636286266821        1.36274072116492
C           -8.73857077472668        2.85650555660504        0.15373820941243
N           -8.45676204964988        1.71099614256964       -0.56142474891786
C           -7.52569863251169        0.77393919922085       -0.02674461971572
C           -6.21775388256847        0.72802982853276       -0.50045536564733
C           -5.32818350044807       -0.17521640562158        0.03728536861149
C           -5.67673868801734       -1.07194776422340        1.06512177577032
C           -7.02275147924746       -1.01973039986233        1.49849977909002
C           -7.92822431645113       -0.10688133664037        0.96939221673432
O           -7.56061199613355       -1.84037134895912        2.44535001273321
C           -6.85019933137315       -2.85860193363144        2.99980430124509
C           -7.52454815632255       -3.69977018639291        3.87913466165746
C           -6.84325794717705       -4.75462780812109        4.46586570619771
C           -5.50515929937794       -4.97736747174510        4.18514306654262
C           -4.83976621200988       -4.12440742117953        3.30876264023104
C           -5.49543717569135       -3.04498047481310        2.69889965324138
B           -4.76057545019131       -2.11011075327509        1.74062994005538
C           -3.25296863045949       -2.41763673776645        1.62285122788128
C           -2.30371957953259       -1.66699193438593        0.91913968387636
C           -0.98103236800855       -2.04936432278577        0.78834987265098
C           -0.00105525562815       -1.19457766124191        0.01051644333421
C            0.97007023137411       -2.03549477750250       -0.79315356077679
C            0.52669586502876       -3.18068771782100       -1.45445256943897
C            1.40644466973374       -3.91146285494074       -2.22584441930773
C            2.74297543728220       -3.52794263843603       -2.33082006661168
C            3.23532778193768       -2.39151572515032       -1.65149551756302
C            2.29358306369654       -1.65532531267616       -0.92289894298465
B            4.74293795474993       -2.08510492945996       -1.77472325163691
C            5.66672971218757       -1.06127115955095       -1.08752554360079
C            5.32752419638516       -0.17937131748219       -0.04373805884752
C            6.22363769500332        0.71142062578529        0.50383917173495
C            7.52955981367779        0.75931848726014        0.02462324721501
N            8.46808276051344        1.68245708189799        0.57004264372012
C            8.76015299538792        2.83341556375990       -0.13230442934157
C            8.09257493803688        3.09494037733465       -1.33637023435852
C            8.36908511088463        4.22959571996267       -2.06528953375088
C            9.31495602815931        5.13182811909181       -1.60573082673000
C            9.96215365438251        4.88705378992058       -0.40864525743124
C            9.70279263852660        3.75331267624132        0.34882087729157
C           10.42783692639962        3.54808781011084        1.66287270832458
C           11.94208643187670        3.48327276636719        1.38796234711578
C           10.10564316546642        4.73359514513836        2.59211232832146
C           10.00679120504099        2.26364699819437        2.34661891698322
C           10.57002508231570        1.91947467762799        3.56747311806638
C           10.23619967380252        0.74942582893342        4.22440672488651
C            9.32140094821253       -0.11731211135259        3.64857907110684
C            8.74659289161998        0.19732035309764        2.43778760108342
C            9.06842123395191        1.39070997078909        1.77720389230911
C            7.92276167158352       -0.10661375390311       -0.98817545142990
C            7.01058420090689       -1.00664284485560       -1.52759224391930
O            7.54014378394526       -1.81266541869765       -2.49149111669036
C            6.82208172960017       -2.81667451955128       -3.06160306694000
C            7.48798903692718       -3.64302212526349       -3.96122265675882
C            6.79907417392520       -4.68317225117577       -4.56506955349845
C            5.46155669277309       -4.90554918095083       -4.28140466806313
C            4.80478400119897       -4.06745337641100       -3.38435468664124
C            5.46829726046509       -3.00326681667051       -2.75638947271645
O            3.49758966000892       -4.32932266485552       -3.13496164664943
C           -0.68546633361586       -0.21623126646548       -0.92410212057895
C           -1.48241392147370       -0.48371884146002       -2.01702761440891
C           -2.02847434448801        0.58161733731109       -2.72001237700344
C           -1.77263399046548        1.89029812740476       -2.33909941560238
C           -0.96206668630648        2.16544923350073       -1.24990341431214
C           -0.41835120251527        1.10601619431962       -0.54214375904091
C            0.44025395755762        1.08428101948512        0.63045263638786
C            0.99550667449501        2.11681301801697        1.36836189411856
C            1.80412738037271        1.80149046583235        2.44807988578063
C            2.04680542131505        0.47963631100591        2.79000991525733
C            1.48908015065039       -0.55892488400376        2.05673047474871
C            0.69369369775581       -0.25136439197040        0.97328059536346
C           -0.54694783055037       -3.21288453001499        1.42346915609266
C           -1.43404550962560       -3.95796942424963        2.17247548747630
C           -2.76950708596144       -3.57123232372468        2.27897165418499
O           -3.53242838184361       -4.38710437218994        3.06048836766342
C           -9.05847487001803        1.43867829008085       -1.77233794755071
C           -8.74773855843793        0.24942478856304       -2.44554268779624
C           -9.32462705241000       -0.04638038433877       -3.66009445897326
C          -10.23003088064901        0.83575947989712       -4.22732492680124
C          -10.55228347198468        2.00227685975733       -3.55841023576225
C           -9.98692455056452        2.32748788200292       -2.33336747206741
H          -12.14360416774404        2.71649066286509       -0.72084210546655
H          -12.46510399415759        3.44755904542977       -2.29353001244291
H          -12.24537501612346        4.47057699733418       -0.87729732739338
H           -8.98285328024088        4.83082495162562       -2.73858345704433
H          -10.56650354337338        4.71399764788248       -3.50686413721605
H          -10.34963656857550        5.73953242398768       -2.09260293244364
H          -10.63665404262845        5.64940213847209        0.10806839497143
H           -9.49144679016838        6.03004193888285        2.22730646231743
H           -7.81501015126539        4.39031480743078        3.03383547347874
H           -7.33889795817236        2.38634189235303        1.71129510365191
H           -5.91087939555793        1.40566765433231       -1.28394443765581
H           -4.32645931623523       -0.20035890679252       -0.35910052692464
H           -8.94296428209241       -0.09509045640442        1.33664696957137
H           -8.56692092122572       -3.52017437923226        4.09030710421218
H           -7.36211516476932       -5.41132780548353        5.14710507992743
H           -4.96866024567656       -5.79887926100072        4.63305849068472
H           -2.62158968085177       -0.74553867886525        0.46054630226860
H           -0.50131423285579       -3.49789831852578       -1.36443301010051
H            1.07859341442250       -4.78975773808647       -2.76089602781107
H            2.61763979222824       -0.74692385837329       -0.44312849426709
H            4.32777584753039       -0.20614081250143        0.35746126670901
H            5.92344603542928        1.37763716330473        1.29963531646611
H            7.35065047920252        2.39736417235303       -1.69097991224420
H            7.84522249977919        4.41113257229809       -2.99138975800868
H            9.54250347036839        6.02246279462889       -2.17105057314992
H           10.68883971746290        5.60472533543325       -0.05946321973331
H           12.49823732879270        3.35276808703026        2.31193825020843
H           12.16349931890076        2.64355225991903        0.73202194842968
H           12.28765841434609        4.39436929471247        0.90780555789140
H           10.61885690945323        4.63045778432192        3.54390236851852
H            9.03471019721431        4.77494767065460        2.78136680185019
H           10.41091847657400        5.67352155971688        2.14128363953983
H           11.29299228720963        2.57833378949338        4.02381408439368
H           10.69193285519560        0.51346040314062        5.17371365711398
H            9.05805089715474       -1.04057501782040        4.14182995941433
H            8.04158222441823       -0.48240263140551        1.98643482892710
H            8.93552384323412       -0.09308688650769       -1.36081860743855
H            8.52993112574836       -3.46346508788962       -4.17451776268099
H            7.31133379332148       -5.32835334423410       -5.26212085635129
H            4.91879040118581       -5.71546791370406       -4.74266170968838
H           -1.68895229649302       -1.50021514101798       -2.31652423555396
H           -2.66313746952990        0.38795528527388       -3.57256996442171
H           -2.21082071075574        2.70384602362358       -2.89925904177050
H           -0.76293359065889        3.18545749893825       -0.95601861324122
H            0.80647142140739        3.14700530049512        1.10489371765273
H            2.25078387738463        2.59365357065008        3.03170815760552
H            2.68045836433836        0.25446563640044        3.63553840489378
H            1.68639553444111       -1.58571466492708        2.32560990483005
H            0.47984707948881       -3.53315753526609        1.33055190470415
H           -1.11285919774770       -4.85015056203295        2.68825015571885
H           -8.04966923943144       -0.44187347436813       -2.00099962094923
H           -9.07011284581453       -0.96683805706867       -4.16312771702018
H          -10.68718415364141        0.61463557977158       -5.17952612214109
H          -11.26755656431626        2.67363692012682       -4.00863422535594

 projected vibrational frequencies (cm⁻¹)
eigval :       -0.00    -0.00     0.00     0.00     0.00     0.00
eigval :        3.40     4.21     4.73     6.51    10.65    14.91
eigval :       17.82    19.37    22.34    22.53    25.12    28.25
eigval :       38.01    42.38    45.54    50.10    59.95    69.13
eigval :       74.23    75.66    83.86    85.00    87.65    96.24
eigval :       96.54    99.31    99.85   122.28   123.67   129.48
eigval :      129.66   129.79   136.01   143.78   150.81   153.27
eigval :      167.01   172.03   172.14   192.00   192.04   206.23
eigval :      207.45   214.97   217.05   218.74   226.41   233.76
eigval :      237.48   240.85   243.63   248.00   250.03   254.81
eigval :      261.71   280.86   291.50   297.00   297.08   310.96
eigval :      312.98   313.70   318.16   327.58   327.96   329.42
eigval :      336.77   342.96   344.86   350.30   356.46   369.63
eigval :      371.07   376.70   379.73   381.87   382.39   390.23
eigval :      391.00   392.81   408.44   409.25   411.30   415.01
eigval :      419.38   420.39   429.73   432.79   437.42   450.06
eigval :      450.20   452.72   460.65   461.40   464.64   476.53
eigval :      495.43   504.24   505.75   508.26   508.27   509.36
eigval :      510.24   528.91   529.39   535.53   537.03   540.77
eigval :      543.44   544.39   544.44   546.42   552.98   559.66
eigval :      563.99   572.87   578.30   585.15   585.26   586.33
eigval :      590.11   597.28   603.08   615.52   627.32   628.06
eigval :      632.13   632.76   641.63   642.07   652.94   660.28
eigval :      673.42   673.63   674.22   674.32   684.08   686.18
eigval :      686.21   687.17   688.56   691.62   699.10   699.13
eigval :      705.91   706.31   721.85   727.25   727.76   746.38
eigval :      753.19   764.63   769.99   774.89   775.03   776.62
eigval :      776.62   784.14   785.68   785.77   803.76   804.28
eigval :      813.79   819.96   824.48   825.00   825.89   826.05
eigval :      844.64   848.26   849.02   850.51   858.49   859.23
eigval :      863.01   863.43   868.92   868.97   869.38   869.42
eigval :      874.51   875.90   879.34   895.27   896.37   898.16
eigval :      898.77   901.26   902.13   902.21   904.60   905.06
eigval :      906.05   908.67   909.06   913.64   913.71   914.74
eigval :      914.78   915.34   915.39   922.31   922.34   922.47
eigval :      922.51   925.82   926.68   937.58   937.60   957.76
eigval :      957.78   973.43   988.66   993.47  1004.36  1013.69
eigval :     1013.70  1014.15  1044.21  1044.69  1067.01  1076.00
eigval :     1076.16  1076.21  1076.84  1081.28  1087.25  1088.80
eigval :     1090.97  1091.23  1106.54  1107.74  1107.99  1114.83
eigval :     1114.87  1123.32  1125.71  1138.95  1138.97  1144.14
eigval :     1147.47  1149.51  1153.87  1153.97  1154.48  1155.71
eigval :     1167.23  1167.31  1176.36  1177.55  1178.06  1178.53
eigval :     1183.57  1184.85  1184.88  1185.40  1185.43  1196.81
eigval :     1199.33  1202.89  1205.05  1209.58  1213.21  1216.29
eigval :     1218.37  1220.06  1229.12  1229.41  1235.14  1235.73
eigval :     1240.47  1242.90  1244.32  1244.49  1246.70  1248.65
eigval :     1248.83  1257.89  1260.93  1261.00  1266.09  1266.85
eigval :     1274.41  1274.59  1286.73  1294.71  1294.72  1308.81
eigval :     1309.05  1316.86  1319.46  1319.70  1322.44  1322.79
eigval :     1326.92  1331.59  1332.23  1332.34  1335.22  1335.26
eigval :     1343.97  1344.27  1365.91  1373.09  1379.23  1386.84
eigval :     1391.13  1401.83  1401.83  1413.00  1413.44  1416.09
eigval :     1418.50  1419.66  1419.82  1427.41  1427.47  1428.79
eigval :     1430.41  1431.64  1432.13  1437.60  1439.10  1454.49
eigval :     1457.27  1460.60  1460.63  1462.90  1472.25  1480.99
eigval :     1482.84  1488.17  1488.22  1488.81  1488.84  1492.15
eigval :     1494.63  1498.71  1498.73  1502.51  1502.51  1506.42
eigval :     1512.47  1514.44  1522.55  1538.14  1541.81  1546.54
eigval :     1548.05  1559.52  1559.56  1563.77  1573.98  1574.07
eigval :     1577.14  1582.01  1582.03  1584.87  1592.82  1593.07
eigval :     1593.40  1601.52  1602.81  3029.40  3029.48  3031.23
eigval :     3031.30  3042.70  3042.73  3045.19  3045.20  3051.44
eigval :     3051.47  3054.81  3054.94  3070.23  3070.86  3077.65
eigval :     3078.33  3078.45  3079.14  3081.51  3083.16  3083.22
eigval :     3083.40  3083.46  3083.53  3085.58  3087.25  3088.36
eigval :     3088.57  3088.72  3088.76  3088.81  3088.86  3092.84
eigval :     3093.63  3095.11  3095.76  3097.27  3097.47  3098.81
eigval :     3098.92  3098.98  3099.22  3101.42  3101.50  3105.24
eigval :     3105.94  3110.50  3110.80  3110.88  3111.05  3111.84
eigval :     3112.00  3122.83  3123.40

   temp. (K)  partition function   enthalpy   heat capacity  entropy
                                   cal/mol     cal/K/mol   cal/K/mol   J/K/mol
 298.15  VIB  0.758E+35            42003.564    264.407    263.915
         ROT  0.587E+09              888.752      2.981     43.106
         INT  0.445E+44            42892.316    267.388    307.020
         TR   0.361E+29             1481.254      4.968     46.890
         TOT                       44373.5703   272.3560   353.9101  1480.7598

       T/K    H(0)-H(T)+PV         H(T)/Eh          T*S/Eh         G(T)/Eh
   ------------------------------------------------------------------------
    298.15    0.707138E-01    0.114944E+01    0.168154E+00    0.981285E+00
   ------------------------------------------------------------------------

         :::::::::::::::::::::::::::::::::::::::::::::::::::::
         ::                  THERMODYNAMIC                  ::
         :::::::::::::::::::::::::::::::::::::::::::::::::::::
         :: total free energy        -220.403807942140 Eh   ::
         ::.................................................::
         :: total energy             -221.385092707040 Eh   ::
         :: zero point energy           1.078725077988 Eh   ::
         :: G(RRHO) w/o ZPVE           -0.097440313087 Eh   ::
         :: G(RRHO) contrib.            0.981284764901 Eh   ::
         :::::::::::::::::::::::::::::::::::::::::::::::::::::

           -------------------------------------------------
          | TOTAL ENERGY             -221.385092707040 Eh   |
          | TOTAL ENTHALPY           -220.235653843577 Eh   |
          | TOTAL FREE ENERGY        -220.403807942140 Eh   |
          | GRADIENT NORM               0.000159245198 Eh/α |
           -------------------------------------------------

 * finished run on 2025/07/18 at 10:35:00.253
