   * xtb version 6.7.1 (edcfbbe) compiled by 'albert@albert-system' on 2024-07-22

   ID    Z sym.   atoms
    1    6 C      1-23, 25, 26
    2   35 Br     24
    3    1 H      27-59

          program call               : xtb data2507/gas/[BMIM][PF6]/[BMIM][PF6]_gas_T1_crest.xyz --gfn 2 --spinpol --tblite --uhf 2 --ohess vtight --parallel 40 --molden --ceasefiles --namespace data2507/gas/[BMIM][PF6]/[BMIM][PF6]_gas_T1_finalOpt
 * total energy  :   -74.3951712 Eh     change        0.2223693E-07 Eh
 * total energy  :   -74.3951803 Eh     change       -0.9059242E-05 Eh
 * total energy  :   -74.3951835 Eh     change       -0.3275269E-05 Eh
 * total energy  :   -74.3951854 Eh     change       -0.1890435E-05 Eh
 * total energy  :   -74.3951883 Eh     change       -0.2835667E-05 Eh
 * total energy  :   -74.3951901 Eh     change       -0.1855240E-05 Eh
 * total energy  :   -74.3951916 Eh     change       -0.1517239E-05 Eh
 * total energy  :   -74.3951933 Eh     change       -0.1668580E-05 Eh
 * total energy  :   -74.3951952 Eh     change       -0.1939130E-05 Eh
 * total energy  :   -74.3951970 Eh     change       -0.1713463E-05 Eh
 * total energy  :   -74.3952013 Eh     change       -0.1071365E-05 Eh
 * total energy  :   -74.3952024 Eh     change       -0.1106233E-05 Eh
 * total energy  :   -74.3952034 Eh     change       -0.1007750E-05 Eh
 * total energy  :   -74.3952043 Eh     change       -0.8889414E-06 Eh
 * total energy  :   -74.3952050 Eh     change       -0.7134381E-06 Eh
 * total energy  :   -74.3952056 Eh     change       -0.6360890E-06 Eh
 * total energy  :   -74.3952062 Eh     change       -0.6290462E-06 Eh
 * total energy  :   -74.3952069 Eh     change       -0.6446397E-06 Eh
 * total energy  :   -74.3952069 Eh     change       -0.8596572E-09 Eh
   *** GEOMETRY OPTIMIZATION CONVERGED AFTER 22 ITERATIONS ***

 final structure:
================
59
 xtb: 6.7.1 (edcfbbe)
C           -1.32981428859712        3.89139993857374        0.69595394787505
C           -0.65428308883325        4.49194182336567       -0.53053605492031
C            0.14084608956794        3.46719190004573       -1.34046362291023
C            1.36958954078600        2.95004392794324       -0.59499292677587
C            2.36119770003320        2.20729600335181       -1.48975912925933
C            1.86034359433149        0.90475814125453       -2.11841765349522
C            1.67605470725418       -0.27560541201808       -1.13532326447970
C            1.50190699377643       -1.57170378791623       -1.96197437183529
C            1.58305575368325       -2.87975726346684       -1.16975990645967
C            0.44355029044620       -3.15599456029751       -0.18881818312507
C           -0.92395593820484       -3.30823451898805       -0.84807134202568
C           -2.01748657735271       -3.57863938907892        0.18254611991311
C           -3.39594079978125       -3.66510133829891       -0.46049214486687
C            2.82923976229455       -0.38190504601358       -0.16315412305212
C            4.15049103541143       -0.59371372929548       -0.41053920673542
C            5.05394162907419       -0.65411799342441        0.66668130442672
C            4.60250103474960       -0.49761807235878        1.99051621603126
C            3.28463784931542       -0.28608686794737        2.27356923380114
C            2.34902758909433       -0.22230914118920        1.19534223934788
C            0.98189957787968       -0.02975667060335        1.17881954641869
C            0.02219901599724        0.15941597977954        2.23381250073317
C           -1.29007510175993        0.29101485659651        1.92052376797568
C           -1.71793808301430        0.25631143952495        0.56539964743896
Br          -3.56405328728938        0.39774520990074        0.18249422929196
C           -0.80202743272311        0.09779976125689       -0.50104872256924
C            0.51161252225415       -0.05092464250106       -0.20681711559624
H           -0.59764452210690        3.46819464312812        1.37921557844225
H           -1.89334017922847        4.65403716678772        1.22886588677644
H           -2.01948639460953        3.10535384301297        0.39943404350829
H           -1.42123441415600        4.92938076593311       -1.17445256447020
H            0.01343249370013        5.29879190825907       -0.21873612322465
H            0.46607459488021        3.93643502183709       -2.27284413392065
H           -0.51622246342527        2.63462119428681       -1.59705045037601
H            1.06011133384473        2.30116398756134        0.22416090295607
H            1.89434585241058        3.80313349478255       -0.15599210433979
H            3.25965607379765        1.99053293723547       -0.90664430361794
H            2.65537186077378        2.87585511175225       -2.30399717475437
H            2.59413587459127        0.60227900851713       -2.86965975763363
H            0.91659597231761        1.08122569775832       -2.63578885755031
H            0.55381874720685       -1.51893035560344       -2.49838810180663
H            2.29769650703062       -1.59878435433501       -2.71060526605565
H            1.61936500453384       -3.69924456448563       -1.89320193242025
H            2.52455842147411       -2.89220314461623       -0.61496443817637
H            0.67772553800844       -4.08066661836945        0.34597269739279
H            0.39669108008178       -2.35997594043337        0.55558470719894
H           -1.17731979084515       -2.39679842314604       -1.39054539480561
H           -0.89249748567937       -4.12751376175922       -1.57051526303388
H           -2.01300967697121       -2.77627693600777        0.92493841914063
H           -1.79936160657402       -4.51178793963297        0.70721345403354
H           -3.42237320995667       -4.46067542094002       -1.20218771893525
H           -3.64661752381258       -2.72870585912690       -0.95418237934107
H           -4.15688266259278       -3.86857006436945        0.28919216819745
H            4.51725600375879       -0.71523306009557       -1.41966850636287
H            6.10243563920240       -0.82116491598102        0.47673564438875
H            5.32511950285225       -0.54841688566930        2.79246322363371
H            2.93824417465103       -0.16660747899655        3.28850664906783
H            0.35728204895924        0.18765359859870        3.25856925459445
H           -2.03461248924245        0.42628251398786        2.69063081133781
H           -1.17017040136847        0.09018458523322       -1.51626917699043

 projected vibrational frequencies (cm⁻¹)
eigval :       -0.00    -0.00    -0.00    -0.00     0.00     0.00
eigval :       21.12    23.76    37.42    41.34    47.69    57.13
eigval :       65.01    75.82    80.24    87.15   105.09   120.28
eigval :      126.51   132.29   150.67   167.28   185.80   197.65
eigval :      208.14   221.06   227.56   238.32   242.79   267.98
eigval :      277.48   296.73   299.13   307.89   342.81   359.32
eigval :      396.50   400.47   404.36   431.08   459.12   466.19
eigval :      481.95   487.44   501.05   523.84   548.53   565.52
eigval :      586.41   651.42   676.51   689.97   708.61   737.48
eigval :      759.35   761.61   769.60   794.74   802.82   808.72
eigval :      820.15   846.76   857.88   866.03   882.34   888.73
eigval :      896.18   905.63   922.45   931.96   934.49   942.87
eigval :      957.40   969.78   985.71   992.45  1007.00  1018.57
eigval :     1038.43  1042.34  1056.61  1076.93  1086.16  1095.72
eigval :     1104.18  1113.50  1118.89  1126.67  1137.74  1140.42
eigval :     1148.91  1150.95  1156.52  1159.25  1175.33  1176.28
eigval :     1197.28  1213.06  1217.66  1227.33  1250.88  1252.20
eigval :     1263.11  1271.67  1277.61  1280.01  1283.97  1287.68
eigval :     1297.86  1312.28  1315.25  1317.41  1326.68  1332.81
eigval :     1349.68  1352.90  1353.65  1361.80  1364.87  1368.78
eigval :     1371.75  1374.67  1377.73  1415.05  1417.06  1473.93
eigval :     1482.68  1483.35  1485.27  1487.96  1488.98  1489.96
eigval :     1491.37  1492.36  1493.30  1495.63  1501.81  1504.29
eigval :     1504.33  1506.67  1508.64  1537.04  1563.69  1634.85
eigval :     2950.54  2952.55  2955.60  2956.24  2958.19  2958.37
eigval :     2960.50  2962.22  2963.46  2970.46  2975.61  2976.42
eigval :     2977.10  2977.80  2988.48  2991.81  2997.11  2998.60
eigval :     3003.02  3006.59  3029.39  3032.57  3033.48  3039.37
eigval :     3040.83  3048.31  3073.00  3074.22  3079.55  3086.55
eigval :     3090.74  3099.59  3101.05

   temp. (K)  partition function   enthalpy   heat capacity  entropy
                                   cal/mol     cal/K/mol   cal/K/mol   J/K/mol
 298.15  VIB  0.702E+12            15643.037     94.585     98.740
         ROT  0.145E+08              888.752      2.981     35.756
         INT  0.102E+20            16531.790     97.566    134.496
         TR   0.813E+28             1481.254      4.968     43.929
         TOT                       18013.0437   102.5344   178.4249   746.5296

       T/K    H(0)-H(T)+PV         H(T)/Eh          T*S/Eh         G(T)/Eh
   ------------------------------------------------------------------------
    298.15    0.287056E-01    0.534741E+00    0.847754E-01    0.449966E+00
   ------------------------------------------------------------------------

         :::::::::::::::::::::::::::::::::::::::::::::::::::::
         ::                  THERMODYNAMIC                  ::
         :::::::::::::::::::::::::::::::::::::::::::::::::::::
         :: total free energy         -73.945240822906 Eh   ::
         ::.................................................::
         :: total energy              -74.395206875279 Eh   ::
         :: zero point energy           0.506035844269 Eh   ::
         :: G(RRHO) w/o ZPVE           -0.056069791897 Eh   ::
         :: G(RRHO) contrib.            0.449966052372 Eh   ::
         :::::::::::::::::::::::::::::::::::::::::::::::::::::

           -------------------------------------------------
          | TOTAL ENERGY              -74.395206875279 Eh   |
          | TOTAL ENTHALPY            -73.860465418720 Eh   |
          | TOTAL FREE ENERGY         -73.945240822906 Eh   |
          | GRADIENT NORM               0.000057200030 Eh/α |
           -------------------------------------------------

 * finished run on 2025/09/10 at 08:00:20.684
