   * xtb version 6.7.1 (edcfbbe) compiled by 'albert@albert-system' on 2024-07-22

   ID    Z sym.   atoms
    1    6 C      1-23, 25, 26
    2   35 Br     24
    3    1 H      27-59

          program call               : xtb data2507/gas/[BMIM][PF6]/[BMIM][PF6]_gas_S0_finalOpt.xtbopt.xyz --gfn 2 --spinpol --tblite --uhf 2 --ohess vtight --parallel 40 --molden --ceasefiles --namespace data2507/gas/[BMIM][PF6]/[BMIM][PF6]_gas_T1_preOpt
 * total energy  :   -74.3812311 Eh     change       -0.1684839E-09 Eh
 * total energy  :   -74.3929237 Eh     change       -0.1169256E-01 Eh
 * total energy  :   -74.3950664 Eh     change       -0.2142697E-02 Eh
 * total energy  :   -74.3951305 Eh     change       -0.6407567E-04 Eh
 * total energy  :   -74.3951448 Eh     change       -0.1431038E-04 Eh
 * total energy  :   -74.3951471 Eh     change       -0.2352949E-05 Eh
 * total energy  :   -74.3951465 Eh     change        0.6246765E-06 Eh
 * total energy  :   -74.3951484 Eh     change       -0.1869297E-05 Eh
 * total energy  :   -74.3951490 Eh     change       -0.5813815E-06 Eh
 * total energy  :   -74.3951495 Eh     change       -0.5003143E-06 Eh
 * total energy  :   -74.3951513 Eh     change       -0.6086541E-06 Eh
 * total energy  :   -74.3951519 Eh     change       -0.5734748E-06 Eh
 * total energy  :   -74.3951523 Eh     change       -0.4162444E-06 Eh
 * total energy  :   -74.3951527 Eh     change       -0.4002004E-06 Eh
 * total energy  :   -74.3951530 Eh     change       -0.2567571E-06 Eh
 * total energy  :   -74.3951533 Eh     change       -0.3079313E-06 Eh
 * total energy  :   -74.3951535 Eh     change       -0.2768112E-06 Eh
 * total energy  :   -74.3951537 Eh     change       -0.2023716E-06 Eh
 * total energy  :   -74.3951537 Eh     change       -0.3178926E-08 Eh
   *** GEOMETRY OPTIMIZATION CONVERGED AFTER 22 ITERATIONS ***

 final structure:
================
59
 xtb: 6.7.1 (edcfbbe)
C            7.60266369126708       -1.19243642262846       -0.87973626103332
C            6.31297966320443       -1.29404391067877       -1.68461035177864
C            5.07714144529584       -1.15771756970345       -0.79847082857572
C            3.78157972719293       -1.25845167302579       -1.59913617865453
C            2.54762654932849       -1.12495226332012       -0.71114202103978
C            1.25690623108358       -1.23011670755678       -1.51934107475510
C           -0.00298552684648       -1.10418693804946       -0.64136772049665
C           -1.26096579987720       -1.22297123949907       -1.52326867330747
C           -2.55324552956371       -1.10882148542631       -0.71881045155555
C           -3.78592437625099       -1.23727031927613       -1.60927940218796
C           -5.08228194751797       -1.12721089749639       -0.81113009229932
C           -6.31759140734958       -1.25951641388100       -1.69857887549493
C           -7.60765457224344       -1.15013577970608       -0.89532842868008
C           -0.00817583942939       -2.13131742388139        0.46681225073357
C           -0.01124697900133       -3.48865122987521        0.38533533221096
C           -0.01685829931598       -4.25190603937361        1.56827363498511
C           -0.01941019811613       -3.62181239740672        2.82949736890863
C           -0.01632454778308       -2.26395951929280        2.94742206755053
C           -0.01040390285489       -1.46715719389813        1.75833782743690
C           -0.00617976443611       -0.10072210457572        1.57009192684144
C           -0.00628917307472        0.99487943455410        2.50154728075977
C           -0.00147016147382        2.26650904414218        2.02967507637625
C            0.00373868682693        2.51647246724776        0.63295939742677
Br           0.01003187372685        4.30418943879160        0.02148112096111
C            0.00389198913903        1.46207976384493       -0.31435062949288
C           -0.00102299916425        0.18773544313226        0.14095888251033
H            8.46926319890625       -1.29227612020778       -1.52918731849919
H            7.66145639249142       -0.23104971776630       -0.37403100796628
H            7.64513396718522       -1.97695692560001       -0.12721523999364
H            6.29807975436788       -0.51098669865096       -2.44621024782578
H            6.28192610142155       -2.25671273194801       -2.20028040976518
H            5.10781197904865       -0.19522416521952       -0.28229860613943
H            5.09124484572215       -1.94056791804009       -0.03632312767973
H            3.75150129581287       -2.22041173335732       -2.11684185464379
H            3.76604291432573       -0.47424757815252       -2.36004538852710
H            2.57445049853566       -0.16260571175651       -0.19404109681001
H            2.56145141222626       -1.90772700755464        0.05126960771835
H            1.23119430665413       -2.19242053693001       -2.03509785996854
H            1.23927724098985       -0.44437601621269       -2.27773131332414
H           -1.23606307531169       -0.43812726314479       -2.28238272989136
H           -1.23978569094068       -2.18598343115876       -2.03790205589180
H           -2.57340424068375       -1.88986519645097        0.04525042215918
H           -2.57596682284097       -0.14524921987529       -0.20380654975644
H           -3.76434892268937       -0.45497844433427       -2.37200953141551
H           -3.76035289553649       -2.20063075009728       -2.12460216531022
H           -5.10172839034779       -1.90771761725191       -0.04667928978013
H           -5.10854853118566       -0.16305887528450       -0.29782682913410
H           -6.29049995728406       -2.22342749170004       -2.21212883869173
H           -6.29808802560803       -0.47816772998470       -2.46183504795047
H           -7.65458364441855       -1.93284440010467       -0.14117697884997
H           -8.47404575768049       -1.24728966730820       -1.54545317446760
H           -7.66243550955491       -0.18742030626210       -0.39171371452755
H           -0.00956274999349       -3.99202430739045       -0.57073180777338
H           -0.01940212815936       -5.32885294679814        1.51077990193368
H           -0.02393993251643       -4.24106404998359        3.71515592486651
H           -0.01829487312108       -1.78110221273284        3.91225595550485
H           -0.01025904503768        0.79287152178881        3.56081921478869
H           -0.00150733486318        3.11017661029897        2.70349377728290
H            0.00771246547446        1.69763962544319       -1.36778049908321

 projected vibrational frequencies (cm⁻¹)
eigval :       -0.00    -0.00    -0.00    -0.00     0.00     0.00
eigval :       15.62    16.91    26.33    31.44    38.33    40.27
eigval :       42.20    68.23    75.10    85.89   101.72   110.27
eigval :      117.11   120.07   126.94   136.61   145.46   146.82
eigval :      178.09   191.93   196.31   201.25   233.26   233.50
eigval :      256.54   256.63   276.34   281.40   309.39   333.12
eigval :      353.24   392.76   419.85   434.05   452.89   456.53
eigval :      461.41   482.21   504.05   561.21   566.88   571.17
eigval :      590.53   666.69   692.97   705.36   706.78   749.38
eigval :      762.20   769.04   769.49   777.50   780.62   799.73
eigval :      805.62   826.07   849.35   858.91   879.88   889.61
eigval :      904.49   907.05   926.05   937.31   940.38   941.63
eigval :      986.08   992.35   998.48  1013.59  1034.45  1038.20
eigval :     1058.78  1062.83  1066.21  1088.32  1090.30  1104.20
eigval :     1105.04  1107.59  1108.42  1110.43  1125.76  1135.24
eigval :     1136.99  1139.43  1157.13  1175.75  1187.84  1205.99
eigval :     1206.48  1213.36  1236.67  1239.41  1243.75  1250.71
eigval :     1255.86  1266.41  1270.05  1278.03  1285.86  1287.22
eigval :     1289.85  1291.29  1294.83  1298.79  1310.90  1317.58
eigval :     1331.79  1335.33  1343.92  1352.17  1363.85  1367.77
eigval :     1370.59  1376.92  1377.75  1415.37  1415.43  1478.75
eigval :     1486.10  1487.01  1493.68  1494.64  1495.20  1495.55
eigval :     1495.60  1499.76  1499.78  1501.05  1501.63  1503.61
eigval :     1503.65  1506.93  1507.01  1538.61  1566.19  1639.93
eigval :     2953.28  2953.36  2957.51  2957.90  2961.73  2962.77
eigval :     2969.25  2970.68  2972.46  2972.92  2974.07  2974.61
eigval :     2976.52  2977.43  2978.50  2978.69  2980.40  2983.00
eigval :     2988.09  2990.28  3030.30  3030.36  3032.89  3032.94
eigval :     3038.55  3038.61  3073.34  3074.02  3086.70  3089.49
eigval :     3092.00  3100.27  3101.99

   temp. (K)  partition function   enthalpy   heat capacity  entropy
                                   cal/mol     cal/K/mol   cal/K/mol   J/K/mol
 298.15  VIB  0.309E+14            16262.242     93.734    104.606
         ROT  0.265E+08              888.752      2.981     36.951
         INT  0.821E+21            17150.995     96.715    141.557
         TR   0.813E+28             1481.254      4.968     43.929
         TOT                       18632.2486   101.6835   185.4862   776.0744

       T/K    H(0)-H(T)+PV         H(T)/Eh          T*S/Eh         G(T)/Eh
   ------------------------------------------------------------------------
    298.15    0.296924E-01    0.534427E+00    0.881305E-01    0.446297E+00
   ------------------------------------------------------------------------

         :::::::::::::::::::::::::::::::::::::::::::::::::::::
         ::                  THERMODYNAMIC                  ::
         :::::::::::::::::::::::::::::::::::::::::::::::::::::
         :: total free energy         -73.948857216049 Eh   ::
         ::.................................................::
         :: total energy              -74.395153759731 Eh   ::
         :: zero point energy           0.504734664906 Eh   ::
         :: G(RRHO) w/o ZPVE           -0.058438121225 Eh   ::
         :: G(RRHO) contrib.            0.446296543682 Eh   ::
         :::::::::::::::::::::::::::::::::::::::::::::::::::::

           -------------------------------------------------
          | TOTAL ENERGY              -74.395153759731 Eh   |
          | TOTAL ENTHALPY            -73.860726716679 Eh   |
          | TOTAL FREE ENERGY         -73.948857216049 Eh   |
          | GRADIENT NORM               0.000030499189 Eh/α |
           -------------------------------------------------

 * finished run on 2025/09/10 at 07:41:37.148
