   * xtb version 6.7.1 (edcfbbe) compiled by 'albert@albert-system' on 2024-07-22

   ID    Z sym.   atoms
    1    6 C      1-23, 25, 26
    2   35 Br     24
    3    1 H      27-59

          program call               : xtb data2507/gas/[BMIM][PF6]/[BMIM][PF6].xyz --gfn 2 --ohess vtight --parallel 40 --molden --ceasefiles --namespace data2507/gas/[BMIM][PF6]/[BMIM][PF6]_gas_S0_preOpt
          :  Hamiltonian                  GFN2-xTB          :
 * total energy  :   -74.4840042 Eh     change       -0.1589953E-08 Eh
 * total energy  :   -74.4882557 Eh     change       -0.4251431E-02 Eh
 * total energy  :   -74.4890737 Eh     change       -0.8179761E-03 Eh
 * total energy  :   -74.4893485 Eh     change       -0.2748393E-03 Eh
 * total energy  :   -74.4894985 Eh     change       -0.1500322E-03 Eh
 * total energy  :   -74.4895535 Eh     change       -0.5501944E-04 Eh
 * total energy  :   -74.4896018 Eh     change       -0.4820810E-04 Eh
 * total energy  :   -74.4896603 Eh     change       -0.5853870E-04 Eh
 * total energy  :   -74.4896982 Eh     change       -0.3786149E-04 Eh
 * total energy  :   -74.4897587 Eh     change       -0.6054441E-04 Eh
 * total energy  :   -74.4902922 Eh     change       -0.5900552E-06 Eh
 * total energy  :   -74.4902927 Eh     change       -0.4764726E-06 Eh
 * total energy  :   -74.4902933 Eh     change       -0.5716623E-06 Eh
 * total energy  :   -74.4902941 Eh     change       -0.8074123E-06 Eh
 * total energy  :   -74.4902951 Eh     change       -0.1000407E-05 Eh
 * total energy  :   -74.4902961 Eh     change       -0.9985631E-06 Eh
 * total energy  :   -74.4902968 Eh     change       -0.7181204E-06 Eh
 * total energy  :   -74.4902972 Eh     change       -0.4351424E-06 Eh
 * total energy  :   -74.4902973 Eh     change       -0.7470788E-08 Eh
   *** GEOMETRY OPTIMIZATION CONVERGED AFTER 68 ITERATIONS ***

 final structure:
================
59
 xtb: 6.7.1 (edcfbbe)
C           -5.21968016808509       -2.49249419161386        0.82673275961685
C           -4.46770193525710       -2.08315553339807       -0.43411157956327
C           -4.71633090486168       -0.62920828378077       -0.83858940616335
C           -4.28552369261347        0.41437273365310        0.19542697040688
C           -2.81956664218062        0.34100678019320        0.63017264045173
C           -1.85935808657236        0.59177643261993       -0.52842872304254
C           -0.34584979090410        0.52243575499047       -0.19507340928768
C            0.07105121159402       -0.92378304929148        0.11854299688280
C            1.49865668453536       -1.10256803125167        0.64089092399317
C            2.58455768884420       -0.87341606576678       -0.40759618209674
C            3.99087655922380       -1.16045339597308        0.12132342899482
C            4.27395964049299       -2.64493005130519        0.34341287132522
C            5.71588006608228       -2.88088294484416        0.77641067739401
C            0.36544912958356        1.12151460020098       -1.38918468514391
C            0.42401767000535        0.65535258666525       -2.68555711866355
C            1.09729771232318        1.40831161962074       -3.63783927403728
C            1.68896198605200        2.61631629256215       -3.30170557296077
C            1.62323222467183        3.09984665816338       -2.00519112858908
C            0.95776148188229        2.34761475545885       -1.05150503131822
C            0.75500353440197        2.57696380509238        0.36850385756903
C            1.18658906739009        3.60926156715527        1.18549487554564
C            0.90165301674670        3.55756465605290        2.53937956265845
C            0.20878198509897        2.47212331490574        3.04980018452706
Br          -0.14515340398240        2.39969285303805        4.92635896697405
C           -0.23460193569754        1.42960035266147        2.24770724341622
C            0.02649341513677        1.49774021599772        0.89521533351709
H           -5.08967838929586       -3.55598813092036        1.01521448166876
H           -4.85603924737186       -1.94864386164130        1.69465743502970
H           -6.28331259599977       -2.29215704825351        0.71645497674449
H           -3.39872396582406       -2.25218086259395       -0.29275440169901
H           -4.78935374098405       -2.72339661374019       -1.25958331603281
H           -5.78587454118921       -0.49693364295404       -1.02130560661371
H           -4.20419286839870       -0.43623718715744       -1.78360085380236
H           -4.91108890480018        0.31304847702379        1.08425336522900
H           -4.47765877700175        1.40564343794454       -0.22342260054959
H           -2.62754361532752       -0.63201465403280        1.08234685726843
H           -2.66313641533236        1.10299675921224        1.39606735912894
H           -2.06824852277657        1.58439124230532       -0.93743195880187
H           -2.04440749810095       -0.13671634783641       -1.31887228417483
H           -0.61038749256970       -1.31661563626388        0.87538316507193
H           -0.05705596156362       -1.52438767234838       -0.78480696990338
H            1.66764488648798       -0.42873470088416        1.48361222678554
H            1.58119252861088       -2.12506713859522        1.01553070836403
H            2.39041808566755       -1.50670120399718       -1.27688154884458
H            2.54874295108772        0.16399008504045       -0.74146862517055
H            4.71673302317836       -0.77475839615001       -0.59898191729473
H            4.13937708200107       -0.61881816438341        1.05861402639287
H            4.08017765656180       -3.18956450998256       -0.58375586957624
H            3.60478818118806       -3.04144648429253        1.10875527390463
H            5.90217373081671       -3.94141414712850        0.92970031911136
H            5.92397173522600       -2.35778987482961        1.70733205238902
H            6.40683603609335       -2.51692281892896        0.01887815332834
H           -0.03504435849668       -0.28259359806521       -2.96177402820011
H            1.15944375560614        1.04943760857726       -4.65467130819973
H            2.20581882249082        3.18616778740938       -4.05981998896167
H            2.08149855102369        4.04242885509870       -1.74534037485447
H            1.74288753968552        4.44109715589220        0.78131875781265
H            1.22567978301233        4.34808920342096        3.19884120777945
H           -0.75209296760997        0.59119165127631        2.68691910430026

          :  Hamiltonian                  GFN2-xTB          :
         :: gradient norm              0.000056351379 Eh/a0 ::
         :: HOMO-LUMO gap              3.252480059456 eV    ::
         :: SCC energy               -75.681505620924 Eh    ::
         :: -> dispersion             -0.065337214995 Eh    ::
         :: repulsion energy           1.191208366322 Eh    ::

    * Orbital Energies and Occupations

         #    Occupation            Energy/Eh            Energy/eV
      -------------------------------------------------------------
         1        2.0000           -0.8313434             -22.6220
       ...           ...                  ...                  ...
        58        2.0000           -0.4294448             -11.6858
        59        2.0000           -0.4284656             -11.6591
        60        2.0000           -0.4262401             -11.5986
        61        2.0000           -0.4236372             -11.5278
        62        2.0000           -0.4233046             -11.5187
        63        2.0000           -0.4215382             -11.4706
        64        2.0000           -0.4182642             -11.3815
        65        2.0000           -0.4150340             -11.2937
        66        2.0000           -0.4120445             -11.2123
        67        2.0000           -0.4083952             -11.1130
        68        2.0000           -0.4042801             -11.0010
        69        2.0000           -0.3995139             -10.8713
        70        2.0000           -0.3822597             -10.4018 (HOMO)
        71                         -0.2627332              -7.1493 (LUMO)
        72                         -0.2382578              -6.4833
        73                         -0.2266209              -6.1667
        74                         -0.2019889              -5.4964
        75                         -0.1991572              -5.4193
        76                         -0.1237272              -3.3668
        77                         -0.0705819              -1.9206
        78                          0.0369505               1.0055
        79                          0.0418919               1.1399
        80                          0.0449363               1.2228
        81                          0.0473680               1.2889
       ...                                ...                  ...
       142                          0.7200469              19.5935
      -------------------------------------------------------------
                  HL-Gap            0.1195265 Eh            3.2525 eV

     #   Z          covCN         q      C6AA      α(0)
     1   6 C        3.751    -0.101    22.500     6.765
     2   6 C        3.799    -0.051    21.499     6.602
     3   6 C        3.800    -0.058    21.609     6.619
     4   6 C        3.801    -0.058    21.611     6.619
     5   6 C        3.800    -0.056    21.585     6.615
     6   6 C        3.812    -0.054    21.540     6.606
     7   6 C        3.935     0.011    20.330     6.408
     8   6 C        3.804    -0.056    21.571     6.612
     9   6 C        3.801    -0.057    21.597     6.617
    10   6 C        3.801    -0.058    21.626     6.621
    11   6 C        3.802    -0.059    21.631     6.622
    12   6 C        3.800    -0.053    21.520     6.605
    13   6 C        3.752    -0.102    22.515     6.767
    14   6 C        3.062     0.002    27.917     8.665
    15   6 C        2.915    -0.033    28.832     8.805
    16   6 C        2.922    -0.031    28.779     8.797
    17   6 C        2.921    -0.033    28.820     8.804
    18   6 C        2.914    -0.034    28.839     8.806
    19   6 C        3.037    -0.001    28.008     8.680
    20   6 C        3.038     0.000    27.983     8.676
    21   6 C        2.917    -0.034    28.846     8.807
    22   6 C        2.992    -0.039    28.961     8.828
    23   6 C        2.920     0.077    26.275     8.406
    24  35 Br       1.068    -0.181   190.078    22.229
    25   6 C        2.988    -0.041    29.001     8.834
    26   6 C        3.056     0.006    27.836     8.652
    27   1 H        0.925     0.031     2.576     2.510
    28   1 H        0.925     0.036     2.509     2.477
    29   1 H        0.925     0.033     2.542     2.493
    30   1 H        0.924     0.031     2.573     2.509
    31   1 H        0.924     0.026     2.641     2.541
    32   1 H        0.924     0.030     2.584     2.514
    33   1 H        0.924     0.027     2.630     2.536
    34   1 H        0.924     0.036     2.505     2.475
    35   1 H        0.924     0.027     2.626     2.534
    36   1 H        0.925     0.036     2.505     2.475
    37   1 H        0.924     0.032     2.560     2.502
    38   1 H        0.924     0.031     2.568     2.506
    39   1 H        0.924     0.042     2.421     2.433
    40   1 H        0.924     0.037     2.489     2.467
    41   1 H        0.924     0.036     2.504     2.474
    42   1 H        0.924     0.030     2.588     2.516
    43   1 H        0.924     0.034     2.530     2.487
    44   1 H        0.924     0.028     2.611     2.527
    45   1 H        0.924     0.030     2.584     2.514
    46   1 H        0.924     0.030     2.591     2.517
    47   1 H        0.924     0.030     2.592     2.518
    48   1 H        0.924     0.029     2.603     2.523
    49   1 H        0.924     0.030     2.592     2.518
    50   1 H        0.925     0.033     2.544     2.494
    51   1 H        0.925     0.034     2.537     2.491
    52   1 H        0.925     0.033     2.550     2.497
    53   1 H        0.926     0.028     2.608     2.525
    54   1 H        0.926     0.032     2.561     2.503
    55   1 H        0.926     0.031     2.569     2.506
    56   1 H        0.926     0.031     2.571     2.508
    57   1 H        0.926     0.040     2.445     2.445
    58   1 H        0.926     0.049     2.335     2.390
    59   1 H        0.926     0.052     2.297     2.370

molecular dipole:
                 x           y           z       tot (Debye)
 q only:       -0.082      -0.380      -1.100
   full:        0.021      -0.272      -1.534       3.960

 projected vibrational frequencies (cm⁻¹)
eigval :       -0.00    -0.00    -0.00     0.00     0.00     0.00
eigval :       12.59    15.20    23.18    25.95    40.85    43.47
eigval :       53.40    62.28    69.19    84.26    92.67   116.79
eigval :      124.11   127.47   162.40   176.23   197.13   205.71
eigval :      217.49   219.04   230.11   248.90   270.58   275.19
eigval :      284.15   288.79   302.98   305.27   327.83   355.59
eigval :      401.51   404.51   447.32   463.62   468.39   493.23
eigval :      515.23   529.38   542.22   556.81   582.93   616.40
eigval :      622.07   697.60   722.06   724.87   750.93   763.69
eigval :      773.57   777.87   786.99   790.15   822.58   824.65
eigval :      844.86   877.41   879.19   886.40   891.34   907.50
eigval :      909.10   910.23   927.55   930.96   941.56   957.68
eigval :      973.63   992.42  1019.84  1022.98  1041.42  1047.68
eigval :     1068.95  1076.26  1078.38  1087.98  1090.65  1101.09
eigval :     1109.27  1124.33  1130.48  1135.03  1140.87  1152.73
eigval :     1157.28  1162.08  1174.20  1180.62  1191.35  1204.09
eigval :     1210.84  1226.05  1238.19  1241.91  1248.83  1258.16
eigval :     1266.13  1277.69  1280.65  1286.98  1294.10  1303.61
eigval :     1312.49  1313.81  1323.39  1331.14  1346.26  1348.68
eigval :     1360.07  1363.03  1366.69  1369.77  1374.90  1380.25
eigval :     1416.01  1416.53  1417.23  1423.25  1452.19  1468.32
eigval :     1474.75  1484.76  1486.07  1487.78  1491.27  1491.75
eigval :     1496.43  1498.88  1500.18  1504.97  1506.96  1507.85
eigval :     1512.23  1516.23  1572.41  1587.83  1597.44  1605.08
eigval :     2957.59  2957.82  2959.30  2961.49  2962.68  2964.80
eigval :     2966.81  2970.46  2972.85  2977.38  2979.50  2983.94
eigval :     2984.66  2987.05  2987.74  2989.46  2990.09  2995.64
eigval :     3001.69  3008.04  3029.77  3031.14  3032.02  3033.67
eigval :     3037.31  3044.96  3073.38  3077.66  3084.86  3089.50
eigval :     3093.55  3101.33  3102.89

   temp. (K)  partition function   enthalpy   heat capacity  entropy
                                   cal/mol     cal/K/mol   cal/K/mol   J/K/mol
 298.15  VIB  0.728E+13            15430.808     90.974     98.686
         ROT  0.227E+08              888.752      2.981     36.637
         INT  0.165E+21            16319.561     93.955    135.323
         TR   0.813E+28             1481.254      4.968     43.929
         TOT                       17800.8144    98.9228   179.2519   749.9899

       T/K    H(0)-H(T)+PV         H(T)/Eh          T*S/Eh         G(T)/Eh
   ------------------------------------------------------------------------
    298.15    0.283674E-01    0.538668E+00    0.851684E-01    0.453499E+00
   ------------------------------------------------------------------------

         :::::::::::::::::::::::::::::::::::::::::::::::::::::
         ::                  THERMODYNAMIC                  ::
         :::::::::::::::::::::::::::::::::::::::::::::::::::::
         :: total free energy         -74.036798007560 Eh   ::
         ::.................................................::
         :: total energy              -74.490297254605 Eh   ::
         :: zero point energy           0.510300204752 Eh   ::
         :: G(RRHO) w/o ZPVE           -0.056800957707 Eh   ::
         :: G(RRHO) contrib.            0.453499247044 Eh   ::
         :::::::::::::::::::::::::::::::::::::::::::::::::::::

           -------------------------------------------------
          | TOTAL ENERGY              -74.490297254605 Eh   |
          | TOTAL ENTHALPY            -73.951629646392 Eh   |
          | TOTAL FREE ENERGY         -74.036798007560 Eh   |
          | GRADIENT NORM               0.000056376678 Eh/α |
          | HOMO-LUMO GAP               3.252480513285 eV   |
           -------------------------------------------------

 * finished run on 2025/09/10 at 07:24:11.219
