   * xtb version 6.7.1 (edcfbbe) compiled by 'albert@albert-system' on 2024-07-22

   ID    Z sym.   atoms
    1    6 C      1-23, 25, 26
    2   35 Br     24
    3    1 H      27-59

          program call               : xtb data2507/gas/[BMIM][PF6]/[BMIM][PF6]_gas_S0_crest.xyz --gfn 2 --ohess vtight --parallel 40 --molden --ceasefiles --namespace data2507/gas/[BMIM][PF6]/[BMIM][PF6]_gas_S0_finalOpt
          :  Hamiltonian                  GFN2-xTB          :
 * total energy  :   -74.4981326 Eh     change       -0.1268504E-08 Eh
 * total energy  :   -74.4981369 Eh     change       -0.4341645E-05 Eh
 * total energy  :   -74.4981386 Eh     change       -0.1733299E-05 Eh
 * total energy  :   -74.4981412 Eh     change       -0.2560413E-05 Eh
 * total energy  :   -74.4981431 Eh     change       -0.1914380E-05 Eh
 * total energy  :   -74.4981441 Eh     change       -0.9980416E-06 Eh
 * total energy  :   -74.4981448 Eh     change       -0.6929926E-06 Eh
 * total energy  :   -74.4981457 Eh     change       -0.8632311E-06 Eh
 * total energy  :   -74.4981467 Eh     change       -0.1023506E-05 Eh
 * total energy  :   -74.4981474 Eh     change       -0.6915130E-06 Eh
 * total energy  :   -74.4981478 Eh     change       -0.4563711E-06 Eh
 * total energy  :   -74.4981484 Eh     change       -0.5985056E-06 Eh
 * total energy  :   -74.4981494 Eh     change       -0.9623243E-06 Eh
 * total energy  :   -74.4981503 Eh     change       -0.9197354E-06 Eh
 * total energy  :   -74.4981508 Eh     change       -0.4788587E-06 Eh
 * total energy  :   -74.4981509 Eh     change       -0.7835584E-07 Eh
   *** GEOMETRY OPTIMIZATION CONVERGED AFTER 16 ITERATIONS ***

 final structure:
================
59
 xtb: 6.7.1 (edcfbbe)
C            7.60185547682126       -1.19773599958843       -0.90156016914561
C            6.30542240858553       -1.30648716593830       -1.69453107984455
C            5.07746704753315       -1.15402055797483       -0.80017506037901
C            3.77471256204153       -1.26155616639340       -1.58817537774471
C            2.55002928463478       -1.11207106180034       -0.68936238351290
C            1.25202303252893       -1.21882850422221       -1.48626139293335
C           -0.00620929277051       -1.09605937476855       -0.60714082413885
C           -1.26306480524216       -1.21134581605337       -1.48878177946958
C           -2.56268793346046       -1.10531453833765       -0.69443103389597
C           -3.78520574413418       -1.23261158565364       -1.59972890344450
C           -5.09058428045038       -1.13512892937799       -0.81472191438767
C           -6.31535329915440       -1.25858250049830       -1.71795463287118
C           -7.61471942768065       -1.16252888771772       -0.92800674575430
C           -0.00886820447983       -2.12542654092470        0.49832171423654
C           -0.01279900634887       -3.50023292217420        0.39898857892460
C           -0.01245453306397       -4.25534530235420        1.56443927703738
C           -0.00848472411014       -3.64284228273441        2.80813528708397
C           -0.00462782226430       -2.26154803292764        2.91745651590104
C           -0.00461487666067       -1.50594571426776        1.75698850677008
C            0.00036841342083       -0.06595970861591        1.55992574528693
C            0.00756582322187        0.97628481852463        2.47224976372731
C            0.01225943084570        2.27908834135980        2.00166371121712
C            0.00910546205648        2.51557579898659        0.63653986860711
Br           0.01592164648582        4.32036995800341        0.01090849414043
C            0.00203317964313        1.48524745686959       -0.29366946262671
C           -0.00195060293965        0.19184749966469        0.18005627223687
H            8.46289525572556       -1.30792390435712       -1.55668620842357
H            7.66690006289958       -0.23008206338207       -0.40875044589034
H            7.64864405039923       -1.97266043579762       -0.13939841678697
H            6.28665560859388       -0.53394682206827       -2.46668954674687
H            6.26727123998647       -2.27610853216185       -2.19650195649009
H            5.11556427090981       -0.18453025079755       -0.29777717731984
H            5.09559914524913       -1.92624865175730       -0.02730966019713
H            3.73708664963065       -2.23047808006312       -2.09217800365326
H            3.75482699317734       -0.48760494689349       -2.35936922108716
H            2.58907573222092       -0.14466236221445       -0.18311071570241
H            2.56872304672145       -1.88735199881129        0.08014542698122
H            1.22499472141406       -2.18133500267498       -2.00171504304932
H            1.22938506789081       -0.43432941400531       -2.24596166845085
H           -1.23689942118855       -0.42301455315791       -2.24442117236964
H           -1.23755595309331       -2.17117936702858       -2.00928051268718
H           -2.58990562998409       -1.89091579288559        0.06427938677097
H           -2.59572751538709       -0.14465489601825       -0.17502966434293
H           -3.75941932292768       -0.44399409200685       -2.35578802714705
H           -3.74967252431983       -2.19173381384678       -2.12235217032573
H           -5.11704350624408       -1.92518456785020       -0.06027779404021
H           -5.12480022847328       -0.17739829466162       -0.28991744206493
H           -6.28011105915215       -2.21564237033633       -2.24378692079370
H           -6.28902174106292       -0.46712109255490       -2.47056843352855
H           -7.66893669810307       -1.95566999392192       -0.18527314127063
H           -8.47327935129476       -1.25226602707081       -1.58948148302489
H           -7.67725003868911       -0.20687878243949       -0.41194796421973
H           -0.01588319696236       -3.98806095729789       -0.56481081681752
H           -0.01545910791885       -5.33367673679283        1.50119206463113
H           -0.00836465766560       -4.25022924368806        3.70137230592988
H           -0.00114196080650       -1.78672039986350        3.88724962965174
H            0.00961279313770        0.78569924226171        3.53450755202875
H            0.01802977750348        3.10984200506878        2.69065618727980
H            0.00071057815477        1.70307749619343       -1.35076780986723

          :  Hamiltonian                  GFN2-xTB          :
         :: gradient norm              0.000176795469 Eh/a0 ::
         :: HOMO-LUMO gap              3.256456003230 eV    ::
         :: SCC energy               -75.690931837202 Eh    ::
         :: -> dispersion             -0.061717105701 Eh    ::
         :: repulsion energy           1.192780963840 Eh    ::

    * Orbital Energies and Occupations

         #    Occupation            Energy/Eh            Energy/eV
      -------------------------------------------------------------
         1        2.0000           -0.8315965             -22.6289
       ...           ...                  ...                  ...
        58        2.0000           -0.4313888             -11.7387
        59        2.0000           -0.4301963             -11.7062
        60        2.0000           -0.4293173             -11.6823
        61        2.0000           -0.4241258             -11.5410
        62        2.0000           -0.4240898             -11.5401
        63        2.0000           -0.4223388             -11.4924
        64        2.0000           -0.4221094             -11.4862
        65        2.0000           -0.4192610             -11.4087
        66        2.0000           -0.4143757             -11.2757
        67        2.0000           -0.4092901             -11.1374
        68        2.0000           -0.4047184             -11.0129
        69        2.0000           -0.4025885             -10.9550
        70        2.0000           -0.3830173             -10.4224 (HOMO)
        71                         -0.2633447              -7.1660 (LUMO)
        72                         -0.2386709              -6.4946
        73                         -0.2271474              -6.1810
        74                         -0.2024589              -5.5092
        75                         -0.1993991              -5.4259
        76                         -0.1241444              -3.3781
        77                         -0.0702957              -1.9128
        78                          0.0176281               0.4797
        79                          0.0411184               1.1189
        80                          0.0447373               1.2174
        81                          0.0471092               1.2819
       ...                                ...                  ...
       142                          0.7209896              19.6191
      -------------------------------------------------------------
                  HL-Gap            0.1196726 Eh            3.2565 eV

     #   Z          covCN         q      C6AA      α(0)
     1   6 C        3.752    -0.102    22.518     6.767
     2   6 C        3.801    -0.053    21.524     6.605
     3   6 C        3.803    -0.059    21.629     6.621
     4   6 C        3.803    -0.058    21.619     6.620
     5   6 C        3.802    -0.055    21.553     6.610
     6   6 C        3.809    -0.055    21.556     6.609
     7   6 C        3.938     0.011    20.332     6.408
     8   6 C        3.809    -0.055    21.556     6.609
     9   6 C        3.802    -0.055    21.553     6.610
    10   6 C        3.803    -0.058    21.619     6.620
    11   6 C        3.803    -0.059    21.629     6.621
    12   6 C        3.801    -0.053    21.524     6.605
    13   6 C        3.752    -0.102    22.518     6.767
    14   6 C        3.056     0.002    27.916     8.665
    15   6 C        2.915    -0.033    28.810     8.802
    16   6 C        2.922    -0.032    28.789     8.799
    17   6 C        2.921    -0.033    28.812     8.802
    18   6 C        2.914    -0.033    28.824     8.804
    19   6 C        3.038     0.001    27.977     8.676
    20   6 C        3.036     0.001    27.981     8.676
    21   6 C        2.917    -0.034    28.844     8.807
    22   6 C        2.993    -0.040    28.971     8.829
    23   6 C        2.920     0.078    26.257     8.403
    24  35 Br       1.067    -0.180   190.025    22.226
    25   6 C        2.987    -0.039    28.972     8.829
    26   6 C        3.061     0.005    27.854     8.655
    27   1 H        0.925     0.034     2.534     2.489
    28   1 H        0.925     0.034     2.528     2.487
    29   1 H        0.925     0.033     2.538     2.491
    30   1 H        0.924     0.030     2.591     2.517
    31   1 H        0.924     0.029     2.603     2.523
    32   1 H        0.924     0.031     2.576     2.510
    33   1 H        0.924     0.030     2.586     2.515
    34   1 H        0.924     0.029     2.594     2.519
    35   1 H        0.924     0.030     2.580     2.512
    36   1 H        0.924     0.029     2.605     2.524
    37   1 H        0.924     0.031     2.579     2.511
    38   1 H        0.924     0.037     2.496     2.471
    39   1 H        0.924     0.036     2.504     2.475
    40   1 H        0.924     0.036     2.504     2.474
    41   1 H        0.924     0.036     2.497     2.471
    42   1 H        0.924     0.031     2.578     2.511
    43   1 H        0.924     0.029     2.606     2.524
    44   1 H        0.924     0.030     2.580     2.512
    45   1 H        0.924     0.029     2.594     2.519
    46   1 H        0.924     0.030     2.586     2.515
    47   1 H        0.924     0.031     2.576     2.510
    48   1 H        0.924     0.029     2.603     2.523
    49   1 H        0.924     0.030     2.591     2.517
    50   1 H        0.925     0.033     2.538     2.491
    51   1 H        0.925     0.034     2.534     2.489
    52   1 H        0.925     0.034     2.529     2.487
    53   1 H        0.926     0.030     2.580     2.512
    54   1 H        0.926     0.032     2.561     2.503
    55   1 H        0.926     0.031     2.566     2.505
    56   1 H        0.926     0.032     2.564     2.504
    57   1 H        0.926     0.041     2.437     2.441
    58   1 H        0.926     0.049     2.328     2.386
    59   1 H        0.926     0.049     2.333     2.389

molecular dipole:
                 x           y           z       tot (Debye)
 q only:       -0.004      -1.184      -0.018
   full:       -0.005      -1.573       0.183       4.026

 projected vibrational frequencies (cm⁻¹)
eigval :       -0.00    -0.00    -0.00     0.00     0.00     0.00
eigval :       16.13    17.42    27.07    36.57    37.63    40.30
eigval :       47.03    66.87    74.16    89.76   110.21   113.64
eigval :      117.48   119.74   132.35   135.59   146.29   165.52
eigval :      178.59   197.46   207.24   230.72   233.96   234.91
eigval :      257.23   258.88   276.15   311.50   323.68   361.82
eigval :      401.56   427.28   436.28   454.60   461.93   466.48
eigval :      483.12   515.09   543.92   568.35   586.54   615.92
eigval :      619.28   712.34   721.66   729.11   764.27   769.72
eigval :      771.23   780.53   781.13   782.02   810.58   822.41
eigval :      827.37   863.64   876.36   880.42   906.56   908.71
eigval :      911.32   928.54   929.49   940.57   941.86   985.12
eigval :      993.31  1013.16  1024.82  1036.72  1062.01  1062.81
eigval :     1077.48  1087.63  1089.35  1094.90  1106.28  1106.88
eigval :     1108.34  1110.82  1112.64  1134.78  1135.58  1136.63
eigval :     1148.64  1155.82  1182.31  1204.02  1207.34  1214.64
eigval :     1222.38  1226.95  1239.11  1245.03  1247.76  1255.71
eigval :     1268.43  1271.76  1280.03  1283.97  1287.22  1289.81
eigval :     1291.88  1292.96  1300.82  1304.07  1333.00  1334.57
eigval :     1346.15  1363.50  1366.04  1373.74  1378.21  1379.19
eigval :     1416.33  1416.36  1416.66  1423.93  1453.34  1469.11
eigval :     1479.93  1488.85  1496.03  1496.30  1496.68  1496.83
eigval :     1500.44  1500.50  1502.60  1503.25  1504.38  1504.43
eigval :     1507.62  1507.64  1574.99  1588.91  1597.64  1606.36
eigval :     2953.87  2954.21  2958.39  2958.96  2961.66  2963.11
eigval :     2970.34  2971.39  2972.40  2972.99  2974.74  2975.11
eigval :     2976.50  2978.55  2979.53  2980.44  2981.38  2982.59
eigval :     2988.54  2990.79  3030.26  3030.58  3032.73  3032.91
eigval :     3037.96  3038.10  3073.46  3077.75  3084.86  3089.65
eigval :     3093.06  3094.50  3101.40

   temp. (K)  partition function   enthalpy   heat capacity  entropy
                                   cal/mol     cal/K/mol   cal/K/mol   J/K/mol
 298.15  VIB  0.115E+14            15814.673     91.620    101.692
         ROT  0.266E+08              888.752      2.981     36.954
         INT  0.305E+21            16703.425     94.601    138.646
         TR   0.813E+28             1481.254      4.968     43.929
         TOT                       18184.6791    99.5693   182.5750   763.8937

       T/K    H(0)-H(T)+PV         H(T)/Eh          T*S/Eh         G(T)/Eh
   ------------------------------------------------------------------------
    298.15    0.289791E-01    0.538132E+00    0.867473E-01    0.451385E+00
   ------------------------------------------------------------------------

         :::::::::::::::::::::::::::::::::::::::::::::::::::::
         ::                  THERMODYNAMIC                  ::
         :::::::::::::::::::::::::::::::::::::::::::::::::::::
         :: total free energy         -74.046766231317 Eh   ::
         ::.................................................::
         :: total energy              -74.498150873377 Eh   ::
         :: zero point energy           0.509152773769 Eh   ::
         :: G(RRHO) w/o ZPVE           -0.057768131709 Eh   ::
         :: G(RRHO) contrib.            0.451384642060 Eh   ::
         :::::::::::::::::::::::::::::::::::::::::::::::::::::

           -------------------------------------------------
          | TOTAL ENERGY              -74.498150873377 Eh   |
          | TOTAL ENTHALPY            -73.960018968933 Eh   |
          | TOTAL FREE ENERGY         -74.046766231317 Eh   |
          | GRADIENT NORM               0.000176837735 Eh/α |
          | HOMO-LUMO GAP               3.256455975925 eV   |
           -------------------------------------------------

 * finished run on 2025/09/10 at 07:41:34.235
