   * xtb version 6.7.1 (edcfbbe) compiled by 'albert@albert-system' on 2024-07-22

   ID    Z sym.   atoms
    1    6 C      1-11, 13-45, 47-53, 55, 56
    2    7 N      12, 46, 54
    3    1 H      57-89

          program call               : xtb data2507/toluene/SFI23pPM/SFI23pPM.xyz --gfn 2 --gbsa toluene --ohess vtight --parallel 40 --molden --ceasefiles --namespace data2507/toluene/SFI23pPM/SFI23pPM_toluene_S0_preOpt
      * Solvation model:               GBSA
        Solvent                        toluene
        Solvent mass                       9.2140E+01 g/mol
          :  Hamiltonian                  GFN2-xTB          :
 * total energy  :  -139.2010954 Eh     change       -0.4374840E-08 Eh
 * total energy  :  -139.2129896 Eh     change       -0.1189420E-01 Eh
 * total energy  :  -139.2159848 Eh     change       -0.2995284E-02 Eh
 * total energy  :  -139.2167845 Eh     change       -0.7996198E-03 Eh
 * total energy  :  -139.2172389 Eh     change       -0.4544776E-03 Eh
 * total energy  :  -139.2174272 Eh     change       -0.1882226E-03 Eh
 * total energy  :  -139.2175690 Eh     change       -0.1418693E-03 Eh
 * total energy  :  -139.2176640 Eh     change       -0.9500337E-04 Eh
 * total energy  :  -139.2177210 Eh     change       -0.5694931E-04 Eh
 * total energy  :  -139.2177599 Eh     change       -0.3891776E-04 Eh
 * total energy  :  -139.2178489 Eh     change       -0.3034553E-06 Eh
 * total energy  :  -139.2178492 Eh     change       -0.3345687E-06 Eh
 * total energy  :  -139.2178496 Eh     change       -0.3102540E-06 Eh
 * total energy  :  -139.2178498 Eh     change       -0.2813004E-06 Eh
 * total energy  :  -139.2178501 Eh     change       -0.2832686E-06 Eh
 * total energy  :  -139.2178505 Eh     change       -0.3269516E-06 Eh
 * total energy  :  -139.2178508 Eh     change       -0.3518297E-06 Eh
 * total energy  :  -139.2178511 Eh     change       -0.3176291E-06 Eh
 * total energy  :  -139.2178511 Eh     change       -0.2190291E-08 Eh
   *** GEOMETRY OPTIMIZATION CONVERGED AFTER 44 ITERATIONS ***

 final structure:
================
89
 xtb: 6.7.1 (edcfbbe)
C            7.91144390492074        3.41750482705980       -3.46953369904557
C            6.53226154558753        3.52766482263152       -3.39577012425171
C            5.80896838055139        2.68502238430762       -2.57176041885224
C            6.46138790384267        1.72052570071680       -1.80628136982033
C            5.72159783542353        0.80458140672088       -0.92767471198166
C            4.40801872366452        0.41530775080011       -1.18904050716213
C            3.81043853892089       -0.46571595024908       -0.28799741833774
C            2.43795005874329       -0.95788108208420       -0.45615971283297
C            2.08318282333999       -2.19189868073798        0.08911503297909
C            0.80631174472213       -2.68980578422300       -0.06059505531405
C           -0.15101247784715       -1.95926776294746       -0.76280394354420
N           -1.44399272471325       -2.46829301903547       -0.93176183908835
C           -1.75993045670899       -3.73363036072814       -1.39264645778657
C           -0.92362771951804       -4.75738771206069       -1.81463369266615
C           -1.50921307237159       -5.92732527501183       -2.26080951559964
C           -2.89367585879188       -6.07961853419267       -2.29953558501153
C           -3.73117012854079       -5.05475176669888       -1.90588965073376
C           -3.16563216305360       -3.86955076414153       -1.45293249301705
C           -3.71933557346454       -2.62350718419612       -0.99945946939932
C           -5.02476098246956       -2.17876003418122       -0.82832339500155
C           -5.20193734842977       -0.89719061820729       -0.34210431168902
C           -4.09644288365936       -0.08386441524809       -0.01359664759722
C           -2.79747070694990       -0.50632712696570       -0.17209073315635
C           -2.61939698583420       -1.78540021467655       -0.69080223904879
C           -4.56116670503416        1.25470981750731        0.50872999021152
C           -4.05240334727510        1.57255165548283        1.89483285924232
C           -4.22443080024460        0.85116515383862        3.05628188421500
C           -3.66586820633865        1.34203176047995        4.22936718920109
C           -2.95260532709599        2.53174065345613        4.23312222797580
C           -2.77564016948903        3.25892101660410        3.06651523862597
C           -3.32865915629045        2.77420067911846        1.89218285440905
C           -3.31207946911277        3.29959541120570        0.53538058349583
C           -2.73227644993519        4.44039193286965        0.00399623542340
C           -2.87797952776326        4.68945312303562       -1.35179168197085
C           -3.58924155558730        3.81794022754492       -2.16346168649220
C           -4.17415578536707        2.67318512383827       -1.63732731022380
C           -4.03019974488187        2.42165916762444       -0.29004740726493
C           -6.06345512085845        1.11207980960526        0.44014345312223
C           -7.02642702573444        2.03066172957669        0.79604733587205
C           -8.36257626938677        1.68035207955271        0.64897181812172
C           -8.71847906310240        0.43414701637012        0.15519411424999
C           -7.75194782278606       -0.49234792815694       -0.20305021317741
C           -6.41677179713280       -0.15022877810724       -0.05871014768757
C            0.19173219359402       -0.71847430601373       -1.29666856128939
C            1.47119615166590       -0.22463017915045       -1.14232695773119
N            4.48371446658550       -0.92306651099446        0.76709239560313
C            5.73540145845572       -0.51061436199859        0.93637257708080
C            6.46874023920140       -1.03025812060439        2.09542447171433
C            7.79317514829700       -0.65569812043826        2.31575443642140
C            8.48396181358783       -1.15238924773086        3.40465636176320
C            7.86223222508105       -2.02490432074299        4.28462139061163
C            6.54376171164177       -2.39807975438175        4.07378214798061
C            5.84835826762900       -1.90465477933970        2.98636149487979
N            6.37455512260899        0.33426864548224        0.13381770644097
C            7.85063031287519        1.62730535330263       -1.87534028353287
C            8.56913697223093        2.46713434536021       -2.70453225187852
H            8.47233570881975        4.07439247225486       -4.11792363473300
H            6.01744923388295        4.27507184782168       -3.98183805396485
H            4.73643472249356        2.79478236913020       -2.50620987026774
H            3.89305492341730        0.74606904449108       -2.07492208485565
H            2.83032053698012       -2.75010116180652        0.63149375097043
H            0.53664308507119       -3.63899398556546        0.37718174624164
H            0.14986072037105       -4.64473119843811       -1.80648492378962
H           -0.87868367640925       -6.74027725481039       -2.59021320239299
H           -3.31282339271328       -7.01049118040265       -2.65230849427618
H           -4.80408957546600       -5.16642528218393       -1.95202469273705
H           -5.86355398665322       -2.81531054670377       -1.06377307537636
H           -1.96375400224109        0.12122357467562        0.10408443688783
H           -4.78192395344977       -0.07458207946117        3.05442985467227
H           -3.79012774339397        0.79120301473252        5.15044852747469
H           -2.52888901703418        2.89536158023794        5.15831366488686
H           -2.21854521715693        4.18423267250897        3.07468705726060
H           -2.17787761983801        5.12234121585664        0.63187438529155
H           -2.43220778738043        5.57443782463866       -1.78301741531242
H           -3.69068662536636        4.03255382743593       -3.21754173600932
H           -4.72949385816391        1.99543664943052       -2.26991603348299
H           -6.74900420578835        3.00146108928162        1.18152928924384
H           -9.13274319970463        2.38681052133757        0.92281155052476
H           -9.76414319573095        0.18287362595257        0.04892887736798
H           -8.03550639532921       -1.46116332179335       -0.58703461354810
H           -0.54534934857709       -0.15101219036656       -1.84491850848029
H            1.71147492202641        0.74592459310082       -1.54939893847523
H            8.26160032744129        0.02715975992232        1.62413275850742
H            9.51041497384748       -0.85881864660870        3.56983697407084
H            8.40447465251000       -2.41266231800144        5.13469761576388
H            6.05750031858602       -3.07549872119151        4.76062054137200
H            4.82063548570095       -2.18213671725665        2.81080111347015
H            8.34834793959247        0.88103570401591       -1.27521698065196
H            9.64465913225099        2.38125731692399       -2.75543919309942

          :  Hamiltonian                  GFN2-xTB          :
         :: gradient norm              0.000038013076 Eh/a0 ::
         :: HOMO-LUMO gap              2.124967792538 eV    ::
         :: SCC energy              -141.860021597909 Eh    ::
         :: -> dispersion             -0.126957878731 Eh    ::
         :: -> Gsolv                  -0.059701876844 Eh    ::
         :: repulsion energy           2.642170474794 Eh    ::

    * Orbital Energies and Occupations

         #    Occupation            Energy/Eh            Energy/eV
      -------------------------------------------------------------
         1        2.0000           -0.6798370             -18.4993
       ...           ...                  ...                  ...
       118        2.0000           -0.4108862             -11.1808
       119        2.0000           -0.4081881             -11.1074
       120        2.0000           -0.4074130             -11.0863
       121        2.0000           -0.4068661             -11.0714
       122        2.0000           -0.4008225             -10.9069
       123        2.0000           -0.3989818             -10.8568
       124        2.0000           -0.3972934             -10.8109
       125        2.0000           -0.3958322             -10.7711
       126        2.0000           -0.3922720             -10.6743
       127        2.0000           -0.3824235             -10.4063
       128        2.0000           -0.3758156             -10.2265
       129        2.0000           -0.3649143              -9.9298
       130        2.0000           -0.3612731              -9.8307 (HOMO)
       131                         -0.2831820              -7.7058 (LUMO)
       132                         -0.2747839              -7.4773
       133                         -0.2530339              -6.8854
       134                         -0.2492587              -6.7827
       135                         -0.2484561              -6.7608
       136                         -0.2415029              -6.5716
       137                         -0.2370966              -6.4517
       138                         -0.2300022              -6.2587
       139                         -0.2264398              -6.1617
       140                         -0.2252892              -6.1304
       141                         -0.2249371              -6.1208
       ...                                ...                  ...
       257                          0.7451505              20.2766
      -------------------------------------------------------------
                  HL-Gap            0.0780911 Eh            2.1250 eV

     #   Z          covCN         q      C6AA      α(0)
     1   6 C        2.920    -0.026    28.651     8.778
     2   6 C        2.918    -0.029    28.715     8.787
     3   6 C        2.923    -0.032    28.797     8.800
     4   6 C        2.979    -0.000    28.025     8.684
     5   6 C        2.966     0.113    25.510     8.285
     6   6 C        2.912    -0.072    29.794     8.951
     7   6 C        2.966     0.112    25.519     8.286
     8   6 C        2.979    -0.003    28.085     8.693
     9   6 C        2.925    -0.024    28.593     8.769
    10   6 C        2.920    -0.041    29.023     8.834
    11   6 C        2.913     0.068    26.481     8.438
    12   7 N        2.801    -0.040    22.006     6.967
    13   6 C        3.072     0.046    26.890     8.502
    14   6 C        2.910    -0.051    29.267     8.871
    15   6 C        2.924    -0.034    28.853     8.809
    16   6 C        2.920    -0.041    29.026     8.835
    17   6 C        2.912    -0.034    28.848     8.807
    18   6 C        3.067    -0.016    28.351     8.731
    19   6 C        3.068    -0.020    28.424     8.742
    20   6 C        2.909    -0.038    28.956     8.824
    21   6 C        3.034    -0.010    28.230     8.715
    22   6 C        3.059     0.003    27.894     8.661
    23   6 C        2.906    -0.055    29.362     8.885
    24   6 C        3.077     0.046    26.896     8.503
    25   6 C        3.977     0.010    20.343     6.408
    26   6 C        3.055     0.005    27.855     8.655
    27   6 C        2.913    -0.034    28.840     8.806
    28   6 C        2.922    -0.032    28.810     8.802
    29   6 C        2.921    -0.034    28.835     8.806
    30   6 C        2.914    -0.035    28.871     8.811
    31   6 C        3.036    -0.000    28.005     8.680
    32   6 C        3.035    -0.000    27.996     8.679
    33   6 C        2.914    -0.035    28.872     8.811
    34   6 C        2.921    -0.034    28.840     8.807
    35   6 C        2.922    -0.033    28.822     8.804
    36   6 C        2.913    -0.034    28.847     8.807
    37   6 C        3.055     0.005    27.851     8.655
    38   6 C        3.053     0.004    27.875     8.659
    39   6 C        2.914    -0.034    28.853     8.808
    40   6 C        2.922    -0.034    28.848     8.808
    41   6 C        2.921    -0.034    28.841     8.807
    42   6 C        2.915    -0.036    28.902     8.816
    43   6 C        3.034     0.001    27.971     8.675
    44   6 C        2.920    -0.042    29.041     8.837
    45   6 C        2.922    -0.031    28.763     8.795
    46   7 N        1.849    -0.293    28.440     7.904
    47   6 C        2.942     0.190    23.958     8.028
    48   6 C        2.984    -0.004    28.122     8.699
    49   6 C        2.924    -0.029    28.715     8.788
    50   6 C        2.918    -0.029    28.721     8.788
    51   6 C        2.920    -0.026    28.645     8.777
    52   6 C        2.918    -0.029    28.721     8.788
    53   6 C        2.924    -0.029    28.719     8.788
    54   7 N        1.849    -0.293    28.441     7.904
    55   6 C        2.926    -0.024    28.612     8.772
    56   6 C        2.918    -0.028    28.689     8.783
    57   1 H        0.926     0.042     2.428     2.437
    58   1 H        0.926     0.040     2.450     2.447
    59   1 H        0.926     0.034     2.523     2.484
    60   1 H        0.926     0.038     2.478     2.462
    61   1 H        0.926     0.056     2.247     2.344
    62   1 H        0.926     0.051     2.308     2.376
    63   1 H        0.926     0.031     2.565     2.505
    64   1 H        0.926     0.032     2.557     2.500
    65   1 H        0.926     0.030     2.581     2.512
    66   1 H        0.926     0.033     2.544     2.494
    67   1 H        0.926     0.037     2.495     2.470
    68   1 H        0.926     0.028     2.615     2.529
    69   1 H        0.926     0.028     2.621     2.532
    70   1 H        0.926     0.033     2.548     2.496
    71   1 H        0.926     0.033     2.548     2.496
    72   1 H        0.926     0.033     2.543     2.494
    73   1 H        0.926     0.033     2.544     2.494
    74   1 H        0.926     0.033     2.550     2.497
    75   1 H        0.926     0.032     2.552     2.498
    76   1 H        0.926     0.027     2.623     2.533
    77   1 H        0.926     0.025     2.655     2.548
    78   1 H        0.926     0.031     2.576     2.510
    79   1 H        0.926     0.032     2.564     2.504
    80   1 H        0.926     0.033     2.550     2.497
    81   1 H        0.926     0.048     2.346     2.395
    82   1 H        0.926     0.042     2.418     2.432
    83   1 H        0.926     0.050     2.318     2.381
    84   1 H        0.926     0.041     2.437     2.441
    85   1 H        0.926     0.042     2.423     2.434
    86   1 H        0.926     0.041     2.437     2.441
    87   1 H        0.926     0.050     2.318     2.381
    88   1 H        0.926     0.047     2.356     2.400
    89   1 H        0.926     0.041     2.431     2.438

molecular dipole:
                 x           y           z       tot (Debye)
 q only:        0.460       0.067      -0.262
   full:        0.292       0.279      -0.554       1.741

 projected vibrational frequencies (cm⁻¹)
eigval :       -0.00    -0.00     0.00     0.00     0.00     0.00
eigval :        5.69     7.61    12.49    24.14    28.21    29.91
eigval :       34.19    35.78    44.68    45.18    55.23    59.44
eigval :       72.74    80.73    81.43    92.02    98.01   113.34
eigval :      116.97   120.51   136.73   147.10   171.20   176.63
eigval :      181.12   203.66   214.07   214.31   223.38   228.69
eigval :      234.28   262.93   266.31   282.04   292.00   301.59
eigval :      317.03   351.40   354.60   359.13   365.98   370.93
eigval :      376.07   377.76   387.08   395.19   407.86   414.24
eigval :      415.99   424.90   431.69   433.51   445.73   452.17
eigval :      475.74   481.04   487.32   504.00   505.08   519.18
eigval :      537.67   540.50   548.13   563.55   582.52   585.29
eigval :      586.81   588.20   593.65   601.24   604.00   610.04
eigval :      616.43   619.52   626.52   630.63   648.45   652.78
eigval :      664.25   673.68   674.03   681.26   691.03   699.45
eigval :      703.07   705.60   712.63   734.19   737.12   737.80
eigval :      753.84   764.82   767.38   771.27   776.38   779.56
eigval :      784.92   814.69   822.23   836.03   837.25   844.37
eigval :      845.55   864.70   872.97   874.97   875.74   877.39
eigval :      879.26   879.42   879.92   882.80   898.43   900.15
eigval :      906.41   910.05   910.35   911.11   911.94   917.01
eigval :      924.49   926.45   926.48   927.57   928.93   931.16
eigval :      932.57   932.76   933.71   933.86   935.09   970.59
eigval :      988.05  1006.30  1007.81  1011.23  1016.43  1025.70
eigval :     1070.51  1073.11  1073.90  1075.35  1076.75  1078.08
eigval :     1078.59  1087.57  1104.01  1111.59  1122.24  1124.10
eigval :     1131.91  1135.67  1142.17  1151.57  1170.21  1173.30
eigval :     1176.47  1177.50  1178.79  1179.05  1179.53  1180.19
eigval :     1187.49  1193.86  1196.26  1201.81  1205.61  1208.02
eigval :     1220.66  1221.25  1231.16  1242.29  1246.85  1257.57
eigval :     1260.68  1261.00  1265.09  1269.77  1271.36  1278.00
eigval :     1283.74  1312.85  1319.77  1321.16  1324.77  1326.04
eigval :     1340.48  1346.66  1356.51  1360.17  1362.88  1364.38
eigval :     1381.52  1395.91  1408.98  1424.15  1427.58  1428.19
eigval :     1429.30  1430.21  1436.35  1439.74  1460.36  1460.56
eigval :     1468.04  1470.17  1475.68  1477.84  1491.36  1503.53
eigval :     1511.39  1528.16  1559.98  1566.89  1581.16  1582.67
eigval :     1583.48  1583.51  1590.24  1590.84  1594.01  1594.19
eigval :     1595.26  1595.34  1600.82  1602.18  1602.59  1610.12
eigval :     3068.02  3068.14  3068.71  3071.63  3071.92  3072.66
eigval :     3072.69  3072.96  3073.33  3076.81  3077.82  3078.85
eigval :     3078.94  3079.61  3080.08  3083.03  3083.95  3086.94
eigval :     3087.01  3087.53  3087.79  3088.04  3089.10  3090.99
eigval :     3091.18  3091.73  3094.52  3095.55  3100.28  3102.11
eigval :     3103.95  3104.39  3110.28

   temp. (K)  partition function   enthalpy   heat capacity  entropy
                                   cal/mol     cal/K/mol   cal/K/mol   J/K/mol
 298.15  VIB  0.241E+21            25202.303    159.885    157.810
         ROT  0.149E+09              888.752      2.981     40.384
         INT  0.360E+29            26091.055    162.866    198.194
         TR   0.184E+29             1481.254      4.968     45.548
         TOT                       27572.3092   167.8341   243.7418  1019.8156

       T/K    H(0)-H(T)+PV         H(T)/Eh          T*S/Eh         G(T)/Eh
   ------------------------------------------------------------------------
    298.15    0.439393E-01    0.723451E+00    0.115810E+00    0.607642E+00
   ------------------------------------------------------------------------

         :::::::::::::::::::::::::::::::::::::::::::::::::::::
         ::                  THERMODYNAMIC                  ::
         :::::::::::::::::::::::::::::::::::::::::::::::::::::
         :: total free energy        -138.610209508383 Eh   ::
         ::.................................................::
         :: total energy             -139.217851122631 Eh   ::
         :: zero point energy           0.679511921030 Eh   ::
         :: G(RRHO) w/o ZPVE           -0.071870306783 Eh   ::
         :: G(RRHO) contrib.            0.607641614248 Eh   ::
         :::::::::::::::::::::::::::::::::::::::::::::::::::::

           -------------------------------------------------
          | TOTAL ENERGY             -139.217851122631 Eh   |
          | TOTAL ENTHALPY           -138.494399930000 Eh   |
          | TOTAL FREE ENERGY        -138.610209508383 Eh   |
          | GRADIENT NORM               0.000038005887 Eh/α |
          | HOMO-LUMO GAP               2.124967621486 eV   |
           -------------------------------------------------

 * finished run on 2025/09/09 at 08:49:13.137
