   * xtb version 6.7.1 (edcfbbe) compiled by 'albert@albert-system' on 2024-07-22

   ID    Z sym.   atoms
    1    6 C      1-11, 13-45, 47-53, 55, 56
    2    7 N      12, 46, 54
    3    1 H      57-89

          program call               : xtb data2507/toluene/SFI23pPM/SFI23pPM_toluene_S0_finalOpt.xtbopt.xyz --gfn 2 --uhf 2 --gbsa toluene --ohess vtight --parallel 40 --molden --ceasefiles --namespace data2507/toluene/SFI23pPM/SFI23pPM_toluene_T1_preOpt
      * Solvation model:               GBSA
        Solvent                        toluene
        Solvent mass                       9.2140E+01 g/mol
          :  Hamiltonian                  GFN2-xTB          :
 * total energy  :  -139.1296869 Eh     change        0.6552625E-09 Eh
 * total energy  :  -139.1330957 Eh     change       -0.3408839E-02 Eh
 * total energy  :  -139.1345404 Eh     change       -0.1444683E-02 Eh
 * total energy  :  -139.1347316 Eh     change       -0.1911516E-03 Eh
 * total energy  :  -139.1350396 Eh     change       -0.3080319E-03 Eh
 * total energy  :  -139.1351429 Eh     change       -0.1033507E-03 Eh
 * total energy  :  -139.1352426 Eh     change       -0.9965445E-04 Eh
 * total energy  :  -139.1352980 Eh     change       -0.5539787E-04 Eh
 * total energy  :  -139.1353397 Eh     change       -0.4171712E-04 Eh
 * total energy  :  -139.1353974 Eh     change       -0.5773085E-04 Eh
 * total energy  :  -139.1370153 Eh     change       -0.9454514E-06 Eh
 * total energy  :  -139.1370161 Eh     change       -0.7720668E-06 Eh
 * total energy  :  -139.1370167 Eh     change       -0.6478858E-06 Eh
 * total energy  :  -139.1370174 Eh     change       -0.6870652E-06 Eh
 * total energy  :  -139.1370180 Eh     change       -0.5882192E-06 Eh
 * total energy  :  -139.1370187 Eh     change       -0.6835670E-06 Eh
 * total energy  :  -139.1370194 Eh     change       -0.7396217E-06 Eh
 * total energy  :  -139.1370193 Eh     change        0.8038978E-07 Eh
 * total energy  :  -139.1370194 Eh     change       -0.8539610E-07 Eh
   *** GEOMETRY OPTIMIZATION CONVERGED AFTER 186 ITERATIONS ***

 final structure:
================
89
 xtb: 6.7.1 (edcfbbe)
C            7.00132907804193        5.29957585270179        1.87437308498816
C            7.85235932634921        4.32054027963812        1.38136064305616
C            7.34891073107869        3.11070796815947        0.95582057342093
C            5.97276996315747        2.83907664601242        1.01102373128429
C            5.49030048083814        1.55211205675777        0.54829361591793
C            4.19480155398829        1.09830475864553        0.72788877299273
C            3.84063629380727       -0.16124453983026        0.21486116498643
C            2.53933423984186       -0.74327261147305        0.32018037893907
C            1.49438696357256       -0.18749770643725        1.09055921596709
C            0.26357866152234       -0.78894747613122        1.15909700496573
C            0.00651934416018       -1.97427154601516        0.45866734833936
N           -1.25020598291114       -2.58477971931275        0.53111514347419
C           -1.47970701134754       -3.92389647591878        0.79001267465777
C           -0.57433563018738       -4.93685582390555        1.07445845808874
C           -1.07802368066268       -6.20202466325712        1.32180833648358
C           -2.44663600806220       -6.45565432022707        1.29837755267403
C           -3.35587375623953       -5.44237352108221        1.04519196453283
C           -2.87374637002025       -4.16692452300572        0.79489464293125
C           -3.50952606411459       -2.90230456661929        0.53252386217920
C           -4.83594811706898       -2.51898972991386        0.42666625164313
C           -5.09438236840767       -1.18195768366978        0.15872378067656
C           -4.04030641524418       -0.25545104172449       -0.02089919639095
C           -2.71942610484664       -0.61797237779850        0.07091348418792
C           -2.45941548493610       -1.95528267853141        0.37582795163970
C           -4.59242194504793        1.12200659502380       -0.29878855776150
C           -4.12639286084352        2.14910230346392        0.70827421864931
C           -4.28444332324896        2.13754443204772        2.07709481594350
C           -3.75927755470536        3.19248422264603        2.81249123101325
C           -3.09122369381482        4.23312095867361        2.18406577802463
C           -2.93002485673999        4.24719513813897        0.80734083480794
C           -3.45168481479902        3.19831879037188        0.06725521087601
C           -3.44182506204410        2.93466621085376       -1.36379115826008
C           -2.91485680550644        3.65713047468655       -2.42206640199460
C           -3.06059006213515        3.15563011890948       -3.70603072740712
C           -3.72053495229643        1.95671221154895       -3.93165345457059
C           -4.25091884164205        1.22679547459104       -2.87557953454282
C           -4.10688696917858        1.72203720935931       -1.59788806124854
C           -6.08063739691764        0.87426880232473       -0.26660488567993
C           -7.10345316878649        1.77574988348743       -0.46213932947451
C           -8.41309070940826        1.31741720172376       -0.38972875452467
C           -8.68661190587735       -0.01809403188210       -0.12464944229873
C           -7.66240754513349       -0.92814504320900        0.07335158794607
C           -6.35059133187191       -0.47877044854539        0.00172943357016
C            1.03069489975142       -2.54124820932325       -0.31220166109153
C            2.26175204345130       -1.94551167833624       -0.37269415955999
N            4.80350413503974       -0.88569317726532       -0.43215844416896
C            6.02654138422227       -0.43148478337798       -0.55627049745347
C            7.02780656059444       -1.26398829453468       -1.22728194674520
C            8.29010947676297       -0.75054091189743       -1.51580576485866
C            9.23701472671017       -1.54051753677694       -2.13963970330467
C            8.93456309006180       -2.84969774824485       -2.48085002440909
C            7.67983172273197       -3.36705555091856       -2.19738101263588
C            6.73025003694423       -2.57991714027431       -1.57464587511712
N            6.39029537113205        0.75282504836499       -0.09770405126785
C            5.12631826389321        3.83971305904185        1.50796856732657
C            5.63788068966578        5.04864527434996        1.93196471369193
H            7.39495763074258        6.24856016999587        2.20717155857758
H            8.91612371203739        4.50594563690968        1.33060555312809
H            8.00637891170413        2.34333192768724        0.57593410142607
H            3.46746546977576        1.69725582993836        1.24849827811943
H            1.66154800133791        0.71311062951055        1.66051445379400
H           -0.50921440058089       -0.36593691789907        1.78463672502780
H            0.48639352712938       -4.74392304966551        1.11597607831741
H           -0.39392032032927       -7.00795906700366        1.54189098047860
H           -2.80203842832215       -7.45641365337751        1.49326900767729
H           -4.41715676594524       -5.63855990262793        1.04673477164111
H           -5.63470102946121       -3.23369718777818        0.54728273166481
H           -1.92479586350329        0.09353505935762       -0.09127941508197
H           -4.80388636580683        1.32705431879492        2.56805968212386
H           -3.87265670040283        3.20240420867003        3.88683688610728
H           -2.69047804175406        5.04290631049101        2.77682046803004
H           -2.40818824183321        5.05940601324517        0.32314609449921
H           -2.40146962502434        4.59197576492883       -2.25207102955373
H           -2.65599096590959        3.70644052691570       -4.54301056230360
H           -3.82336042760800        1.58575008175440       -4.94104708525661
H           -4.76549995747484        0.29341121388778       -3.05310638428570
H           -6.89236162922827        2.81492540183714       -0.66893797907400
H           -9.22868622106109        2.00910485183761       -0.54163212318872
H           -9.71358570683385       -0.34956701012097       -0.07330077911709
H           -7.87977540049236       -1.96550049029277        0.27891139813576
H            0.83026418472547       -3.43589662646139       -0.88335355098842
H            3.04849578445929       -2.37227139210640       -0.97545024568593
H            8.50866291993051        0.27150142244931       -1.24539223694963
H           10.21404204198679       -1.13620574737105       -2.36095230324824
H            9.67644711461200       -3.46645773943491       -2.96662267635870
H            7.44384713658332       -4.38738551763883       -2.46243253387118
H            5.75032417798418       -2.96895126876707       -1.34267550296052
H            4.05945612358411        3.68030932064071        1.55080025248637
H            4.96725613655485        5.80792076770606        2.30956250376587

          :  Hamiltonian                  GFN2-xTB          :
         :: gradient norm              0.000075551446 Eh/a0 ::
         :: HOMO-LUMO gap              0.369896208222 eV    ::
         :: SCC energy              -141.770480249685 Eh    ::
         :: -> dispersion             -0.127156237139 Eh    ::
         :: -> Gsolv                  -0.060843865169 Eh    ::
         :: repulsion energy           2.633460845562 Eh    ::

    * Orbital Energies and Occupations

         #    Occupation            Energy/Eh            Energy/eV
      -------------------------------------------------------------
         1        2.0000           -0.6889004             -18.7459
       ...           ...                  ...                  ...
       119        2.0000           -0.4065234             -11.0621
       120        2.0000           -0.4039167             -10.9911
       121        2.0000           -0.4015261             -10.9261
       122        2.0000           -0.4006621             -10.9026
       123        2.0000           -0.3991092             -10.8603
       124        2.0000           -0.3977769             -10.8241
       125        2.0000           -0.3951033             -10.7513
       126        2.0000           -0.3891561             -10.5895
       127        2.0000           -0.3866714             -10.5219
       128        2.0000           -0.3814254             -10.3791
       129        1.6631           -0.3668459              -9.9824
       130        1.3369           -0.3655594              -9.9474
       131        0.9992           -0.2813147              -7.6550 (HOMO)
       132        0.0008           -0.2677212              -7.2851 (LUMO)
       133                         -0.2577323              -7.0133
       134                         -0.2553175              -6.9475
       135                         -0.2549408              -6.9373
       136                         -0.2393587              -6.5133
       137                         -0.2297814              -6.2527
       138                         -0.2287549              -6.2247
       139                         -0.2262392              -6.1563
       140                         -0.2230440              -6.0693
       141                         -0.2227023              -6.0600
       142                         -0.2207789              -6.0077
       ...                                ...                  ...
       257                          0.7368689              20.0512
      -------------------------------------------------------------
                  HL-Gap            0.0135934 Eh            0.3699 eV

     #   Z          covCN         q      C6AA      α(0)
     1   6 C        2.919    -0.038    28.944     8.822
     2   6 C        2.916    -0.032    28.803     8.801
     3   6 C        2.926    -0.034    28.840     8.807
     4   6 C        2.975    -0.003    28.095     8.694
     5   6 C        2.934     0.081    26.197     8.394
     6   6 C        2.912    -0.057    29.422     8.894
     7   6 C        2.935     0.070    26.431     8.431
     8   6 C        2.973    -0.006    28.173     8.706
     9   6 C        2.919    -0.044    29.096     8.846
    10   6 C        2.916    -0.042    29.049     8.838
    11   6 C        2.912     0.040    27.096     8.536
    12   7 N        2.800    -0.008    21.419     6.874
    13   6 C        3.075     0.046    26.894     8.503
    14   6 C        2.909    -0.042    29.032     8.835
    15   6 C        2.923    -0.031    28.782     8.798
    16   6 C        2.920    -0.034    28.851     8.808
    17   6 C        2.912    -0.029    28.730     8.789
    18   6 C        3.063    -0.012    28.258     8.717
    19   6 C        3.066    -0.014    28.283     8.721
    20   6 C        2.907    -0.033    28.828     8.804
    21   6 C        3.035     0.000    27.991     8.678
    22   6 C        3.057     0.006    27.829     8.651
    23   6 C        2.905    -0.047    29.159     8.854
    24   6 C        3.078     0.047    26.869     8.498
    25   6 C        3.976     0.010    20.334     6.407
    26   6 C        3.055     0.005    27.852     8.655
    27   6 C        2.913    -0.034    28.845     8.807
    28   6 C        2.923    -0.032    28.805     8.801
    29   6 C        2.921    -0.033    28.816     8.803
    30   6 C        2.914    -0.034    28.851     8.808
    31   6 C        3.035     0.001    27.974     8.675
    32   6 C        3.035     0.001    27.981     8.676
    33   6 C        2.914    -0.034    28.851     8.808
    34   6 C        2.921    -0.033    28.813     8.802
    35   6 C        2.923    -0.032    28.796     8.800
    36   6 C        2.913    -0.034    28.839     8.806
    37   6 C        3.054     0.005    27.858     8.656
    38   6 C        3.053     0.009    27.768     8.642
    39   6 C        2.913    -0.032    28.796     8.799
    40   6 C        2.922    -0.029    28.718     8.788
    41   6 C        2.920    -0.031    28.772     8.796
    42   6 C        2.914    -0.033    28.815     8.802
    43   6 C        3.034     0.005    27.882     8.661
    44   6 C        2.915    -0.043    29.063     8.840
    45   6 C        2.924    -0.037    28.927     8.820
    46   7 N        1.853    -0.257    27.540     7.778
    47   6 C        2.886     0.191    23.922     8.019
    48   6 C        2.983    -0.002    28.076     8.692
    49   6 C        2.924    -0.027    28.683     8.783
    50   6 C        2.918    -0.028    28.711     8.787
    51   6 C        2.920    -0.026    28.662     8.779
    52   6 C        2.918    -0.029    28.715     8.787
    53   6 C        2.924    -0.028    28.694     8.784
    54   7 N        1.852    -0.269    27.829     7.819
    55   6 C        2.921    -0.041    29.024     8.835
    56   6 C        2.917    -0.033    28.811     8.802
    57   1 H        0.926     0.028     2.608     2.526
    58   1 H        0.926     0.030     2.592     2.518
    59   1 H        0.926     0.036     2.496     2.471
    60   1 H        0.926     0.031     2.577     2.510
    61   1 H        0.926     0.028     2.610     2.526
    62   1 H        0.926     0.036     2.498     2.472
    63   1 H        0.926     0.042     2.424     2.435
    64   1 H        0.926     0.040     2.443     2.444
    65   1 H        0.926     0.040     2.446     2.446
    66   1 H        0.926     0.043     2.410     2.428
    67   1 H        0.926     0.048     2.345     2.395
    68   1 H        0.926     0.038     2.473     2.459
    69   1 H        0.926     0.029     2.598     2.520
    70   1 H        0.926     0.034     2.535     2.490
    71   1 H        0.926     0.033     2.540     2.492
    72   1 H        0.926     0.034     2.530     2.487
    73   1 H        0.926     0.034     2.530     2.487
    74   1 H        0.926     0.033     2.538     2.491
    75   1 H        0.926     0.034     2.531     2.488
    76   1 H        0.926     0.030     2.592     2.518
    77   1 H        0.926     0.031     2.570     2.507
    78   1 H        0.926     0.037     2.487     2.466
    79   1 H        0.926     0.038     2.478     2.461
    80   1 H        0.926     0.040     2.450     2.448
    81   1 H        0.926     0.040     2.447     2.446
    82   1 H        0.926     0.042     2.418     2.432
    83   1 H        0.926     0.045     2.382     2.414
    84   1 H        0.926     0.041     2.431     2.438
    85   1 H        0.926     0.043     2.412     2.429
    86   1 H        0.926     0.042     2.421     2.433
    87   1 H        0.926     0.046     2.374     2.409
    88   1 H        0.926     0.024     2.672     2.556
    89   1 H        0.926     0.028     2.611     2.527

molecular dipole:
                 x           y           z       tot (Debye)
 q only:       -2.623      -1.350      -0.165
   full:       -2.737      -1.058      -0.006       7.459

 projected vibrational frequencies (cm⁻¹)
eigval :       -0.00    -0.00    -0.00    -0.00    -0.00     0.00
eigval :        4.83     8.88    11.49    24.77    28.49    30.62
eigval :       32.23    38.84    46.43    49.17    56.60    61.13
eigval :       71.69    77.73    81.54    91.95    98.01   111.31
eigval :      115.93   119.36   136.91   154.90   163.49   172.81
eigval :      184.52   200.95   205.59   210.55   213.83   228.49
eigval :      231.59   258.43   267.25   282.16   285.43   298.77
eigval :      314.79   351.57   355.81   356.09   365.78   367.87
eigval :      379.18   382.72   387.99   398.03   404.71   407.13
eigval :      413.77   415.89   422.91   430.64   437.07   444.84
eigval :      458.74   476.87   483.23   495.38   504.29   516.96
eigval :      536.70   539.00   543.07   546.46   559.94   581.24
eigval :      582.28   582.85   586.78   589.67   591.10   593.41
eigval :      596.47   601.38   612.48   623.82   640.01   647.46
eigval :      649.47   652.46   661.02   666.02   673.41   683.47
eigval :      690.45   704.64   706.59   710.60   730.49   738.53
eigval :      743.70   753.62   764.59   768.37   772.50   773.98
eigval :      786.07   794.71   804.58   811.94   822.11   833.71
eigval :      838.41   847.90   855.15   867.31   871.16   872.83
eigval :      874.78   875.26   875.57   877.81   882.13   897.98
eigval :      902.27   904.33   909.02   910.11   911.20   911.85
eigval :      915.18   916.71   918.88   921.29   923.23   925.97
eigval :      926.78   927.70   928.71   930.08   930.37   936.38
eigval :      977.65   983.59   994.90  1006.68  1007.19  1010.78
eigval :     1051.54  1068.41  1070.60  1072.69  1073.18  1073.66
eigval :     1075.85  1078.19  1080.28  1092.53  1109.84  1117.05
eigval :     1123.04  1132.06  1139.15  1143.02  1149.86  1165.05
eigval :     1171.25  1175.11  1175.37  1176.13  1177.13  1178.26
eigval :     1180.49  1188.24  1194.31  1199.40  1200.80  1206.85
eigval :     1207.24  1219.54  1225.78  1239.19  1249.28  1250.76
eigval :     1259.22  1260.01  1261.20  1267.14  1273.06  1282.97
eigval :     1286.42  1289.18  1292.92  1324.40  1325.51  1325.79
eigval :     1328.41  1335.92  1337.26  1355.07  1355.88  1364.24
eigval :     1364.59  1383.14  1392.35  1413.47  1417.51  1425.22
eigval :     1427.20  1428.87  1429.44  1434.51  1438.11  1449.32
eigval :     1458.58  1459.87  1461.78  1466.76  1469.71  1470.72
eigval :     1475.36  1484.96  1497.17  1541.88  1551.02  1560.13
eigval :     1565.15  1575.67  1580.06  1582.11  1583.55  1586.72
eigval :     1588.98  1593.30  1594.24  1598.37  1600.15  1602.13
eigval :     3063.73  3065.75  3069.64  3070.53  3072.97  3073.31
eigval :     3073.51  3074.13  3075.15  3076.89  3077.30  3078.09
eigval :     3080.28  3080.47  3080.78  3081.57  3084.88  3085.45
eigval :     3086.02  3086.76  3088.34  3090.34  3091.48  3092.04
eigval :     3092.49  3092.91  3094.29  3095.72  3096.98  3097.31
eigval :     3098.17  3100.57  3113.93

   temp. (K)  partition function   enthalpy   heat capacity  entropy
                                   cal/mol     cal/K/mol   cal/K/mol   J/K/mol
 298.15  VIB  0.292E+21            25458.639    161.926    159.361
         ROT  0.149E+09              888.752      2.981     40.376
         INT  0.434E+29            26347.391    164.907    199.737
         TR   0.184E+29             1481.254      4.968     45.548
         TOT                       27828.6453   169.8752   245.2846  1026.2709

       T/K    H(0)-H(T)+PV         H(T)/Eh          T*S/Eh         G(T)/Eh
   ------------------------------------------------------------------------
    298.15    0.443478E-01    0.719908E+00    0.116543E+00    0.603366E+00
   ------------------------------------------------------------------------

         :::::::::::::::::::::::::::::::::::::::::::::::::::::
         ::                  THERMODYNAMIC                  ::
         :::::::::::::::::::::::::::::::::::::::::::::::::::::
         :: total free energy        -138.533653594902 Eh   ::
         ::.................................................::
         :: total energy             -139.137019405769 Eh   ::
         :: zero point energy           0.675560684470 Eh   ::
         :: G(RRHO) w/o ZPVE           -0.072194873603 Eh   ::
         :: G(RRHO) contrib.            0.603365810867 Eh   ::
         :::::::::::::::::::::::::::::::::::::::::::::::::::::

           -------------------------------------------------
          | TOTAL ENERGY             -139.137019405769 Eh   |
          | TOTAL ENTHALPY           -138.417110952193 Eh   |
          | TOTAL FREE ENERGY        -138.533653594902 Eh   |
          | GRADIENT NORM               0.000076150907 Eh/α |
          | HOMO-LUMO GAP               0.369896430879 eV   |
           -------------------------------------------------

 * finished run on 2025/09/09 at 08:55:30.664
