   * xtb version 6.7.1 (edcfbbe) compiled by 'albert@albert-system' on 2024-07-22

   ID    Z sym.   atoms
    1    6 C      1-11, 13-45, 47-53, 55, 56
    2    7 N      12, 46, 54
    3    1 H      57-89

          program call               : xtb data2507/toluene/SFI23pPM/SFI23pPM_toluene_T1_crest.xyz --gfn 2 --uhf 2 --gbsa toluene --ohess vtight --parallel 40 --molden --ceasefiles --namespace data2507/toluene/SFI23pPM/SFI23pPM_toluene_T1_finalOpt
      * Solvation model:               GBSA
        Solvent                        toluene
        Solvent mass                       9.2140E+01 g/mol
          :  Hamiltonian                  GFN2-xTB          :
 * total energy  :  -139.1369384 Eh     change        0.1347888E-07 Eh
 * total energy  :  -139.1370094 Eh     change       -0.7106915E-04 Eh
 * total energy  :  -139.1370401 Eh     change       -0.3062778E-04 Eh
 * total energy  :  -139.1370452 Eh     change       -0.5106827E-05 Eh
 * total energy  :  -139.1370483 Eh     change       -0.3180509E-05 Eh
 * total energy  :  -139.1370514 Eh     change       -0.3107945E-05 Eh
 * total energy  :  -139.1370546 Eh     change       -0.3103602E-05 Eh
 * total energy  :  -139.1370565 Eh     change       -0.1987067E-05 Eh
 * total energy  :  -139.1370580 Eh     change       -0.1456670E-05 Eh
 * total energy  :  -139.1370594 Eh     change       -0.1394384E-05 Eh
 * total energy  :  -139.1370625 Eh     change       -0.7831864E-06 Eh
 * total energy  :  -139.1370630 Eh     change       -0.4968834E-06 Eh
 * total energy  :  -139.1370634 Eh     change       -0.3644177E-06 Eh
 * total energy  :  -139.1370637 Eh     change       -0.2838915E-06 Eh
 * total energy  :  -139.1370639 Eh     change       -0.2395866E-06 Eh
 * total energy  :  -139.1370641 Eh     change       -0.1824573E-06 Eh
 * total energy  :  -139.1370642 Eh     change       -0.1234012E-06 Eh
 * total energy  :  -139.1370643 Eh     change       -0.1097516E-06 Eh
 * total energy  :  -139.1370644 Eh     change       -0.8484724E-07 Eh
   *** GEOMETRY OPTIMIZATION CONVERGED AFTER 21 ITERATIONS ***

 final structure:
================
89
 xtb: 6.7.1 (edcfbbe)
C            7.42824678585873        4.79198134789707        2.30154693841885
C            8.18882473716895        3.80951303838726        1.68357358968627
C            7.58406451398077        2.68686568225100        1.16161334029333
C            6.19447893242398        2.50804714786700        1.24487014323474
C            5.60491106297785        1.30576510497426        0.68649176766247
C            4.29441009301661        0.91530458016380        0.89767243135127
C            3.83811540247653       -0.27705708958822        0.30769472708433
C            2.51515278471858       -0.79764128845311        0.44862761559820
C            1.49310268701129       -0.15436464085120        1.18134879606439
C            0.23878238441403       -0.70003556164301        1.28307228735759
C           -0.06354700869431       -1.91803668801593        0.66209122626233
N           -1.34208180212281       -2.47601084805051        0.77545374132131
C           -1.61978810940734       -3.77830430017466        1.14727433543543
C           -0.75068169093616       -4.79433939932680        1.51987986094105
C           -1.29901665858417       -6.01577105067093        1.87049840039648
C           -2.67577234952951       -6.22216319853260        1.86195481737535
C           -3.54845303031829       -5.20363613406831        1.51711377654956
C           -3.02155921000444       -3.97150059851182        1.16207394638970
C           -3.61071700828232       -2.71412355438760        0.78158106652728
C           -4.92123910262882       -2.29821899512481        0.61672219469612
C           -5.12874922516388       -0.98545273994436        0.21678923947221
C           -4.04075962164624       -0.11552395705091       -0.03115665786316
C           -2.73492741780128       -0.51041784733705        0.12151717275306
C           -2.52678354065836       -1.82171622142508        0.55250086715590
C           -4.54029491180731        1.24117379212932       -0.46487871357403
C           -4.06113060884295        2.36299747346769        0.42787841926646
C           -4.24053113697572        2.51114156693669        1.78600644394836
C           -3.70323062376602        3.63209937287268        2.40592251583830
C           -3.00279502961458        4.58045483199827        1.67509692966663
C           -2.81988730751781        4.43384302388327        0.30884108400617
C           -3.35293838142031        3.31802590121094       -0.31617657377011
C           -3.32495100834471        2.89166519885040       -1.70716308466339
C           -2.75931983423356        3.47380729704024       -2.83002844848591
C           -2.89035678745725        2.82836898949134       -4.04969357358013
C           -3.57200915874066        1.62441105379656       -4.14884532602412
C           -4.14182996670985        1.03513412726658       -3.02754501063065
C           -4.01429111493316        1.67482185533840       -1.81383791690964
C           -6.03678973334180        1.04657927779132       -0.43739869267505
C           -7.02445276124515        1.95606963315094       -0.74465989648677
C           -8.35008465473778        1.55029517069394       -0.65245927578535
C           -8.67372172844897        0.25828948664710       -0.25925745421811
C           -7.68483670352121       -0.65934845066072        0.05151960915637
C           -6.35734362119716       -0.26218219638701       -0.03770184419865
C            0.93537953588165       -2.57089913223947       -0.07279694832123
C            2.18661871607967       -2.02547378676952       -0.17447733606004
N            4.72557573981580       -1.00260706928750       -0.43860155416053
C            5.96279437859007       -0.60434775900223       -0.60316998808400
C            6.87368192941526       -1.42474405303177       -1.40512739839893
C            6.45662693390477       -2.65459818999643       -1.90949061059494
C            7.31760038015693       -3.42424412546327       -2.66800841004517
C            8.60261902958418       -2.97534776008108       -2.93188667951632
C            9.02472231709145       -1.75261230557136       -2.43329173256939
C            8.16662660684743       -0.98074725953041       -1.67335126638154
N            6.41847409264867        0.52007158984668       -0.07889406326733
C            5.43972250802967        3.51269750902916        1.86521372999308
C            6.05223764515110        4.63420212681643        2.38503632025427
H            7.90092000453986        5.67255114246732        2.71078367493090
H            9.26130514125453        3.92323469331529        1.61032680229782
H            8.17102196156722        1.91630595362857        0.68499656567298
H            3.63804888324432        1.50186377499781        1.51721422569196
H            1.69095010239118        0.77973479648213        1.68328932614841
H           -0.51965753890987       -0.20401221936512        1.87156983444726
H            0.31620132392716       -4.63531044540448        1.54711780824613
H           -0.64424329591720       -6.82374938228343        2.16105525110956
H           -3.06665593347737       -7.18957205809103        2.13983333303080
H           -4.61589910254412       -5.36267698003141        1.52853675890799
H           -5.74630831385330       -2.97111075453994        0.78950286225508
H           -1.91260667598156        0.15484746784581       -0.09159844314779
H           -4.78582216106311        1.77305741399621        2.35657494304390
H           -3.83326602534915        3.76675167489224        3.46997428169471
H           -2.59396582350025        5.44493030309159        2.17838757029584
H           -2.27281232558734        5.17475489751719       -0.25522451174313
H           -2.22681194746134        4.41066449704542       -2.75828901855294
H           -2.45547082564985        3.26818232998889       -4.93571003887339
H           -3.66106374748789        1.13879200823673       -5.10970839446002
H           -4.67247807539732        0.09716297019315       -3.10611362295009
H           -6.77420473025371        2.96123890379789       -1.05166108284917
H           -9.13903212276693        2.24876387417304       -0.88991103506256
H           -9.71216183476357       -0.03283166739201       -0.19573257265303
H           -7.94123298831243       -1.66267414224853        0.35688008447487
H            0.69906002544147       -3.49320061371611       -0.58314632859123
H            2.95511458395452       -2.51817609405268       -0.74968084947737
H            5.45342018685379       -2.99041071032476       -1.69503358092055
H            6.98781982585258       -4.37698272966595       -3.05600844091360
H            9.27433524874422       -3.57782910473991       -3.52569839715238
H           10.02538009816606       -1.40123600327595       -2.63883755074796
H            8.47816853364671       -0.02451756029814       -1.28089014233068
H            4.36560860714487        3.42630653744828        1.93068256729058
H            5.45117630583770        5.39838033018968        2.85778098609595

          :  Hamiltonian                  GFN2-xTB          :
         :: gradient norm              0.000112568959 Eh/a0 ::
         :: HOMO-LUMO gap              0.370713578273 eV    ::
         :: SCC energy              -141.770727332459 Eh    ::
         :: -> dispersion             -0.127061151299 Eh    ::
         :: -> Gsolv                  -0.060761622660 Eh    ::
         :: repulsion energy           2.633662915746 Eh    ::

    * Orbital Energies and Occupations

         #    Occupation            Energy/Eh            Energy/eV
      -------------------------------------------------------------
         1        2.0000           -0.6888566             -18.7447
       ...           ...                  ...                  ...
       119        2.0000           -0.4064042             -11.0588
       120        2.0000           -0.4038936             -10.9905
       121        2.0000           -0.4016789             -10.9302
       122        2.0000           -0.4006796             -10.9030
       123        2.0000           -0.3989877             -10.8570
       124        2.0000           -0.3977981             -10.8246
       125        2.0000           -0.3951251             -10.7519
       126        2.0000           -0.3891846             -10.5903
       127        2.0000           -0.3866093             -10.5202
       128        2.0000           -0.3813561             -10.3772
       129        1.6938           -0.3669706              -9.9858
       130        1.3062           -0.3654163              -9.9435
       131        0.9992           -0.2815248              -7.6607 (HOMO)
       132        0.0008           -0.2679013              -7.2900 (LUMO)
       133                         -0.2576724              -7.0116
       134                         -0.2551178              -6.9421
       135                         -0.2549481              -6.9375
       136                         -0.2394627              -6.5161
       137                         -0.2297588              -6.2521
       138                         -0.2286335              -6.2214
       139                         -0.2262424              -6.1564
       140                         -0.2228244              -6.0634
       141                         -0.2225579              -6.0561
       142                         -0.2207321              -6.0064
       ...                                ...                  ...
       257                          0.7369508              20.0535
      -------------------------------------------------------------
                  HL-Gap            0.0136235 Eh            0.3707 eV

     #   Z          covCN         q      C6AA      α(0)
     1   6 C        2.919    -0.038    28.938     8.821
     2   6 C        2.916    -0.032    28.801     8.800
     3   6 C        2.926    -0.033    28.834     8.806
     4   6 C        2.975    -0.003    28.089     8.693
     5   6 C        2.934     0.081    26.189     8.393
     6   6 C        2.912    -0.057    29.425     8.895
     7   6 C        2.934     0.070    26.437     8.432
     8   6 C        2.972    -0.007    28.180     8.708
     9   6 C        2.919    -0.044    29.101     8.846
    10   6 C        2.916    -0.042    29.047     8.838
    11   6 C        2.913     0.040    27.104     8.537
    12   7 N        2.800    -0.009    21.428     6.875
    13   6 C        3.076     0.046    26.890     8.502
    14   6 C        2.909    -0.042    29.032     8.835
    15   6 C        2.923    -0.031    28.781     8.798
    16   6 C        2.920    -0.034    28.853     8.808
    17   6 C        2.912    -0.029    28.730     8.789
    18   6 C        3.063    -0.012    28.259     8.717
    19   6 C        3.066    -0.014    28.284     8.721
    20   6 C        2.907    -0.033    28.828     8.804
    21   6 C        3.035     0.000    27.992     8.678
    22   6 C        3.057     0.006    27.828     8.651
    23   6 C        2.905    -0.047    29.157     8.854
    24   6 C        3.079     0.047    26.863     8.497
    25   6 C        3.976     0.010    20.334     6.407
    26   6 C        3.055     0.005    27.854     8.655
    27   6 C        2.913    -0.034    28.844     8.807
    28   6 C        2.923    -0.032    28.805     8.801
    29   6 C        2.921    -0.033    28.815     8.803
    30   6 C        2.914    -0.034    28.850     8.808
    31   6 C        3.035     0.001    27.974     8.675
    32   6 C        3.035     0.001    27.981     8.676
    33   6 C        2.914    -0.034    28.850     8.808
    34   6 C        2.921    -0.033    28.813     8.802
    35   6 C        2.923    -0.032    28.796     8.800
    36   6 C        2.913    -0.034    28.840     8.806
    37   6 C        3.054     0.005    27.858     8.656
    38   6 C        3.054     0.009    27.766     8.642
    39   6 C        2.913    -0.032    28.796     8.799
    40   6 C        2.923    -0.029    28.717     8.788
    41   6 C        2.920    -0.031    28.773     8.796
    42   6 C        2.914    -0.033    28.815     8.802
    43   6 C        3.034     0.005    27.882     8.661
    44   6 C        2.915    -0.043    29.058     8.840
    45   6 C        2.924    -0.037    28.931     8.821
    46   7 N        1.853    -0.256    27.511     7.774
    47   6 C        2.885     0.191    23.925     8.019
    48   6 C        2.983    -0.002    28.078     8.692
    49   6 C        2.924    -0.028    28.691     8.784
    50   6 C        2.918    -0.029    28.715     8.787
    51   6 C        2.920    -0.026    28.661     8.779
    52   6 C        2.918    -0.028    28.711     8.787
    53   6 C        2.924    -0.027    28.684     8.783
    54   7 N        1.852    -0.269    27.843     7.821
    55   6 C        2.921    -0.041    29.018     8.834
    56   6 C        2.917    -0.032    28.809     8.802
    57   1 H        0.926     0.029     2.604     2.523
    58   1 H        0.926     0.030     2.588     2.516
    59   1 H        0.926     0.036     2.497     2.471
    60   1 H        0.926     0.031     2.577     2.510
    61   1 H        0.926     0.028     2.612     2.527
    62   1 H        0.926     0.036     2.504     2.475
    63   1 H        0.926     0.041     2.430     2.438
    64   1 H        0.926     0.040     2.445     2.445
    65   1 H        0.926     0.040     2.446     2.446
    66   1 H        0.926     0.043     2.411     2.428
    67   1 H        0.926     0.048     2.346     2.395
    68   1 H        0.926     0.038     2.477     2.461
    69   1 H        0.926     0.029     2.597     2.520
    70   1 H        0.926     0.034     2.535     2.490
    71   1 H        0.926     0.033     2.540     2.492
    72   1 H        0.926     0.034     2.530     2.487
    73   1 H        0.926     0.034     2.529     2.487
    74   1 H        0.926     0.034     2.537     2.491
    75   1 H        0.926     0.034     2.530     2.487
    76   1 H        0.926     0.029     2.594     2.518
    77   1 H        0.926     0.031     2.570     2.507
    78   1 H        0.926     0.037     2.486     2.466
    79   1 H        0.926     0.038     2.477     2.461
    80   1 H        0.926     0.040     2.450     2.448
    81   1 H        0.926     0.040     2.452     2.449
    82   1 H        0.926     0.042     2.419     2.432
    83   1 H        0.926     0.045     2.378     2.412
    84   1 H        0.926     0.042     2.421     2.433
    85   1 H        0.926     0.043     2.412     2.429
    86   1 H        0.926     0.041     2.430     2.438
    87   1 H        0.926     0.045     2.378     2.411
    88   1 H        0.926     0.024     2.670     2.555
    89   1 H        0.926     0.028     2.608     2.525

molecular dipole:
                 x           y           z       tot (Debye)
 q only:       -2.667      -1.196      -0.181
   full:       -2.757      -0.914      -0.002       7.382

 projected vibrational frequencies (cm⁻¹)
eigval :       -0.00    -0.00     0.00     0.00     0.00     0.00
eigval :       -3.42     9.50    11.98    16.36    24.82    29.07
eigval :       31.72    35.06    44.15    50.52    56.87    60.50
eigval :       72.50    74.95    82.42    89.60    98.89   111.38
eigval :      116.20   118.74   137.16   157.11   160.15   172.62
eigval :      181.61   198.98   205.68   212.37   212.51   228.28
eigval :      231.11   258.59   266.60   281.94   286.13   296.72
eigval :      315.03   351.57   355.78   357.42   363.79   365.89
eigval :      378.22   380.62   387.47   397.63   403.58   405.62
eigval :      413.80   416.88   420.89   430.24   436.74   445.16
eigval :      458.34   477.60   482.76   495.48   504.12   517.15
eigval :      538.76   539.43   541.01   546.13   559.93   581.16
eigval :      582.01   583.06   586.68   588.87   591.29   593.44
eigval :      596.49   601.28   612.59   623.88   639.56   647.43
eigval :      649.68   653.17   660.03   664.87   673.30   682.44
eigval :      690.76   704.83   705.93   710.31   730.39   738.61
eigval :      748.67   753.19   764.70   767.32   773.68   777.29
eigval :      785.19   791.42   804.91   811.95   821.87   831.63
eigval :      836.85   843.77   855.30   865.87   870.38   873.97
eigval :      875.03   877.82   881.27   881.66   885.45   898.45
eigval :      900.74   904.49   907.75   909.73   910.63   913.78
eigval :      918.86   919.11   920.90   922.77   923.86   926.76
eigval :      927.02   927.68   928.18   929.95   930.76   936.69
eigval :      977.91   983.45   995.01  1006.64  1006.97  1010.49
eigval :     1050.84  1067.43  1070.61  1072.22  1072.67  1073.99
eigval :     1075.81  1077.45  1079.69  1092.46  1110.15  1117.03
eigval :     1122.76  1130.92  1138.85  1142.09  1149.89  1165.13
eigval :     1171.53  1174.35  1175.21  1175.92  1176.55  1178.21
eigval :     1179.65  1187.10  1194.48  1199.25  1200.06  1206.53
eigval :     1206.74  1219.35  1225.70  1238.46  1249.11  1250.81
eigval :     1258.21  1258.99  1260.93  1267.22  1272.18  1282.79
eigval :     1285.23  1289.56  1294.07  1324.44  1325.59  1326.02
eigval :     1328.32  1335.70  1337.21  1354.88  1355.10  1364.13
eigval :     1364.64  1383.81  1393.03  1413.66  1417.51  1425.31
eigval :     1426.78  1429.00  1429.24  1434.89  1438.01  1450.26
eigval :     1458.13  1459.81  1462.41  1466.81  1469.65  1470.86
eigval :     1475.48  1485.75  1497.18  1542.15  1551.78  1560.32
eigval :     1565.68  1575.95  1579.87  1581.91  1583.52  1586.98
eigval :     1589.04  1593.27  1594.23  1598.41  1600.25  1602.11
eigval :     3064.51  3066.12  3069.64  3070.00  3072.83  3073.04
eigval :     3073.14  3073.75  3074.88  3076.66  3077.24  3079.15
eigval :     3079.69  3080.22  3080.77  3081.30  3084.88  3085.88
eigval :     3086.09  3086.46  3088.24  3089.92  3092.06  3092.65
eigval :     3093.38  3093.46  3093.95  3095.91  3096.08  3097.67
eigval :     3098.05  3099.85  3113.70

   temp. (K)  partition function   enthalpy   heat capacity  entropy
                                   cal/mol     cal/K/mol   cal/K/mol   J/K/mol
 298.15  VIB  0.793E+21            25501.991    161.730    160.196
         ROT  0.149E+09              888.752      2.981     40.385
         INT  0.118E+30            26390.743    164.711    200.581
         TR   0.184E+29             1481.254      4.968     45.548
         TOT                       27871.9972   169.6790   246.1288  1029.8030

       T/K    H(0)-H(T)+PV         H(T)/Eh          T*S/Eh         G(T)/Eh
   ------------------------------------------------------------------------
    298.15    0.444169E-01    0.719897E+00    0.116944E+00    0.602953E+00
   ------------------------------------------------------------------------

         :::::::::::::::::::::::::::::::::::::::::::::::::::::
         ::                  THERMODYNAMIC                  ::
         :::::::::::::::::::::::::::::::::::::::::::::::::::::
         :: total free energy        -138.534111264928 Eh   ::
         ::.................................................::
         :: total energy             -139.137064409257 Eh   ::
         :: zero point energy           0.675480040245 Eh   ::
         :: G(RRHO) w/o ZPVE           -0.072526895916 Eh   ::
         :: G(RRHO) contrib.            0.602953144329 Eh   ::
         :::::::::::::::::::::::::::::::::::::::::::::::::::::

           -------------------------------------------------
          | TOTAL ENERGY             -139.137064409257 Eh   |
          | TOTAL ENTHALPY           -138.417167514244 Eh   |
          | TOTAL FREE ENERGY        -138.534111264928 Eh   |
          | GRADIENT NORM               0.000113093092 Eh/α |
          | HOMO-LUMO GAP               0.370715378783 eV   |
           -------------------------------------------------

 * finished run on 2025/09/09 at 09:04:39.759
