   * xtb version 6.7.1 (edcfbbe) compiled by 'albert@albert-system' on 2024-07-22

   ID    Z sym.   atoms
    1    6 C      1-11, 13-45, 47-53, 55, 56
    2    7 N      12, 46, 54
    3    1 H      57-89

          program call               : xtb data2507/toluene/SFI23pPM/SFI23pPM_toluene_S0_crest.xyz --gfn 2 --gbsa toluene --ohess vtight --parallel 40 --molden --ceasefiles --namespace data2507/toluene/SFI23pPM/SFI23pPM_toluene_S0_finalOpt
      * Solvation model:               GBSA
        Solvent                        toluene
        Solvent mass                       9.2140E+01 g/mol
          :  Hamiltonian                  GFN2-xTB          :
 * total energy  :  -139.2179567 Eh     change       -0.4339768E-08 Eh
 * total energy  :  -139.2179902 Eh     change       -0.3350771E-04 Eh
 * total energy  :  -139.2180017 Eh     change       -0.1149869E-04 Eh
 * total energy  :  -139.2180064 Eh     change       -0.4654235E-05 Eh
 * total energy  :  -139.2180117 Eh     change       -0.5358456E-05 Eh
 * total energy  :  -139.2180152 Eh     change       -0.3461206E-05 Eh
 * total energy  :  -139.2180190 Eh     change       -0.3826469E-05 Eh
 * total energy  :  -139.2180221 Eh     change       -0.3131726E-05 Eh
 * total energy  :  -139.2180245 Eh     change       -0.2399473E-05 Eh
 * total energy  :  -139.2180269 Eh     change       -0.2384371E-05 Eh
 * total energy  :  -139.2180680 Eh     change       -0.8821185E-06 Eh
 * total energy  :  -139.2180689 Eh     change       -0.9455224E-06 Eh
 * total energy  :  -139.2180700 Eh     change       -0.1126251E-05 Eh
 * total energy  :  -139.2180713 Eh     change       -0.1271654E-05 Eh
 * total energy  :  -139.2180725 Eh     change       -0.1223379E-05 Eh
 * total energy  :  -139.2180737 Eh     change       -0.1177087E-05 Eh
 * total energy  :  -139.2180749 Eh     change       -0.1225713E-05 Eh
 * total energy  :  -139.2180763 Eh     change       -0.1367952E-05 Eh
 * total energy  :  -139.2180763 Eh     change       -0.8535267E-08 Eh
   *** GEOMETRY OPTIMIZATION CONVERGED AFTER 44 ITERATIONS ***

 final structure:
================
89
 xtb: 6.7.1 (edcfbbe)
C            6.42393993650187        5.68032566265152        0.73916510331049
C            7.20711538599843        4.83592075514202       -0.03198261840802
C            6.86351963078672        3.50451977946720       -0.16691819166182
C            5.72513174258192        3.00029991879781        0.46061894089492
C            5.38016546129403        1.58271192325105        0.28803048839452
C            4.06942661040092        1.11294460957830        0.36807516083947
C            3.86647369657185       -0.25098764913622        0.15984762142775
C            2.53350844331231       -0.86282255472958        0.20525274473757
C            1.52774436179405       -0.36472421284693        1.03155053302670
C            0.28503934470813       -0.96358800846531        1.06467166744772
C            0.01364467178519       -2.06385280894612        0.25298633170481
N           -1.25165144279221       -2.66057988518078        0.27441456564316
C           -1.50943770438493       -4.01502230947249        0.38968222222438
C           -0.62901922285403       -5.07337269690812        0.56399844178111
C           -1.16091257863643       -6.34427341989645        0.67781095530025
C           -2.53586301362433       -6.56477542366176        0.63206961623415
C           -3.41837001808937       -5.51219798066157        0.49070459626327
C           -2.90706035684284       -4.22574908237936        0.37496936476361
C           -3.51742521464593       -2.93122712764419        0.24539748028597
C           -4.84190643011770       -2.51695264088648        0.17233272260815
C           -5.07855743417363       -1.16166421418942        0.03937071324033
C           -4.01185017422935       -0.24201978791394       -0.04535876955416
C           -2.69483734235253       -0.63250044794167        0.01585784755297
C           -2.45743887205710       -1.99288708551924        0.18820671384074
C           -4.53732297960799        1.16642004151133       -0.19167302441928
C           -4.05635660505750        2.08930964300286        0.90321087942615
C           -4.21886694870767        1.95834505895228        2.26539646132729
C           -3.68266846184066        2.93634142529520        3.09323750187191
C           -2.99876001419571        4.01991977048313        2.56182832013172
C           -2.83318770068844        4.15473389191768        1.19219121207449
C           -3.36632806604949        3.18323020095437        0.36025478128418
C           -3.36000580694848        3.05083799075280       -1.08885120434979
C           -2.82559993616824        3.86062034987235       -2.07806516461187
C           -2.98040176368900        3.48110490195807       -3.40214641698954
C           -3.65442230041800        2.31519791720137       -3.73449202719830
C           -4.19236685706746        1.49852775062494       -2.74816639949596
C           -4.04169892353707        1.87333424350759       -1.43069848741030
C           -6.03116000079297        0.94434134032597       -0.18183344016469
C           -7.03549909875312        1.88172425063331       -0.28412324905780
C           -8.35408283948732        1.44596094765518       -0.25321340326798
C           -8.65235612291051        0.09772764135182       -0.12284418435347
C           -7.64419781507394       -0.84767453306208       -0.01882677704903
C           -6.32625232234689       -0.42040962481082       -0.04870667116374
C            1.01557013056650       -2.56499000457258       -0.57702347321971
C            2.26302199862685       -1.97786750848242       -0.58716878315486
N            4.88719948422347       -1.06214427447881       -0.11282249988223
C            6.10544764300477       -0.53328663382700       -0.16595592340728
C            7.22433890143719       -1.43637239862669       -0.45468386157830
C            8.53137571850336       -0.95243620354258       -0.47414677514444
C            9.58430361653692       -1.80520087732006       -0.74565252385951
C            9.34549752970404       -3.14689209767790       -1.00059993770990
C            8.04812598068915       -3.63525382910946       -0.97993900908809
C            6.99156154114187       -2.78726661933717       -0.70762072338582
N            6.38703924965515        0.75140540836724        0.02318066902889
C            4.94723070095466        3.85459811366089        1.23959383428500
C            5.29811107065144        5.18516083245000        1.37715553360186
H            6.69234081282805        6.72100524495319        0.84628301679041
H            8.08789164929162        5.21691028048892       -0.52776752105880
H            7.46223046669016        2.83452274686391       -0.76485442302198
H            3.24145181177474        1.78101831251189        0.53519281896640
H            1.72592963842104        0.47490105890060        1.68090299369323
H           -0.47715319795881       -0.59295994762774        1.73357526801225
H            0.43689486717486       -4.91379713356342        0.62062726822182
H           -0.49489819073814       -7.18452950932838        0.80928109688353
H           -2.91237679688983       -7.57329530339540        0.72001652181155
H           -4.48471573095735       -5.68069629114600        0.47543375203426
H           -5.65015170957645       -3.23029442988785        0.21803931925524
H           -1.89211734621842        0.08346605318232       -0.07276868426683
H           -4.75274563051643        1.11484313369702        2.67941760215061
H           -3.80097249277186        2.85220432305226        4.16392627032681
H           -2.59046060488484        4.76880401770929        3.22540915100590
H           -2.30064082274481        5.00084564382463        0.78335524193265
H           -2.30097776676939        4.77016485057190       -1.82471859789106
H           -2.57178463283487        4.10165620435917       -4.18685415353431
H           -3.76368772001745        2.03923329045829       -4.77330605782233
H           -4.71879709258354        0.59118895269096       -3.00781714941097
H           -6.80301892993402        2.93227208403711       -0.38606202100329
H           -9.15588388170672        2.16576731567430       -0.33217740449126
H           -9.68544805749891       -0.21880669150133       -0.10155580470187
H           -7.88259458167317       -1.89613659015082        0.08309696516944
H            0.80400614076503       -3.40477697260096       -1.22129667025808
H            3.04450121492733       -2.36066910153865       -1.22512496881021
H            8.70071041738623        0.09333897398247       -0.26939119376332
H           10.59526350573539       -1.42450918409071       -0.75824558954879
H           10.16988175591394       -3.81173040012587       -1.21357576866646
H            7.86164512620535       -4.68112812773881       -1.17626960449156
H            5.97663023587708       -3.15251030280132       -0.68310111986068
H            4.07883230318047        3.47618115772290        1.75847766783689
H            4.69149162800873        5.83840997848692        1.98744202526803

          :  Hamiltonian                  GFN2-xTB          :
         :: gradient norm              0.000068518339 Eh/a0 ::
         :: HOMO-LUMO gap              2.149232287382 eV    ::
         :: SCC energy              -141.860372044207 Eh    ::
         :: -> dispersion             -0.127138185568 Eh    ::
         :: -> Gsolv                  -0.059714294705 Eh    ::
         :: repulsion energy           2.642295720815 Eh    ::

    * Orbital Energies and Occupations

         #    Occupation            Energy/Eh            Energy/eV
      -------------------------------------------------------------
         1        2.0000           -0.6798668             -18.5001
       ...           ...                  ...                  ...
       118        2.0000           -0.4110092             -11.1841
       119        2.0000           -0.4081362             -11.1060
       120        2.0000           -0.4073630             -11.0849
       121        2.0000           -0.4072683             -11.0823
       122        2.0000           -0.4009246             -10.9097
       123        2.0000           -0.3992009             -10.8628
       124        2.0000           -0.3972305             -10.8092
       125        2.0000           -0.3962760             -10.7832
       126        2.0000           -0.3924196             -10.6783
       127        2.0000           -0.3828345             -10.4175
       128        2.0000           -0.3759702             -10.2307
       129        2.0000           -0.3647996              -9.9267
       130        2.0000           -0.3614952              -9.8368 (HOMO)
       131                         -0.2825123              -7.6876 (LUMO)
       132                         -0.2747061              -7.4751
       133                         -0.2535310              -6.8989
       134                         -0.2495458              -6.7905
       135                         -0.2485765              -6.7641
       136                         -0.2412011              -6.5634
       137                         -0.2369897              -6.4488
       138                         -0.2299549              -6.2574
       139                         -0.2269079              -6.1745
       140                         -0.2252895              -6.1304
       141                         -0.2252821              -6.1302
       ...                                ...                  ...
       257                          0.7449534              20.2712
      -------------------------------------------------------------
                  HL-Gap            0.0789828 Eh            2.1492 eV

     #   Z          covCN         q      C6AA      α(0)
     1   6 C        2.920    -0.026    28.650     8.778
     2   6 C        2.918    -0.028    28.689     8.783
     3   6 C        2.926    -0.024    28.614     8.772
     4   6 C        2.979    -0.000    28.026     8.684
     5   6 C        2.966     0.113    25.511     8.285
     6   6 C        2.912    -0.072    29.791     8.950
     7   6 C        2.968     0.113    25.512     8.285
     8   6 C        2.979    -0.003    28.084     8.693
     9   6 C        2.922    -0.031    28.763     8.795
    10   6 C        2.921    -0.042    29.042     8.837
    11   6 C        2.913     0.068    26.485     8.439
    12   7 N        2.801    -0.039    21.997     6.966
    13   6 C        3.071     0.046    26.892     8.503
    14   6 C        2.910    -0.051    29.264     8.870
    15   6 C        2.924    -0.034    28.850     8.808
    16   6 C        2.920    -0.041    29.023     8.834
    17   6 C        2.912    -0.034    28.849     8.807
    18   6 C        3.067    -0.016    28.350     8.731
    19   6 C        3.067    -0.019    28.421     8.742
    20   6 C        2.909    -0.038    28.956     8.823
    21   6 C        3.034    -0.010    28.231     8.715
    22   6 C        3.059     0.003    27.894     8.661
    23   6 C        2.906    -0.055    29.368     8.886
    24   6 C        3.076     0.045    26.900     8.503
    25   6 C        3.977     0.010    20.343     6.408
    26   6 C        3.055     0.005    27.850     8.655
    27   6 C        2.913    -0.034    28.845     8.807
    28   6 C        2.922    -0.033    28.819     8.803
    29   6 C        2.921    -0.034    28.840     8.807
    30   6 C        2.914    -0.035    28.874     8.811
    31   6 C        3.035    -0.000    27.998     8.679
    32   6 C        3.036    -0.000    28.004     8.680
    33   6 C        2.914    -0.035    28.874     8.811
    34   6 C        2.921    -0.034    28.838     8.806
    35   6 C        2.922    -0.033    28.812     8.802
    36   6 C        2.913    -0.034    28.840     8.806
    37   6 C        3.055     0.005    27.855     8.655
    38   6 C        3.053     0.004    27.877     8.659
    39   6 C        2.914    -0.034    28.853     8.808
    40   6 C        2.922    -0.034    28.848     8.808
    41   6 C        2.921    -0.034    28.840     8.807
    42   6 C        2.915    -0.036    28.901     8.816
    43   6 C        3.035     0.001    27.970     8.675
    44   6 C        2.920    -0.042    29.034     8.836
    45   6 C        2.925    -0.023    28.588     8.768
    46   7 N        1.849    -0.293    28.445     7.905
    47   6 C        2.943     0.190    23.957     8.028
    48   6 C        2.984    -0.004    28.122     8.699
    49   6 C        2.924    -0.029    28.716     8.788
    50   6 C        2.918    -0.029    28.720     8.788
    51   6 C        2.920    -0.026    28.646     8.777
    52   6 C        2.918    -0.029    28.721     8.788
    53   6 C        2.924    -0.029    28.719     8.788
    54   7 N        1.849    -0.293    28.441     7.904
    55   6 C        2.923    -0.032    28.796     8.800
    56   6 C        2.918    -0.029    28.715     8.787
    57   1 H        0.926     0.042     2.428     2.437
    58   1 H        0.926     0.041     2.432     2.439
    59   1 H        0.926     0.047     2.351     2.398
    60   1 H        0.926     0.037     2.484     2.465
    61   1 H        0.926     0.042     2.426     2.436
    62   1 H        0.926     0.048     2.345     2.395
    63   1 H        0.926     0.033     2.548     2.496
    64   1 H        0.926     0.033     2.549     2.497
    65   1 H        0.926     0.030     2.579     2.511
    66   1 H        0.926     0.033     2.544     2.494
    67   1 H        0.926     0.037     2.494     2.470
    68   1 H        0.926     0.028     2.610     2.526
    69   1 H        0.926     0.027     2.624     2.533
    70   1 H        0.926     0.032     2.552     2.498
    71   1 H        0.926     0.033     2.547     2.496
    72   1 H        0.926     0.033     2.540     2.492
    73   1 H        0.926     0.033     2.540     2.492
    74   1 H        0.926     0.033     2.550     2.497
    75   1 H        0.926     0.032     2.552     2.498
    76   1 H        0.926     0.027     2.622     2.532
    77   1 H        0.926     0.025     2.655     2.548
    78   1 H        0.926     0.031     2.575     2.510
    79   1 H        0.926     0.032     2.564     2.504
    80   1 H        0.926     0.033     2.550     2.497
    81   1 H        0.926     0.051     2.308     2.376
    82   1 H        0.926     0.054     2.272     2.357
    83   1 H        0.926     0.050     2.317     2.380
    84   1 H        0.926     0.041     2.438     2.442
    85   1 H        0.926     0.042     2.423     2.434
    86   1 H        0.926     0.041     2.437     2.441
    87   1 H        0.926     0.050     2.317     2.380
    88   1 H        0.926     0.035     2.522     2.483
    89   1 H        0.926     0.040     2.449     2.447

molecular dipole:
                 x           y           z       tot (Debye)
 q only:        0.331       0.255      -0.017
   full:        0.054       0.557       0.080       1.437

 projected vibrational frequencies (cm⁻¹)
eigval :       -0.00    -0.00    -0.00     0.00     0.00     0.00
eigval :        3.96     7.00    11.42    25.13    28.64    30.90
eigval :       31.04    44.79    47.50    47.82    54.33    58.46
eigval :       70.11    78.67    80.53    95.26    98.56   111.18
eigval :      115.32   120.30   138.37   150.14   170.46   174.37
eigval :      187.34   203.10   211.28   214.46   223.88   228.30
eigval :      237.45   262.77   266.94   281.96   288.58   304.11
eigval :      318.88   350.76   355.11   356.65   366.99   367.79
eigval :      382.29   384.89   388.17   397.67   408.00   414.06
eigval :      417.12   420.91   429.71   435.47   444.38   449.91
eigval :      475.55   483.35   489.00   503.65   505.05   519.14
eigval :      538.09   540.99   548.67   563.26   582.51   586.32
eigval :      587.20   592.82   593.69   601.24   602.25   606.40
eigval :      610.89   619.31   629.73   633.66   649.42   652.61
eigval :      664.10   673.11   674.98   681.79   691.43   699.26
eigval :      703.80   708.38   713.25   734.60   737.00   738.19
eigval :      753.62   764.52   767.99   774.76   776.32   780.42
eigval :      785.44   816.50   820.45   835.49   839.08   843.56
eigval :      846.13   865.02   873.59   875.88   876.36   876.65
eigval :      877.47   877.58   879.91   882.67   898.32   902.56
eigval :      905.24   909.77   910.55   910.78   911.01   919.84
eigval :      926.19   926.48   926.67   928.05   929.05   929.90
eigval :      931.19   932.85   933.48   933.61   935.12   970.41
eigval :      987.82  1006.42  1007.77  1011.60  1016.45  1025.73
eigval :     1070.92  1072.09  1074.27  1075.19  1076.66  1077.83
eigval :     1078.38  1087.28  1103.70  1111.67  1121.85  1124.43
eigval :     1132.72  1136.45  1141.60  1151.34  1169.88  1173.33
eigval :     1176.10  1176.34  1176.91  1178.92  1179.33  1182.66
eigval :     1187.62  1193.50  1195.42  1201.34  1206.41  1207.70
eigval :     1220.29  1221.47  1231.27  1242.09  1246.65  1258.13
eigval :     1259.85  1260.86  1265.33  1269.61  1271.25  1277.74
eigval :     1283.49  1312.53  1319.35  1321.12  1324.67  1326.23
eigval :     1340.58  1347.11  1355.91  1360.23  1363.35  1364.31
eigval :     1381.44  1396.61  1408.96  1423.99  1427.11  1428.03
eigval :     1429.17  1429.96  1437.49  1439.94  1460.27  1460.89
eigval :     1467.83  1469.85  1475.08  1477.01  1492.54  1503.32
eigval :     1511.33  1528.52  1559.58  1567.13  1581.13  1582.36
eigval :     1583.39  1583.93  1590.18  1590.26  1593.94  1594.07
eigval :     1594.91  1595.41  1600.57  1602.11  1602.49  1610.06
eigval :     3067.60  3068.05  3068.42  3071.07  3071.81  3072.29
eigval :     3072.36  3072.46  3073.43  3076.54  3076.58  3078.64
eigval :     3079.06  3079.58  3079.86  3082.50  3082.95  3086.81
eigval :     3087.27  3087.43  3087.48  3088.91  3089.82  3090.36
eigval :     3091.89  3093.15  3094.86  3095.70  3099.40  3101.23
eigval :     3102.72  3104.52  3108.68

   temp. (K)  partition function   enthalpy   heat capacity  entropy
                                   cal/mol     cal/K/mol   cal/K/mol   J/K/mol
 298.15  VIB  0.315E+21            25180.109    160.042    158.260
         ROT  0.147E+09              888.752      2.981     40.349
         INT  0.462E+29            26068.861    163.022    198.609
         TR   0.184E+29             1481.254      4.968     45.548
         TOT                       27550.1150   167.9906   244.1564  1021.5505

       T/K    H(0)-H(T)+PV         H(T)/Eh          T*S/Eh         G(T)/Eh
   ------------------------------------------------------------------------
    298.15    0.439039E-01    0.723467E+00    0.116007E+00    0.607460E+00
   ------------------------------------------------------------------------

         :::::::::::::::::::::::::::::::::::::::::::::::::::::
         ::                  THERMODYNAMIC                  ::
         :::::::::::::::::::::::::::::::::::::::::::::::::::::
         :: total free energy        -138.610616017679 Eh   ::
         ::.................................................::
         :: total energy             -139.218076316823 Eh   ::
         :: zero point energy           0.679562993163 Eh   ::
         :: G(RRHO) w/o ZPVE           -0.072102694019 Eh   ::
         :: G(RRHO) contrib.            0.607460299144 Eh   ::
         :::::::::::::::::::::::::::::::::::::::::::::::::::::

           -------------------------------------------------
          | TOTAL ENERGY             -139.218076316823 Eh   |
          | TOTAL ENTHALPY           -138.494609420727 Eh   |
          | TOTAL FREE ENERGY        -138.610616017679 Eh   |
          | GRADIENT NORM               0.000068519029 Eh/α |
          | HOMO-LUMO GAP               2.149232174724 eV   |
           -------------------------------------------------

 * finished run on 2025/09/09 at 08:55:07.691
