   * xtb version 6.7.1 (edcfbbe) compiled by 'albert@albert-system' on 2024-07-22

   ID    Z sym.   atoms
    1    6 C      1-9, 11-16, 18-23, 25-43, 45-52
    2    7 N      10, 17, 24, 44
    3    1 H      53-90

          program call               : xtb data2507/toluene/AcCN/AcCN_toluene_S0_crest.xyz --gfn 2 --gbsa toluene --ohess vtight --parallel 40 --molden --ceasefiles --namespace data2507/toluene/AcCN/AcCN_toluene_S0_finalOpt
      * Solvation model:               GBSA
        Solvent                        toluene
        Solvent mass                       9.2140E+01 g/mol
          :  Hamiltonian                  GFN2-xTB          :
 * total energy  :  -133.9370722 Eh     change       -0.1508511E-08 Eh
 * total energy  :  -133.9371158 Eh     change       -0.4360046E-04 Eh
 * total energy  :  -133.9371445 Eh     change       -0.2873093E-04 Eh
 * total energy  :  -133.9371557 Eh     change       -0.1117485E-04 Eh
 * total energy  :  -133.9371712 Eh     change       -0.1549370E-04 Eh
 * total energy  :  -133.9371767 Eh     change       -0.5547326E-05 Eh
 * total energy  :  -133.9371807 Eh     change       -0.3979057E-05 Eh
 * total energy  :  -133.9371845 Eh     change       -0.3815624E-05 Eh
 * total energy  :  -133.9371897 Eh     change       -0.5212096E-05 Eh
 * total energy  :  -133.9371936 Eh     change       -0.3866611E-05 Eh
 * total energy  :  -133.9372077 Eh     change       -0.2485843E-05 Eh
 * total energy  :  -133.9372104 Eh     change       -0.2688543E-05 Eh
 * total energy  :  -133.9372137 Eh     change       -0.3324740E-05 Eh
 * total energy  :  -133.9372166 Eh     change       -0.2885543E-05 Eh
 * total energy  :  -133.9372185 Eh     change       -0.1977580E-05 Eh
 * total energy  :  -133.9372200 Eh     change       -0.1433228E-05 Eh
 * total energy  :  -133.9372209 Eh     change       -0.8778367E-06 Eh
 * total energy  :  -133.9372215 Eh     change       -0.6197470E-06 Eh
 * total energy  :  -133.9372215 Eh     change       -0.1227821E-07 Eh
   *** GEOMETRY OPTIMIZATION CONVERGED AFTER 22 ITERATIONS ***

 final structure:
================
90
 xtb: 6.7.1 (edcfbbe)
C            9.25861081477355       -2.27610129462720       -1.55529438358991
C            8.72463015523811       -1.60180936036731       -0.27736337593906
C            9.72684863627972       -1.78055307385410        0.87856516971611
C            8.55214248471225       -0.11890600651776       -0.54834834984112
C            9.65327087809804        0.63990201161700       -0.92165590732229
C            9.55522745396261        1.99048101150511       -1.20251796678586
C            8.32003691981596        2.60847140481581       -1.12530155975325
C            7.20965786508041        1.87865659809365       -0.75544443181638
C            7.31069286364197        0.51834048908281       -0.44776968837676
N            6.17718878421788       -0.18536686753599       -0.06905017301197
C            4.94469648634938        0.50684360125436        0.06336410499826
C            4.71017438755457        1.30609091159109        1.17743763121269
C            3.50376333788658        1.96302297603190        1.31730941595572
C            2.50581396522546        1.81877642398887        0.35506552302446
C            1.21338343634319        2.49196235377546        0.52708880805455
C            1.13473043137649        3.83796707028097        0.88459966476390
N           -0.00135290958981        4.48549852864844        1.06196420450444
C           -1.13766328842051        3.83778845013889        0.88680834017974
C           -1.21604087847771        2.49258867163668        0.52686337083635
C           -2.50790627153341        1.81949543106444        0.35054909523764
C           -2.75775439676468        1.04823551810241       -0.78275732713879
C           -3.96903265319527        0.40414948193763       -0.93782631784699
C           -4.94632188979431        0.50716218891977        0.04689995643354
N           -6.17637261169454       -0.18464931916606       -0.09256047589411
C           -7.33144682718092        0.53517435303822       -0.36481269666432
C           -7.25422034626794        1.91529437782712       -0.57697087410958
C           -8.38558765597356        2.66034463049253       -0.83610310826144
C           -9.61993986443071        2.03886526067227       -0.89675466840171
C           -9.69507212126168        0.66979439816558       -0.71797222660067
C           -8.57192608851515       -0.10475723948538       -0.45948603064609
C           -8.72059782240470       -1.60769427130663       -0.31546335196902
C           -9.30770084417010       -2.16641937818485       -1.62555566842346
C           -9.66753148597336       -1.90524642739312        0.86246517973393
C           -7.38924917629967       -2.28388361204923       -0.04547951462190
C           -7.34634572780843       -3.66260502880544        0.11580730784103
C           -6.17142224517477       -4.33497282031981        0.39703528167120
C           -4.99981857755142       -3.61377415400202        0.54026500980823
C           -5.01330921511238       -2.24348202988686        0.38350209893168
C           -6.19501445964307       -1.56414770372007        0.07079914688695
C           -4.70662745610969        1.28636697683806        1.17451385254792
C           -3.50188443716371        1.94493765429877        1.31939540335344
C           -0.00146658629742        1.80770090624956        0.35632409393418
C           -0.00456320335691        0.41046054338820        0.12963380081380
N           -0.00952744650579       -0.73038913583929        0.00455203520085
C            2.75226779745272        1.02898885374139       -0.76615519419992
C            3.96354901712050        0.38277722888328       -0.91438576444398
C            6.21632765902276       -1.54552159091574        0.20589596718110
C            5.05076525494706       -2.20639660666720        0.60594898868193
C            5.05834334456906       -3.55811790179242        0.88037832200701
C            6.23520653382449       -4.27664023643122        0.76994824286480
C            7.39320408856960       -3.62107056764113        0.39385909380518
C            7.41427748837614       -2.26193188951239        0.11019223748368
H            9.41422353946235       -3.33948333554630       -1.39621260634746
H            8.54294992947354       -2.15141318485147       -2.36638624758781
H           10.20354823612631       -1.83570587774928       -1.86124129384147
H            9.88757699439691       -2.83334419427529        1.09328590041271
H            9.34419014007369       -1.30107510327675        1.77819252113250
H           10.68588646289806       -1.33308543827878        0.63270823965975
H           10.62099325177813        0.16769338375429       -0.99850866856977
H           10.43336741981895        2.55089112694222       -1.48651705182455
H            8.21682988677578        3.65896456400142       -1.35499274030111
H            6.24766931489120        2.36566382860459       -0.70731832810686
H            5.47749669534308        1.40383626926563        1.93097010922072
H            3.31866463775105        2.56756087330191        2.19267134367926
H            2.03570898523765        4.41991920685961        1.02480360821892
H           -2.03884435221387        4.41860366642380        1.03042347188570
H           -2.00789201835488        0.96744840892381       -1.55596208911884
H           -4.16172548929283       -0.19186223242986       -1.81733425605147
H           -6.29411106601993        2.40698865833469       -0.54471147616803
H           -8.29931132451085        3.72566912569328       -0.99301386158770
H          -10.51457793726420        2.61066406815115       -1.09279724491092
H          -10.66211946605999        0.19486366140847       -0.78571920224361
H           -9.42979565261141       -3.24440407778771       -1.56759895260448
H           -8.64122695621633       -1.93996160473771       -2.45635444586002
H          -10.27819023286971       -1.72521252729011       -1.83472321009843
H           -9.24053696028132       -1.52168072000889        1.78772814649318
H           -9.82234142673786       -2.97473278022663        0.97455785500160
H          -10.63523201485980       -1.43534226844264        0.71036091413667
H           -8.25676935446510       -4.23525883679998        0.02376668563341
H           -6.17437229623817       -5.40847200492935        0.51271909499325
H           -4.07144023337803       -4.11275018496351        0.77678296296780
H           -4.09368248903270       -1.69295086704657        0.50947391576543
H           -5.46956907701422        1.36814375380309        1.93439984908062
H           -3.31417130398107        2.53490829827708        2.20411656826166
H            1.99954007496527        0.93386297321356       -1.53486591544120
H            4.15325444018505       -0.22968628013193       -1.78311334822214
H            4.12801875060826       -1.65520600702364        0.70446131032382
H            4.14259613983650       -4.04475446048521        1.18273762925759
H            6.25482658020443       -5.33553975570057        0.98013169607080
H            8.30673857901564       -4.19172978956414        0.32233628418471

          :  Hamiltonian                  GFN2-xTB          :
         :: gradient norm              0.000103610943 Eh/a0 ::
         :: HOMO-LUMO gap              1.223941563117 eV    ::
         :: SCC energy              -136.402322561868 Eh    ::
         :: -> dispersion             -0.126922254950 Eh    ::
         :: -> Gsolv                  -0.054810072419 Eh    ::
         :: repulsion energy           2.465101073684 Eh    ::

    * Orbital Energies and Occupations

         #    Occupation            Energy/Eh            Energy/eV
      -------------------------------------------------------------
         1        2.0000           -0.6919427             -18.8287
       ...           ...                  ...                  ...
       113        2.0000           -0.4080056             -11.1024
       114        2.0000           -0.4064776             -11.0608
       115        2.0000           -0.4064053             -11.0588
       116        2.0000           -0.4055043             -11.0343
       117        2.0000           -0.4030196             -10.9667
       118        2.0000           -0.4028221             -10.9613
       119        2.0000           -0.3973485             -10.8124
       120        2.0000           -0.3972536             -10.8098
       121        2.0000           -0.3919504             -10.6655
       122        2.0000           -0.3918751             -10.6635
       123        2.0000           -0.3875902             -10.5469
       124        2.0000           -0.3466846              -9.4338
       125        2.0000           -0.3463524              -9.4247 (HOMO)
       126                         -0.3013734              -8.2008 (LUMO)
       127                         -0.2766268              -7.5274
       128                         -0.2446104              -6.6562
       129                         -0.2445311              -6.6540
       130                         -0.2431355              -6.6161
       131                         -0.2253807              -6.1329
       132                         -0.2239440              -6.0938
       133                         -0.2236855              -6.0868
       134                         -0.2225895              -6.0570
       135                         -0.2187796              -5.9533
       136                         -0.2185164              -5.9461
       ...                                ...                  ...
       246                          1.1422802              31.0830
      -------------------------------------------------------------
                  HL-Gap            0.0449789 Eh            1.2239 eV

     #   Z          covCN         q      C6AA      α(0)
     1   6 C        3.761    -0.103    22.520     6.765
     2   6 C        3.909     0.021    20.165     6.383
     3   6 C        3.761    -0.103    22.520     6.765
     4   6 C        2.979    -0.014    28.355     8.735
     5   6 C        2.928    -0.038    28.934     8.821
     6   6 C        2.917    -0.047    29.155     8.854
     7   6 C        2.919    -0.035    28.871     8.811
     8   6 C        2.924    -0.060    29.501     8.907
     9   6 C        2.927     0.058    26.692     8.473
    10   7 N        2.754    -0.074    22.675     7.072
    11   6 C        2.927     0.073    26.359     8.420
    12   6 C        2.920    -0.036    28.898     8.815
    13   6 C        2.924    -0.031    28.785     8.798
    14   6 C        2.976     0.006    27.887     8.662
    15   6 C        2.976     0.010    27.786     8.647
    16   6 C        2.913     0.054    26.788     8.487
    17   7 N        1.834    -0.217    26.568     7.638
    18   6 C        2.913     0.054    26.786     8.487
    19   6 C        2.976     0.010    27.783     8.646
    20   6 C        2.977     0.005    27.902     8.665
    21   6 C        2.923    -0.028    28.700     8.785
    22   6 C        2.920    -0.036    28.892     8.815
    23   6 C        2.927     0.073    26.371     8.422
    24   7 N        2.753    -0.073    22.652     7.069
    25   6 C        2.927     0.058    26.696     8.473
    26   6 C        2.924    -0.060    29.497     8.906
    27   6 C        2.919    -0.035    28.870     8.811
    28   6 C        2.917    -0.046    29.148     8.853
    29   6 C        2.928    -0.038    28.933     8.821
    30   6 C        2.979    -0.014    28.349     8.734
    31   6 C        3.909     0.021    20.165     6.383
    32   6 C        3.761    -0.103    22.522     6.765
    33   6 C        3.761    -0.103    22.521     6.765
    34   6 C        2.979    -0.014    28.352     8.734
    35   6 C        2.928    -0.038    28.938     8.822
    36   6 C        2.917    -0.046    29.139     8.852
    37   6 C        2.919    -0.034    28.857     8.809
    38   6 C        2.924    -0.059    29.477     8.904
    39   6 C        2.927     0.058    26.698     8.474
    40   6 C        2.920    -0.037    28.908     8.817
    41   6 C        2.923    -0.032    28.790     8.799
    42   6 C        2.987     0.020    27.563     8.612
    43   6 C        1.909     0.124    28.070     8.556
    44   7 N        0.911    -0.261    26.761     7.482
    45   6 C        2.923    -0.028    28.695     8.785
    46   6 C        2.920    -0.035    28.881     8.813
    47   6 C        2.927     0.058    26.694     8.473
    48   6 C        2.924    -0.060    29.480     8.904
    49   6 C        2.919    -0.034    28.858     8.809
    50   6 C        2.917    -0.046    29.145     8.853
    51   6 C        2.928    -0.038    28.938     8.822
    52   6 C        2.979    -0.014    28.357     8.735
    53   1 H        0.925     0.042     2.428     2.437
    54   1 H        0.925     0.030     2.592     2.517
    55   1 H        0.925     0.042     2.429     2.437
    56   1 H        0.925     0.041     2.430     2.438
    57   1 H        0.925     0.030     2.589     2.516
    58   1 H        0.925     0.042     2.426     2.436
    59   1 H        0.926     0.032     2.553     2.499
    60   1 H        0.926     0.026     2.650     2.546
    61   1 H        0.926     0.027     2.634     2.538
    62   1 H        0.926     0.023     2.684     2.562
    63   1 H        0.926     0.051     2.306     2.375
    64   1 H        0.926     0.048     2.341     2.393
    65   1 H        0.925     0.052     2.293     2.368
    66   1 H        0.925     0.052     2.294     2.368
    67   1 H        0.926     0.039     2.466     2.455
    68   1 H        0.926     0.050     2.325     2.385
    69   1 H        0.926     0.024     2.672     2.556
    70   1 H        0.926     0.027     2.630     2.536
    71   1 H        0.926     0.026     2.646     2.544
    72   1 H        0.926     0.033     2.550     2.497
    73   1 H        0.925     0.042     2.427     2.436
    74   1 H        0.925     0.030     2.590     2.517
    75   1 H        0.925     0.042     2.426     2.436
    76   1 H        0.925     0.030     2.588     2.516
    77   1 H        0.925     0.042     2.428     2.437
    78   1 H        0.925     0.042     2.425     2.435
    79   1 H        0.926     0.033     2.545     2.494
    80   1 H        0.926     0.026     2.642     2.542
    81   1 H        0.926     0.027     2.629     2.536
    82   1 H        0.926     0.023     2.683     2.561
    83   1 H        0.926     0.051     2.309     2.376
    84   1 H        0.926     0.048     2.349     2.397
    85   1 H        0.926     0.039     2.458     2.452
    86   1 H        0.926     0.050     2.323     2.383
    87   1 H        0.926     0.022     2.697     2.568
    88   1 H        0.926     0.027     2.635     2.538
    89   1 H        0.926     0.026     2.646     2.544
    90   1 H        0.926     0.033     2.548     2.496

molecular dipole:
                 x           y           z       tot (Debye)
 q only:       -0.047       0.680       0.122
   full:       -0.046       0.776       0.082       1.986

 projected vibrational frequencies (cm⁻¹)
eigval :       -0.00    -0.00    -0.00     0.00     0.00     0.00
eigval :        5.40     9.46    14.47    19.17    21.28    27.33
eigval :       34.11    47.54    49.54    56.57    60.88    74.94
eigval :       85.22    93.29   101.45   102.79   102.99   110.96
eigval :      114.64   127.84   132.52   148.43   153.24   165.56
eigval :      192.70   196.65   199.05   203.37   208.79   219.91
eigval :      222.45   229.86   233.31   239.31   279.69   285.35
eigval :      299.22   305.24   308.46   319.84   331.04   332.67
eigval :      345.04   345.25   364.90   375.90   377.27   380.60
eigval :      382.75   388.78   391.07   401.76   405.43   413.15
eigval :      419.01   424.41   439.35   451.57   453.36   488.74
eigval :      492.01   499.05   502.63   515.78   516.47   529.38
eigval :      547.85   548.17   548.58   561.52   570.52   577.15
eigval :      581.41   583.04   587.66   596.04   607.65   609.18
eigval :      616.72   628.68   641.79   664.80   682.55   683.62
eigval :      684.11   694.67   695.11   696.92   704.92   723.64
eigval :      730.32   746.34   777.03   777.11   778.24   778.92
eigval :      796.57   813.88   815.01   826.49   827.28   833.83
eigval :      856.87   864.63   866.48   866.78   867.79   872.24
eigval :      873.79   903.35   912.05   912.56   912.99   913.36
eigval :      913.65   914.19   914.50   920.67   920.72   921.58
eigval :      922.21   923.01   923.80   926.36   929.45   930.21
eigval :      938.79   939.75   958.33   960.37   998.10  1013.00
eigval :     1015.90  1016.91  1061.98  1076.19  1076.65  1085.97
eigval :     1086.06  1112.94  1113.49  1118.52  1118.63  1132.63
eigval :     1133.87  1140.29  1140.59  1157.00  1158.69  1158.75
eigval :     1159.21  1171.73  1172.60  1184.58  1185.21  1186.00
eigval :     1187.27  1188.13  1189.12  1204.99  1208.45  1210.55
eigval :     1241.60  1243.95  1248.42  1248.87  1250.56  1256.61
eigval :     1265.57  1266.81  1267.27  1267.70  1293.43  1293.62
eigval :     1302.63  1306.02  1306.80  1316.33  1323.75  1323.92
eigval :     1331.76  1333.07  1334.94  1336.85  1340.05  1394.36
eigval :     1395.08  1400.13  1402.40  1407.47  1418.54  1420.67
eigval :     1424.43  1435.04  1435.66  1439.25  1439.96  1476.41
eigval :     1476.67  1485.23  1485.76  1486.08  1487.79  1488.72
eigval :     1490.38  1495.98  1496.31  1497.02  1499.04  1503.34
eigval :     1504.70  1524.71  1537.20  1557.66  1558.87  1573.89
eigval :     1574.03  1587.08  1587.65  1590.48  1590.53  1591.36
eigval :     1591.77  1600.77  1600.98  2357.45  3020.54  3021.44
eigval :     3023.27  3023.99  3038.96  3039.26  3040.91  3041.26
eigval :     3047.36  3047.80  3051.29  3051.77  3065.59  3066.01
eigval :     3071.38  3071.95  3074.13  3074.42  3078.79  3078.81
eigval :     3079.64  3079.81  3082.37  3082.65  3084.26  3084.54
eigval :     3089.46  3089.75  3089.87  3090.36  3094.42  3094.71
eigval :     3096.51  3096.87  3097.00  3097.40  3098.44  3098.97

   temp. (K)  partition function   enthalpy   heat capacity  entropy
                                   cal/mol     cal/K/mol   cal/K/mol   J/K/mol
 298.15  VIB  0.373E+21            26059.563    163.148    162.778
         ROT  0.140E+09              888.752      2.981     40.256
         INT  0.522E+29            26948.315    166.129    203.035
         TR   0.168E+29             1481.254      4.968     45.371
         TOT                       28429.5692   171.0975   248.4055  1039.3285

       T/K    H(0)-H(T)+PV         H(T)/Eh          T*S/Eh         G(T)/Eh
   ------------------------------------------------------------------------
    298.15    0.453054E-01    0.755227E+00    0.118025E+00    0.637201E+00
   ------------------------------------------------------------------------

         :::::::::::::::::::::::::::::::::::::::::::::::::::::
         ::                  THERMODYNAMIC                  ::
         :::::::::::::::::::::::::::::::::::::::::::::::::::::
         :: total free energy        -133.300020236458 Eh   ::
         ::.................................................::
         :: total energy             -133.937221491649 Eh   ::
         :: zero point energy           0.709921305010 Eh   ::
         :: G(RRHO) w/o ZPVE           -0.072720049819 Eh   ::
         :: G(RRHO) contrib.            0.637201255191 Eh   ::
         :::::::::::::::::::::::::::::::::::::::::::::::::::::

           -------------------------------------------------
          | TOTAL ENERGY             -133.937221491649 Eh   |
          | TOTAL ENTHALPY           -133.181994784325 Eh   |
          | TOTAL FREE ENERGY        -133.300020236458 Eh   |
          | GRADIENT NORM               0.000103611389 Eh/α |
          | HOMO-LUMO GAP               1.223939460413 eV   |
           -------------------------------------------------

 * finished run on 2025/08/24 at 00:46:40.849
