   * xtb version 6.7.1 (edcfbbe) compiled by 'albert@albert-system' on 2024-07-22

   ID    Z sym.   atoms
    1    6 C      1-9, 11-16, 18-23, 25-43, 45-52
    2    7 N      10, 17, 24, 44
    3    1 H      53-90

          program call               : xtb data2507/toluene/AcCN/AcCN_toluene_T1_crest.xyz --gfn 2 --uhf 2 --gbsa toluene --ohess vtight --parallel 40 --molden --ceasefiles --namespace data2507/toluene/AcCN/AcCN_toluene_T1_finalOpt
      * Solvation model:               GBSA
        Solvent                        toluene
        Solvent mass                       9.2140E+01 g/mol
          :  Hamiltonian                  GFN2-xTB          :
 * total energy  :  -133.8643403 Eh     change       -0.1466654E-07 Eh
 * total energy  :  -133.8644899 Eh     change       -0.1495680E-03 Eh
 * total energy  :  -133.8645504 Eh     change       -0.6056085E-04 Eh
 * total energy  :  -133.8645667 Eh     change       -0.1626770E-04 Eh
 * total energy  :  -133.8645807 Eh     change       -0.1399144E-04 Eh
 * total energy  :  -133.8645985 Eh     change       -0.1782331E-04 Eh
 * total energy  :  -133.8646063 Eh     change       -0.7810442E-05 Eh
 * total energy  :  -133.8646142 Eh     change       -0.7846199E-05 Eh
 * total energy  :  -133.8646179 Eh     change       -0.3705024E-05 Eh
 * total energy  :  -133.8646230 Eh     change       -0.5152618E-05 Eh
 * total energy  :  -133.8647179 Eh     change       -0.2718812E-06 Eh
 * total energy  :  -133.8647182 Eh     change       -0.3129791E-06 Eh
 * total energy  :  -133.8647185 Eh     change       -0.3566506E-06 Eh
 * total energy  :  -133.8647189 Eh     change       -0.3716833E-06 Eh
 * total energy  :  -133.8647192 Eh     change       -0.3479284E-06 Eh
 * total energy  :  -133.8647196 Eh     change       -0.3664643E-06 Eh
 * total energy  :  -133.8647201 Eh     change       -0.4478550E-06 Eh
 * total energy  :  -133.8647206 Eh     change       -0.5121056E-06 Eh
 * total energy  :  -133.8647206 Eh     change       -0.5302269E-08 Eh
   *** GEOMETRY OPTIMIZATION CONVERGED AFTER 68 ITERATIONS ***

 final structure:
================
90
 xtb: 6.7.1 (edcfbbe)
C            9.21914046485537       -2.09878708715765       -1.98361695953724
C            8.83697111690917       -1.39651802527110       -0.66548208364670
C           10.01963400042079       -1.44437109541162        0.32213160479311
C            8.51061741674462        0.05074305703774       -0.96683742448501
C            9.47495954229278        0.86775650336999       -1.54184222267364
C            9.22145692180456        2.18964698662613       -1.85921284554766
C            7.96489680381411        2.72174040034464       -1.61246975566785
C            6.98897347137531        1.93657376987104       -1.04122609844598
C            7.24856239535412        0.60222869594949       -0.69542424957391
N            6.25336839226133       -0.15508326773502       -0.11110934652646
C            4.99658262589155        0.45359583617744        0.16851999124745
C            4.85779953789696        1.30350716332585        1.26374427871480
C            3.63769501948763        1.87869879067217        1.54070585826850
C            2.51762394494241        1.62302598571617        0.73650602202320
C            1.22780992905114        2.22199569218390        1.03767988597002
C            1.14086925152052        3.52271346039791        1.48568036388841
N           -0.00551697504899        4.16459233244521        1.70918984953172
C           -1.15197053347574        3.52164337126076        1.48821464901638
C           -1.23799201763870        2.22100634989017        1.04021230845372
C           -2.52724553985207        1.61968180777531        0.74103250150213
C           -2.68987182977916        0.77594562035075       -0.36609239428856
C           -3.90576596379991        0.19276583474867       -0.64337834507061
C           -5.00199755241026        0.43796244871296        0.18104575713071
N           -6.25482023258320       -0.18091490846765       -0.09266704291545
C           -7.26408645933704        0.57096315083648       -0.65983033006909
C           -7.02367072564977        1.91219949047745       -0.99259911775168
C           -8.01378961983929        2.69183283832368       -1.54676572674752
C           -9.26575185771929        2.14722514877033       -1.78952086593798
C           -9.50037974770959        0.81873617510374       -1.48549325030279
C           -8.52154687315902        0.00723648435199       -0.92739706086343
C           -8.82807708784884       -1.44712064511473       -0.63966622006550
C           -9.21735353741122       -2.13845064904977       -1.96143599957616
C           -9.99876166287115       -1.51973810057668        0.36071967335443
C           -7.63788714976508       -2.16897289467524       -0.04368349920900
C           -7.74320490091208       -3.51548729000649        0.27847322168255
C           -6.69522377857577       -4.21772315444485        0.84483227079720
C           -5.50289611468979       -3.56355424153191        1.11580136788786
C           -5.36835113143119       -2.22841981896224        0.80793342805650
C           -6.42104194545477       -1.51736478351853        0.21305623994108
C           -4.86309360292486        1.28587728647524        1.27784496119994
C           -3.64504842467184        1.86745278366130        1.55070285281701
C           -0.00502569546409        1.49861566789235        0.85521062814413
C           -0.00568748364992        0.13355071445258        0.67140344190496
N           -0.00722661350669       -1.02368506722637        0.53896384385640
C            2.67957867005355        0.77516487534974       -0.36763313529149
C            3.89756375569394        0.19805236898178       -0.64884735609133
C            6.43855663786559       -1.48530719208005        0.20959970334465
C            5.39895501923115       -2.20198659896926        0.82043961777926
C            5.55261733645929       -3.53131239686915        1.14413381325037
C            6.75122924666855       -4.17375171977535        0.87277080838370
C            7.78602477542397       -3.46585975932808        0.28940024877721
C            7.66142659405530       -2.12495039461240       -0.04876183088185
H            9.48386743782567       -3.13644028154255       -1.80415234216490
H            8.37985451974280       -2.07215215763204       -2.67615132385156
H           10.06640072030793       -1.60639938965789       -2.45139620049839
H           10.28680228117057       -2.47108013886556        0.55356782703985
H            9.75083206601486       -0.94127002340591        1.24913893384719
H           10.89146637555748       -0.95107280612238       -0.09710434342024
H           10.45359126504495        0.46583961100347       -1.75273520752448
H            9.99479587188119        2.79763706660375       -2.30314909010363
H            7.74403370122583        3.74694010140582       -1.86863709814365
H            6.00873746208183        2.34852552570093       -0.86041674689009
H            5.71018318221565        1.49517848082788        1.89937183705578
H            3.53195987274320        2.51332539482100        2.40805755991658
H            2.03240292238222        4.12086026114033        1.62526243602981
H           -2.04387759346972        4.11880903032880        1.62951774105602
H           -1.85057494533094        0.58936663515562       -1.01928878032265
H           -4.01716433507380       -0.45511636530619       -1.50071183267162
H           -6.04698338233864        2.33404308763883       -0.81552935203298
H           -7.80752747043036        3.72252020123216       -1.79286208010353
H          -10.05002158569978        2.75066915356557       -2.22029885637863
H          -10.47564665617852        0.40715286743109       -1.69325503910061
H          -10.07936351615699       -1.65445945269595       -2.41062598300060
H           -9.46246883491468       -3.18257881800122       -1.79204049720143
H           -8.38849594961740       -2.08897363413009       -2.66518764968900
H           -9.72347734611322       -1.02772169115117        1.29177771754261
H          -10.25420386509403       -2.55204837344287        0.58023670503273
H          -10.87955967785172       -1.02797425071707       -0.04124744171992
H           -8.66798088599004       -4.03648693774826        0.08591837633347
H           -6.80930155614495       -5.26476539700683        1.08029792251421
H           -4.67745663326608       -4.09123996434389        1.56915657310238
H           -4.44091080739386       -1.72325461182187        1.02762451009051
H           -5.71338623641373        1.47033681788938        1.91838435474630
H           -3.53865232179939        2.50021017342994        2.41935404584949
H            1.83819946084483        0.58090884328137       -1.01586849041581
H            4.00841284833882       -0.45247212249836       -1.50425714436871
H            4.46671969852901       -1.70550315991556        1.03971285904051
H            4.73708140899674       -4.06375855649606        1.60972634698295
H            6.88027875357706       -5.21616953165418        1.12068160894839
H            8.71560556178374       -3.97784226577696        0.09578843984834

          :  Hamiltonian                  GFN2-xTB          :
         :: gradient norm              0.000054897055 Eh/a0 ::
         :: HOMO-LUMO gap              0.397235774798 eV    ::
         :: SCC energy              -136.311764567872 Eh    ::
         :: -> dispersion             -0.126510308223 Eh    ::
         :: -> Gsolv                  -0.067094795069 Eh    ::
         :: repulsion energy           2.447043993782 Eh    ::

    * Orbital Energies and Occupations

         #    Occupation            Energy/Eh            Energy/eV
      -------------------------------------------------------------
         1        2.0000           -0.6819790             -18.5576
       ...           ...                  ...                  ...
       114        2.0000           -0.4122597             -11.2182
       115        2.0000           -0.4099984             -11.1566
       116        2.0000           -0.4098179             -11.1517
       117        2.0000           -0.4074512             -11.0873
       118        2.0000           -0.4044499             -11.0056
       119        2.0000           -0.4044298             -11.0051
       120        2.0000           -0.3946154             -10.7380
       121        2.0000           -0.3842868             -10.4570
       122        2.0000           -0.3837590             -10.4426
       123        1.9134           -0.3618024              -9.8451
       124        1.6279           -0.3600615              -9.7978
       125        1.4587           -0.3594068              -9.7800
       126        0.9995           -0.2681538              -7.2968 (HOMO)
       127        0.0005           -0.2535555              -6.8996 (LUMO)
       128                         -0.2388101              -6.4984
       129                         -0.2387938              -6.4979
       130                         -0.2316938              -6.3047
       131                         -0.2316275              -6.3029
       132                         -0.2309705              -6.2850
       133                         -0.2307920              -6.2802
       134                         -0.2279014              -6.2015
       135                         -0.2277378              -6.1971
       136                         -0.2267944              -6.1714
       137                         -0.2045134              -5.5651
       ...                                ...                  ...
       246                          1.1683963              31.7937
      -------------------------------------------------------------
                  HL-Gap            0.0145982 Eh            0.3972 eV

     #   Z          covCN         q      C6AA      α(0)
     1   6 C        3.761    -0.107    22.595     6.776
     2   6 C        3.909     0.024    20.118     6.375
     3   6 C        3.761    -0.107    22.596     6.776
     4   6 C        2.978    -0.003    28.100     8.695
     5   6 C        2.926    -0.034    28.835     8.806
     6   6 C        2.917    -0.034    28.845     8.807
     7   6 C        2.918    -0.029    28.719     8.788
     8   6 C        2.923    -0.049    29.224     8.865
     9   6 C        2.929     0.061    26.631     8.463
    10   7 N        2.754    -0.028    21.782     6.932
    11   6 C        2.929     0.049    26.896     8.505
    12   6 C        2.917    -0.040    28.992     8.830
    13   6 C        2.924    -0.040    28.990     8.830
    14   6 C        2.974     0.003    27.962     8.674
    15   6 C        2.970    -0.018    28.448     8.749
    16   6 C        2.896     0.046    26.975     8.516
    17   7 N        1.833    -0.270    27.856     7.821
    18   6 C        2.896     0.046    26.978     8.516
    19   6 C        2.970    -0.018    28.444     8.748
    20   6 C        2.974     0.003    27.959     8.673
    21   6 C        2.924    -0.031    28.781     8.798
    22   6 C        2.917    -0.039    28.962     8.825
    23   6 C        2.929     0.049    26.893     8.505
    24   7 N        2.754    -0.028    21.779     6.931
    25   6 C        2.929     0.061    26.632     8.463
    26   6 C        2.923    -0.049    29.224     8.865
    27   6 C        2.918    -0.029    28.719     8.788
    28   6 C        2.917    -0.034    28.844     8.807
    29   6 C        2.926    -0.034    28.835     8.806
    30   6 C        2.978    -0.003    28.099     8.695
    31   6 C        3.909     0.024    20.118     6.375
    32   6 C        3.761    -0.107    22.596     6.776
    33   6 C        3.761    -0.107    22.595     6.776
    34   6 C        2.978    -0.003    28.103     8.696
    35   6 C        2.926    -0.034    28.841     8.807
    36   6 C        2.917    -0.033    28.833     8.805
    37   6 C        2.918    -0.028    28.703     8.785
    38   6 C        2.922    -0.048    29.191     8.860
    39   6 C        2.929     0.061    26.626     8.462
    40   6 C        2.917    -0.040    28.991     8.829
    41   6 C        2.923    -0.040    28.988     8.829
    42   6 C        2.974    -0.040    28.978     8.830
    43   6 C        1.907     0.094    28.756     8.660
    44   7 N        0.911    -0.400    30.356     7.969
    45   6 C        2.924    -0.031    28.785     8.798
    46   6 C        2.917    -0.039    28.964     8.825
    47   6 C        2.929     0.061    26.625     8.462
    48   6 C        2.922    -0.048    29.192     8.860
    49   6 C        2.918    -0.028    28.703     8.786
    50   6 C        2.917    -0.033    28.834     8.805
    51   6 C        2.925    -0.034    28.841     8.807
    52   6 C        2.978    -0.003    28.104     8.696
    53   1 H        0.925     0.051     2.310     2.377
    54   1 H        0.925     0.035     2.510     2.477
    55   1 H        0.925     0.051     2.311     2.377
    56   1 H        0.925     0.051     2.313     2.379
    57   1 H        0.925     0.036     2.506     2.476
    58   1 H        0.925     0.051     2.308     2.376
    59   1 H        0.926     0.048     2.342     2.393
    60   1 H        0.926     0.042     2.427     2.436
    61   1 H        0.926     0.039     2.458     2.451
    62   1 H        0.926     0.037     2.487     2.466
    63   1 H        0.926     0.041     2.435     2.440
    64   1 H        0.926     0.034     2.531     2.488
    65   1 H        0.925     0.021     2.722     2.580
    66   1 H        0.925     0.021     2.722     2.580
    67   1 H        0.926     0.029     2.604     2.524
    68   1 H        0.926     0.038     2.470     2.458
    69   1 H        0.926     0.037     2.485     2.465
    70   1 H        0.926     0.039     2.457     2.451
    71   1 H        0.926     0.042     2.427     2.436
    72   1 H        0.926     0.048     2.341     2.393
    73   1 H        0.925     0.051     2.310     2.377
    74   1 H        0.925     0.051     2.311     2.377
    75   1 H        0.925     0.036     2.509     2.477
    76   1 H        0.925     0.036     2.506     2.476
    77   1 H        0.925     0.051     2.313     2.378
    78   1 H        0.925     0.051     2.308     2.376
    79   1 H        0.926     0.049     2.334     2.389
    80   1 H        0.926     0.042     2.423     2.434
    81   1 H        0.926     0.039     2.468     2.457
    82   1 H        0.926     0.036     2.504     2.474
    83   1 H        0.926     0.041     2.432     2.439
    84   1 H        0.926     0.034     2.530     2.487
    85   1 H        0.926     0.029     2.605     2.524
    86   1 H        0.926     0.038     2.472     2.459
    87   1 H        0.926     0.036     2.504     2.475
    88   1 H        0.926     0.039     2.468     2.457
    89   1 H        0.926     0.042     2.423     2.434
    90   1 H        0.926     0.049     2.335     2.389

molecular dipole:
                 x           y           z       tot (Debye)
 q only:       -0.006      -1.722      -1.384
   full:       -0.005      -1.442      -1.353       5.026

 projected vibrational frequencies (cm⁻¹)
eigval :       -0.00    -0.00    -0.00     0.00     0.00     0.00
eigval :        6.36     9.93    12.14    20.77    23.74    24.87
eigval :       29.44    42.53    50.32    56.58    64.57    82.11
eigval :       84.93    96.43    98.16    98.98   103.38   110.54
eigval :      114.33   125.49   128.28   130.39   150.47   165.73
eigval :      190.02   193.25   197.25   199.58   202.24   215.38
eigval :      215.98   232.63   235.99   238.26   280.03   294.62
eigval :      299.02   304.62   307.64   324.28   326.22   326.76
eigval :      340.16   340.54   357.29   374.50   375.66   378.48
eigval :      379.50   389.56   393.95   399.73   404.93   410.93
eigval :      419.99   421.48   429.59   448.68   449.49   466.63
eigval :      482.57   500.48   505.06   505.12   508.56   514.54
eigval :      519.74   535.59   542.60   542.71   545.78   558.27
eigval :      575.39   580.22   584.41   592.04   600.20   606.29
eigval :      610.09   617.13   634.91   645.71   661.48   680.43
eigval :      687.57   687.84   688.49   689.99   701.25   701.30
eigval :      726.92   741.77   768.48   774.18   774.95   775.99
eigval :      776.64   802.29   803.75   823.56   825.18   825.98
eigval :      829.07   851.35   853.10   857.08   871.45   871.55
eigval :      871.98   872.40   905.09   905.62   907.47   913.27
eigval :      913.35   915.53   916.07   916.63   917.07   917.28
eigval :      918.46   919.04   921.80   923.08   925.51   925.70
eigval :      936.84   937.14   957.87   958.40   988.05  1007.21
eigval :     1012.69  1013.10  1037.38  1073.87  1074.04  1083.40
eigval :     1084.11  1104.66  1107.09  1112.07  1112.27  1125.18
eigval :     1127.94  1134.96  1135.89  1137.79  1137.90  1143.29
eigval :     1148.08  1148.12  1167.38  1168.41  1181.54  1181.76
eigval :     1183.02  1183.90  1184.13  1196.52  1206.99  1212.72
eigval :     1236.82  1237.42  1242.66  1242.83  1247.10  1258.26
eigval :     1259.68  1263.99  1266.11  1271.76  1292.12  1292.13
eigval :     1298.48  1305.87  1308.95  1309.88  1316.67  1318.81
eigval :     1326.93  1326.97  1331.41  1333.20  1333.99  1350.10
eigval :     1379.97  1394.40  1397.98  1398.26  1409.15  1414.78
eigval :     1416.55  1416.91  1419.17  1419.65  1427.97  1428.70
eigval :     1454.71  1454.78  1471.91  1472.99  1475.82  1478.45
eigval :     1480.86  1481.18  1482.88  1483.11  1491.45  1491.89
eigval :     1496.83  1497.33  1504.02  1508.74  1514.44  1552.80
eigval :     1552.81  1561.41  1564.98  1566.62  1577.46  1577.49
eigval :     1586.19  1587.25  1588.59  2238.00  3026.98  3027.02
eigval :     3029.02  3029.28  3041.40  3041.88  3047.65  3047.78
eigval :     3049.47  3049.58  3054.77  3054.88  3058.24  3058.50
eigval :     3075.71  3075.92  3078.06  3078.44  3082.55  3082.64
eigval :     3083.11  3083.27  3087.80  3087.99  3089.67  3089.81
eigval :     3090.29  3090.46  3091.35  3092.80  3099.55  3099.65
eigval :     3099.92  3100.24  3106.80  3107.08  3107.72  3108.02

   temp. (K)  partition function   enthalpy   heat capacity  entropy
                                   cal/mol     cal/K/mol   cal/K/mol   J/K/mol
 298.15  VIB  0.543E+21            26317.814    164.648    164.188
         ROT  0.144E+09              888.752      2.981     40.309
         INT  0.780E+29            27206.566    167.629    204.497
         TR   0.168E+29             1481.254      4.968     45.371
         TOT                       28687.8200   172.5969   249.8680  1045.4479

       T/K    H(0)-H(T)+PV         H(T)/Eh          T*S/Eh         G(T)/Eh
   ------------------------------------------------------------------------
    298.15    0.457170E-01    0.751861E+00    0.118720E+00    0.633140E+00
   ------------------------------------------------------------------------

         :::::::::::::::::::::::::::::::::::::::::::::::::::::
         ::                  THERMODYNAMIC                  ::
         :::::::::::::::::::::::::::::::::::::::::::::::::::::
         :: total free energy        -133.231580300801 Eh   ::
         ::.................................................::
         :: total energy             -133.864720574213 Eh   ::
         :: zero point energy           0.706143691270 Eh   ::
         :: G(RRHO) w/o ZPVE           -0.073003417858 Eh   ::
         :: G(RRHO) contrib.            0.633140273412 Eh   ::
         :::::::::::::::::::::::::::::::::::::::::::::::::::::

           -------------------------------------------------
          | TOTAL ENERGY             -133.864720574213 Eh   |
          | TOTAL ENTHALPY           -133.112859931707 Eh   |
          | TOTAL FREE ENERGY        -133.231580300801 Eh   |
          | GRADIENT NORM               0.000054710977 Eh/α |
          | HOMO-LUMO GAP               0.397237871964 eV   |
           -------------------------------------------------

 * finished run on 2025/08/24 at 00:54:30.254
