   * xtb version 6.7.1 (edcfbbe) compiled by 'albert@albert-system' on 2024-07-22

   ID    Z sym.   atoms
    1    6 C      1-9, 11-16, 18-23, 25-43, 45-52
    2    7 N      10, 17, 24, 44
    3    1 H      53-90

          program call               : xtb data2507/toluene/AcCN/AcCN.xyz --gfn 2 --gbsa toluene --ohess vtight --parallel 40 --molden --ceasefiles --namespace data2507/toluene/AcCN/AcCN_toluene_S0_preOpt
      * Solvation model:               GBSA
        Solvent                        toluene
        Solvent mass                       9.2140E+01 g/mol
          :  Hamiltonian                  GFN2-xTB          :
 * total energy  :  -133.9055380 Eh     change       -0.1862418E-08 Eh
 * total energy  :  -133.9251313 Eh     change       -0.1959335E-01 Eh
 * total energy  :  -133.9312433 Eh     change       -0.6111981E-02 Eh
 * total energy  :  -133.9323234 Eh     change       -0.1080134E-02 Eh
 * total energy  :  -133.9330299 Eh     change       -0.7064390E-03 Eh
 * total energy  :  -133.9332312 Eh     change       -0.2013544E-03 Eh
 * total energy  :  -133.9335901 Eh     change       -0.3589013E-03 Eh
 * total energy  :  -133.9337482 Eh     change       -0.1580926E-03 Eh
 * total energy  :  -133.9339034 Eh     change       -0.1551488E-03 Eh
 * total energy  :  -133.9340666 Eh     change       -0.1632115E-03 Eh
 * total energy  :  -133.9369456 Eh     change       -0.1299750E-05 Eh
 * total energy  :  -133.9369466 Eh     change       -0.1013639E-05 Eh
 * total energy  :  -133.9369475 Eh     change       -0.8255792E-06 Eh
 * total energy  :  -133.9369482 Eh     change       -0.7290884E-06 Eh
 * total energy  :  -133.9369488 Eh     change       -0.6272451E-06 Eh
 * total energy  :  -133.9369494 Eh     change       -0.6075445E-06 Eh
 * total energy  :  -133.9369499 Eh     change       -0.4722463E-06 Eh
 * total energy  :  -133.9369503 Eh     change       -0.3706259E-06 Eh
 * total energy  :  -133.9369503 Eh     change       -0.4719851E-08 Eh
   *** GEOMETRY OPTIMIZATION CONVERGED AFTER 94 ITERATIONS ***

 final structure:
================
90
 xtb: 6.7.1 (edcfbbe)
C            9.43940701466746       -2.16132653543964       -1.00315750053420
C            8.83788602686971       -1.34032209031892        0.15320262230412
C            9.79986995284055       -1.33079361600392        1.35619054825661
C            8.63393524936009        0.08569934048868       -0.32331494490468
C            9.72684487057149        0.82136418219964       -0.76222760881460
C            9.60178879756308        2.11458492376069       -1.23571966138678
C            8.34691893760559        2.69388214580863       -1.29206729896249
C            7.24439035791297        1.98625547630883       -0.86075389423209
C            7.37169796878724        0.68839984675436       -0.35574111594162
N            6.24488706742201        0.00744072695428        0.08265509353068
C            4.98896525838671        0.66810016877463        0.06671702967300
C            4.70331232329156        1.64769009019095        1.01242554598237
C            3.48049482007635        2.28900056680051        0.99856962565307
C            2.51509703795668        1.94776775379445        0.05318991374065
C            1.21548032285461        2.63145694492717        0.04978160553643
C            1.13839881909368        4.02388280276952        0.07385625271008
N            0.00443501531448        4.69764645253196        0.03675865006260
C           -1.13114381126720        4.02740405091236       -0.01317694955330
C           -1.21139565106819        2.63497694709805       -0.01564551848348
C           -2.51242216752688        1.95418687946640       -0.03105313824996
C           -3.47663191527343        2.31201019148611       -0.97144731389099
C           -4.70065610649607        1.67329860010464       -0.99583184445725
C           -4.98879882188694        0.67974350792328       -0.06550104046904
N           -6.24605537191272        0.02231447487454       -0.09086577225318
C           -7.37278846071483        0.70121497052663        0.35135922927747
C           -7.24596268337845        1.99713307933885        0.86145561125947
C           -8.34863309372807        2.70280472406636        1.29559848195486
C           -9.60330474750573        2.12326918176913        1.23763386765464
C           -9.72780371412931        0.83148634967697        0.76014596404897
C           -8.63476028165879        0.09793428084186        0.31800260253988
C           -8.83833949654199       -1.32723338361033       -0.16119059528143
C           -9.80576172913463       -1.31679260256460       -1.35978602947962
C           -9.43297998426130       -2.15194487641402        0.99611185961208
C           -7.53424669678801       -1.96778210499707       -0.59894139106536
C           -7.54165547236308       -3.27362615093130       -1.07128651412892
C           -6.39205593693663       -3.90423823423014       -1.51028644184989
C           -5.19499617548349       -3.21132612556715       -1.49544128020634
C           -5.15870129649444       -1.91328115539773       -1.03040419326040
C           -6.31519788335039       -1.28215041986341       -0.56165762189614
C           -4.03771392270556        0.33482564724092        0.88908590342185
C           -2.80762212989353        0.96235389294283        0.90156194983302
C            0.00119292396549        1.92643295472126        0.01042972730937
C           -0.00075983726964        0.51086328077784       -0.00266094364128
N           -0.00220511667719       -0.63671496575537       -0.01319688931900
C            2.80816969182960        0.97031066236809       -0.89516592731164
C            4.03706014631921        0.34017147078423       -0.89292308191854
C            6.31325302303151       -1.29981593642488        0.54546980564369
C            5.15529052440436       -1.93546401056744        1.00436763673957
C            5.19135090109764       -3.23590986742334        1.46268414772970
C            6.38954783401613       -3.92676101726714        1.48050531567204
C            7.54018726748698       -3.29234680305206        1.04975066858586
C            7.53296267247588       -1.98430577564465        0.58356480266950
H           10.38888344222729       -1.74198304681244       -1.32415648836323
H            9.60716854207627       -3.19139322660791       -0.70125284295701
H            8.75824168567084       -2.15904984102317       -1.85267015459673
H            9.99164808600801       -2.34096171511110        1.70707550406138
H            9.36443192823892       -0.76009686372413        2.17488491091766
H           10.75025886790147       -0.87714483938644        1.08906744640228
H           10.70973283282722        0.37554660146227       -0.73827061281039
H           10.47419892919187        2.65878273244991       -1.56525415821281
H            8.22172540254791        3.69623209995866       -1.67488218671655
H            6.26805905581656        2.44209135888216       -0.92034448001271
H            5.44621102485813        1.90207890027499        1.75372426816512
H            3.25897971352099        3.04122010100507        1.74106039225533
H            2.04080572399194        4.61977500501168        0.10266881791416
H           -2.03213816531130        4.62585712548719       -0.03058828311571
H           -3.25329461812156        3.07542470841284       -1.70189160184182
H           -5.44267288269412        1.94068992656813       -1.73342056315235
H           -6.26990373383081        2.45320584872731        0.92302379872813
H           -8.22361040924347        3.70380863889881        1.68197388424833
H          -10.47582038167701        2.66592561213433        1.56940558546963
H          -10.71034927424007        0.38494904077152        0.73582770834132
H          -10.75660085937959       -0.86763397695326       -1.08684893395645
H           -9.99559827458775       -2.32632828339535       -1.71347214919756
H           -9.37601639605206       -0.74161963279308       -2.17835879912840
H           -8.74755452385273       -2.15081157353066        1.84219015028777
H           -9.60071913750650       -3.18150019159729        0.69241992169648
H          -10.38138244511297       -1.73462057911168        1.32291156773823
H           -8.47175479617825       -3.82067339787231       -1.10206117370775
H           -6.43401520189758       -4.92212768439939       -1.86799470470856
H           -4.28561267395707       -3.67616828544860       -1.84726596252648
H           -4.22030988215155       -1.38018445801880       -1.03348594558581
H           -4.26645191010119       -0.43110432328605        1.61498927237934
H           -2.07983034141567        0.69522849724207        1.65347366764216
H            2.07966098180150        0.71601304651760       -1.65081180105538
H            4.26420471824903       -0.41448738163985       -1.63102957349209
H            4.21591503305446       -1.40409100632732        1.00493990907572
H            4.28083153179354       -3.70424652183756        1.80688099686090
H            6.43145545991255       -4.94627144055436        1.83358129727261
H            8.47098762682134       -3.83809987192162        1.08233336581004

          :  Hamiltonian                  GFN2-xTB          :
         :: gradient norm              0.000050184733 Eh/a0 ::
         :: HOMO-LUMO gap              1.227848313931 eV    ::
         :: SCC energy              -136.401717610774 Eh    ::
         :: -> dispersion             -0.126736974542 Eh    ::
         :: -> Gsolv                  -0.054777855646 Eh    ::
         :: repulsion energy           2.464767333517 Eh    ::

    * Orbital Energies and Occupations

         #    Occupation            Energy/Eh            Energy/eV
      -------------------------------------------------------------
         1        2.0000           -0.6921058             -18.8332
       ...           ...                  ...                  ...
       113        2.0000           -0.4071860             -11.0801
       114        2.0000           -0.4071564             -11.0793
       115        2.0000           -0.4064775             -11.0608
       116        2.0000           -0.4063551             -11.0575
       117        2.0000           -0.4029643             -10.9652
       118        2.0000           -0.4029414             -10.9646
       119        2.0000           -0.3973327             -10.8120
       120        2.0000           -0.3973234             -10.8117
       121        2.0000           -0.3919582             -10.6657
       122        2.0000           -0.3919435             -10.6653
       123        2.0000           -0.3876313             -10.5480
       124        2.0000           -0.3465531              -9.4302
       125        2.0000           -0.3465151              -9.4292 (HOMO)
       126                         -0.3013925              -8.2013 (LUMO)
       127                         -0.2759209              -7.5082
       128                         -0.2444664              -6.6523
       129                         -0.2431023              -6.6152
       130                         -0.2430627              -6.6141
       131                         -0.2269352              -6.1752
       132                         -0.2241051              -6.0982
       133                         -0.2238731              -6.0919
       134                         -0.2238403              -6.0910
       135                         -0.2187674              -5.9530
       136                         -0.2186508              -5.9498
       ...                                ...                  ...
       246                          1.1433153              31.1112
      -------------------------------------------------------------
                  HL-Gap            0.0451226 Eh            1.2278 eV

     #   Z          covCN         q      C6AA      α(0)
     1   6 C        3.761    -0.103    22.520     6.765
     2   6 C        3.909     0.021    20.165     6.383
     3   6 C        3.761    -0.103    22.520     6.765
     4   6 C        2.979    -0.014    28.352     8.734
     5   6 C        2.928    -0.038    28.934     8.821
     6   6 C        2.917    -0.046    29.151     8.854
     7   6 C        2.919    -0.035    28.870     8.811
     8   6 C        2.924    -0.060    29.500     8.907
     9   6 C        2.927     0.058    26.694     8.473
    10   7 N        2.753    -0.073    22.662     7.070
    11   6 C        2.927     0.073    26.370     8.421
    12   6 C        2.920    -0.036    28.906     8.817
    13   6 C        2.924    -0.032    28.791     8.799
    14   6 C        2.977     0.005    27.896     8.664
    15   6 C        2.976     0.010    27.780     8.646
    16   6 C        2.914     0.054    26.784     8.486
    17   7 N        1.834    -0.217    26.564     7.638
    18   6 C        2.914     0.054    26.783     8.486
    19   6 C        2.976     0.010    27.780     8.646
    20   6 C        2.977     0.005    27.898     8.664
    21   6 C        2.924    -0.032    28.792     8.799
    22   6 C        2.920    -0.036    28.908     8.817
    23   6 C        2.927     0.073    26.372     8.422
    24   7 N        2.753    -0.073    22.659     7.070
    25   6 C        2.927     0.058    26.695     8.473
    26   6 C        2.924    -0.060    29.501     8.907
    27   6 C        2.919    -0.035    28.870     8.811
    28   6 C        2.917    -0.046    29.151     8.854
    29   6 C        2.928    -0.038    28.934     8.821
    30   6 C        2.979    -0.014    28.351     8.734
    31   6 C        3.909     0.021    20.165     6.383
    32   6 C        3.761    -0.103    22.521     6.765
    33   6 C        3.761    -0.103    22.520     6.765
    34   6 C        2.979    -0.014    28.354     8.735
    35   6 C        2.928    -0.038    28.938     8.822
    36   6 C        2.917    -0.046    29.142     8.852
    37   6 C        2.919    -0.034    28.859     8.809
    38   6 C        2.924    -0.059    29.479     8.904
    39   6 C        2.927     0.058    26.696     8.473
    40   6 C        2.920    -0.036    28.884     8.813
    41   6 C        2.923    -0.028    28.702     8.786
    42   6 C        2.986     0.020    27.558     8.611
    43   6 C        1.908     0.124    28.064     8.555
    44   7 N        0.911    -0.259    26.721     7.476
    45   6 C        2.923    -0.028    28.702     8.786
    46   6 C        2.920    -0.035    28.883     8.813
    47   6 C        2.927     0.058    26.695     8.473
    48   6 C        2.924    -0.060    29.480     8.904
    49   6 C        2.919    -0.034    28.859     8.809
    50   6 C        2.917    -0.046    29.143     8.853
    51   6 C        2.928    -0.038    28.938     8.822
    52   6 C        2.979    -0.014    28.355     8.735
    53   1 H        0.925     0.042     2.428     2.437
    54   1 H        0.925     0.042     2.428     2.437
    55   1 H        0.925     0.030     2.592     2.518
    56   1 H        0.925     0.042     2.429     2.437
    57   1 H        0.925     0.030     2.588     2.516
    58   1 H        0.925     0.042     2.426     2.436
    59   1 H        0.926     0.032     2.552     2.498
    60   1 H        0.926     0.026     2.648     2.545
    61   1 H        0.926     0.027     2.632     2.537
    62   1 H        0.926     0.024     2.678     2.559
    63   1 H        0.926     0.051     2.307     2.375
    64   1 H        0.926     0.048     2.346     2.395
    65   1 H        0.925     0.052     2.295     2.369
    66   1 H        0.925     0.052     2.295     2.369
    67   1 H        0.926     0.048     2.347     2.396
    68   1 H        0.926     0.051     2.306     2.375
    69   1 H        0.926     0.024     2.676     2.558
    70   1 H        0.926     0.027     2.631     2.537
    71   1 H        0.926     0.026     2.648     2.545
    72   1 H        0.926     0.032     2.551     2.498
    73   1 H        0.925     0.042     2.426     2.436
    74   1 H        0.925     0.042     2.429     2.437
    75   1 H        0.925     0.030     2.588     2.516
    76   1 H        0.925     0.030     2.592     2.518
    77   1 H        0.925     0.042     2.428     2.437
    78   1 H        0.925     0.042     2.428     2.437
    79   1 H        0.926     0.033     2.547     2.496
    80   1 H        0.926     0.026     2.645     2.543
    81   1 H        0.926     0.027     2.633     2.537
    82   1 H        0.926     0.023     2.689     2.565
    83   1 H        0.926     0.049     2.328     2.386
    84   1 H        0.926     0.039     2.462     2.454
    85   1 H        0.926     0.039     2.461     2.453
    86   1 H        0.926     0.049     2.327     2.385
    87   1 H        0.926     0.023     2.690     2.565
    88   1 H        0.926     0.027     2.633     2.538
    89   1 H        0.926     0.026     2.645     2.543
    90   1 H        0.926     0.033     2.547     2.496

molecular dipole:
                 x           y           z       tot (Debye)
 q only:       -0.004       0.702       0.009
   full:       -0.004       0.784       0.010       1.992

 projected vibrational frequencies (cm⁻¹)
eigval :       -0.00    -0.00    -0.00    -0.00     0.00     0.00
eigval :        8.89     9.37    11.47    20.68    22.37    22.80
eigval :       34.73    40.04    54.24    55.79    57.29    63.15
eigval :       90.64    94.04    97.43    98.51   105.50   108.41
eigval :      111.61   125.29   126.26   135.48   153.92   167.85
eigval :      189.66   194.36   196.70   200.62   201.07   218.33
eigval :      219.46   233.02   233.32   236.33   260.61   288.97
eigval :      298.36   304.79   309.08   321.10   331.33   331.64
eigval :      344.36   344.88   367.07   375.52   376.54   379.73
eigval :      380.32   384.69   392.60   401.51   404.20   412.95
eigval :      419.13   423.08   442.07   453.24   453.43   484.07
eigval :      491.29   493.45   514.44   515.23   515.51   525.80
eigval :      547.00   547.33   548.35   560.91   572.04   574.67
eigval :      577.43   586.45   586.68   596.94   602.62   611.87
eigval :      620.59   624.25   642.29   664.76   683.10   683.62
eigval :      683.82   694.05   694.15   699.39   703.72   724.33
eigval :      730.22   745.57   769.62   771.27   773.09   773.35
eigval :      795.51   810.99   813.64   825.63   826.47   832.96
eigval :      859.01   863.30   863.87   864.29   864.66   869.45
eigval :      870.98   905.55   909.95   910.91   911.35   911.92
eigval :      913.06   913.29   914.05   914.45   916.01   918.18
eigval :      918.96   920.36   920.42   926.06   926.20   927.62
eigval :      937.44   938.37   955.70   957.08   997.63  1012.98
eigval :     1013.38  1016.39  1062.40  1075.83  1076.03  1084.96
eigval :     1085.38  1112.65  1112.76  1118.60  1118.65  1131.88
eigval :     1132.41  1139.14  1139.25  1157.95  1158.26  1158.50
eigval :     1160.06  1171.16  1172.23  1184.04  1184.33  1186.33
eigval :     1186.61  1186.93  1187.10  1205.53  1208.40  1211.28
eigval :     1241.46  1243.42  1248.43  1248.51  1250.56  1256.51
eigval :     1264.40  1266.22  1267.05  1267.34  1292.99  1293.06
eigval :     1301.92  1305.26  1306.19  1316.04  1323.63  1323.67
eigval :     1331.46  1332.78  1335.50  1335.72  1339.43  1394.42
eigval :     1394.64  1399.01  1399.18  1405.80  1417.81  1417.96
eigval :     1425.62  1435.05  1435.19  1439.28  1439.34  1476.20
eigval :     1476.29  1484.90  1486.23  1486.26  1486.99  1487.32
eigval :     1487.40  1495.59  1496.56  1496.71  1497.01  1502.38
eigval :     1502.71  1525.23  1537.75  1557.76  1559.07  1573.71
eigval :     1573.71  1586.98  1587.16  1590.29  1590.33  1591.13
eigval :     1591.36  1600.69  1600.71  2358.01  3020.22  3020.36
eigval :     3022.87  3022.90  3038.32  3039.07  3040.32  3040.95
eigval :     3046.93  3047.47  3050.82  3051.37  3066.04  3066.23
eigval :     3071.95  3071.97  3072.59  3073.03  3078.52  3078.59
eigval :     3079.10  3079.38  3082.30  3082.58  3084.40  3084.65
eigval :     3089.36  3089.40  3089.80  3089.87  3094.38  3094.53
eigval :     3096.24  3096.51  3097.37  3097.38  3098.83  3099.02

   temp. (K)  partition function   enthalpy   heat capacity  entropy
                                   cal/mol     cal/K/mol   cal/K/mol   J/K/mol
 298.15  VIB  0.505E+21            26169.891    163.148    163.503
         ROT  0.704E+08              888.752      2.981     38.891
         INT  0.356E+29            27058.643    166.129    202.394
         TR   0.168E+29             1481.254      4.968     45.371
         TOT                       28539.8970   171.0968   247.7649  1036.6485

       T/K    H(0)-H(T)+PV         H(T)/Eh          T*S/Eh         G(T)/Eh
   ------------------------------------------------------------------------
    298.15    0.454812E-01    0.754850E+00    0.117721E+00    0.637129E+00
   ------------------------------------------------------------------------

         :::::::::::::::::::::::::::::::::::::::::::::::::::::
         ::                  THERMODYNAMIC                  ::
         :::::::::::::::::::::::::::::::::::::::::::::::::::::
         :: total free energy        -133.299821663981 Eh   ::
         ::.................................................::
         :: total energy             -133.936950273214 Eh   ::
         :: zero point energy           0.709368505954 Eh   ::
         :: G(RRHO) w/o ZPVE           -0.072239896722 Eh   ::
         :: G(RRHO) contrib.            0.637128609232 Eh   ::
         :::::::::::::::::::::::::::::::::::::::::::::::::::::

           -------------------------------------------------
          | TOTAL ENERGY             -133.936950273214 Eh   |
          | TOTAL ENTHALPY           -133.182100546398 Eh   |
          | TOTAL FREE ENERGY        -133.299821663981 Eh   |
          | GRADIENT NORM               0.000050178845 Eh/α |
          | HOMO-LUMO GAP               1.227848694367 eV   |
           -------------------------------------------------

 * finished run on 2025/08/24 at 00:39:39.288
