   * xtb version 6.7.1 (edcfbbe) compiled by 'albert@albert-system' on 2024-07-22

   ID    Z sym.   atoms
    1    6 C      1-9, 11-16, 18-23, 25-43, 45-52
    2    7 N      10, 17, 24, 44
    3    1 H      53-90

          program call               : xtb data2507/toluene/AcCN/AcCN_toluene_S0_finalOpt.xtbopt.xyz --gfn 2 --uhf 2 --gbsa toluene --ohess vtight --parallel 40 --molden --ceasefiles --namespace data2507/toluene/AcCN/AcCN_toluene_T1_preOpt
      * Solvation model:               GBSA
        Solvent                        toluene
        Solvent mass                       9.2140E+01 g/mol
          :  Hamiltonian                  GFN2-xTB          :
 * total energy  :  -133.8584171 Eh     change       -0.2094683E-07 Eh
 * total energy  :  -133.8625543 Eh     change       -0.4137159E-02 Eh
 * total energy  :  -133.8633973 Eh     change       -0.8430535E-03 Eh
 * total energy  :  -133.8635150 Eh     change       -0.1176289E-03 Eh
 * total energy  :  -133.8636615 Eh     change       -0.1464852E-03 Eh
 * total energy  :  -133.8637544 Eh     change       -0.9295929E-04 Eh
 * total energy  :  -133.8638799 Eh     change       -0.1254925E-03 Eh
 * total energy  :  -133.8639458 Eh     change       -0.6585882E-04 Eh
 * total energy  :  -133.8639779 Eh     change       -0.3211408E-04 Eh
 * total energy  :  -133.8639985 Eh     change       -0.2064363E-04 Eh
 * total energy  :  -133.8645811 Eh     change       -0.6384690E-06 Eh
 * total energy  :  -133.8645817 Eh     change       -0.6348920E-06 Eh
 * total energy  :  -133.8645823 Eh     change       -0.6505963E-06 Eh
 * total energy  :  -133.8645830 Eh     change       -0.6867039E-06 Eh
 * total energy  :  -133.8645838 Eh     change       -0.7435331E-06 Eh
 * total energy  :  -133.8645846 Eh     change       -0.8421673E-06 Eh
 * total energy  :  -133.8645855 Eh     change       -0.9395656E-06 Eh
 * total energy  :  -133.8645866 Eh     change       -0.1029309E-05 Eh
 * total energy  :  -133.8645866 Eh     change       -0.2747839E-08 Eh
   *** GEOMETRY OPTIMIZATION CONVERGED AFTER 122 ITERATIONS ***

 final structure:
================
90
 xtb: 6.7.1 (edcfbbe)
C            9.15963564763270       -2.21001864056643       -1.86408805649907
C            8.76203502749348       -1.52002676281856       -0.54415677123400
C            9.90514175241272       -1.64169885911852        0.48293786427013
C            8.51056739387069       -0.05338078083908       -0.82299280249118
C            9.52896778897581        0.73072851185973       -1.34839196531788
C            9.34546622827605        2.06910006915777       -1.64408964358128
C            8.10637356634658        2.65226944037458       -1.42618016061156
C            7.07782982712309        1.90035921950827       -0.90455310793444
C            7.26590493976652        0.54869278998499       -0.58057781013072
N            6.21874713249268       -0.17530567799999       -0.04701807801960
C            4.97839292768991        0.47861489310366        0.19963367940093
C            4.83692348375876        1.32545205479767        1.29696522225256
C            3.62575549710242        1.92969478019014        1.55047973435350
C            2.51742942427066        1.70498333689149        0.72140367455157
C            1.22943964399167        2.31242819558644        1.01307902831632
C            1.14287599115975        3.60647578691125        1.47958115383746
N           -0.00331690576232        4.24789069002351        1.70678056795527
C           -1.15035284329845        3.60795540034413        1.47788797539870
C           -1.23588646454797        2.31387014944459        1.01198977360736
C           -2.52312801416397        1.70750609957955        0.71495551356215
C           -2.69252451786059        0.89049993544798       -0.41101123065997
C           -3.89996090194660        0.28424563920601       -0.67381554073754
C           -4.98072694864295        0.47774929205385        0.18506586279512
N           -6.21730586808562       -0.17865389870716       -0.06549130650341
C           -7.29316756261518        0.56127102889927       -0.51545303085553
C           -7.13572996910777        1.93294137307000       -0.76311901694690
C           -8.19450810787415        2.70053545022087       -1.19349683146625
C           -9.43427419913359        2.11379385593885       -1.39709415050279
C           -9.58677480796744        0.75606005420833       -1.18423307932336
C           -8.53740784910836       -0.04401750673114       -0.75198626558329
C           -8.75533724920578       -1.53128676851628       -0.57326333332593
C           -9.18184843020920       -2.12821725227905       -1.92908308921991
C           -9.86242110480979       -1.75200085079332        0.47649997974986
C           -7.50013931862965       -2.23417519546267       -0.10141338447087
C           -7.52370103998215       -3.60538395875244        0.11636745603904
C           -6.41696780399972       -4.29350367266033        0.57845409791158
C           -5.24887580688357       -3.59905623957054        0.85405594092124
C           -5.19479738169828       -2.23900447665300        0.64702931657070
C           -6.30508206145239       -1.54121059003055        0.14874841504131
C           -4.83714378662706        1.30707151751688        1.29599929032551
C           -3.62814110735158        1.91368951498905        1.55313587921486
C           -0.00371473263207        1.59437766445575        0.81349456686161
C           -0.00851279076372        0.23274720768386        0.60600815408615
N           -0.01658528354292       -0.92166054510375        0.45078587543221
C            2.68507928051894        0.86854152808335       -0.39053687027170
C            3.89436123333123        0.26364261656383       -0.64910327354313
C            6.33428633977633       -1.51929633706329        0.25013249704704
C            5.24558635286923       -2.20091407230595        0.81386522782684
C            5.32879424087534       -3.54282178834012        1.11026164090535
C            6.50456835775134       -4.23369053055059        0.85914109666551
C            7.58808697525905       -3.56075476223500        0.32504181756477
C            7.53480423852072       -2.20820889045055        0.01540994222940
H            9.36586081575445       -3.26349435046951       -1.70085221779973
H            8.34961330194477       -2.12529088332760       -2.58620837354326
H           10.04762191545185       -1.75037569095264       -2.28750161600072
H           10.12053521814648       -2.68406259522624        0.69776631155939
H            9.62394503816069       -1.14974107297953        1.41226583123597
H           10.81133193518628       -1.17596647391742        0.10729425790877
H           10.49511281019385        0.28922191752448       -1.53641232156939
H           10.15918938326749        2.65070878028725       -2.04949081509104
H            7.94025818337618        3.69157105688710       -1.66636785275780
H            6.11133744022142        2.35239681818237       -0.74686533703998
H            5.67848161906230        1.48890980074970        1.95455061420595
H            3.51550384158366        2.55987657406498        2.42055415837864
H            2.03522383612138        4.19972465861455        1.63440421733244
H           -2.04267862832829        4.20232539209815        1.62820149361310
H           -1.86467387960597        0.74167897786356       -1.08825448515108
H           -4.01666052090911       -0.34454474078309       -1.54459075269543
H           -6.16924229909265        2.38953215036419       -0.62004809283655
H           -8.05116823927148        3.75512107885679       -1.37439965181933
H          -10.27184254434335        2.70761002154035       -1.72966427270953
H          -10.55296586504243        0.31152045851499       -1.36462706147278
H           -9.35576731371701       -3.19651513978959       -1.84199964355322
H           -8.39999502760144       -1.96571582499736       -2.66876284791086
H          -10.09517800649160       -1.66158244562216       -2.28575604763576
H           -9.54955771979639       -1.34646283506623        1.43693874456483
H          -10.06873939182224       -2.81066411125454        0.60180595036539
H          -10.78193220372228       -1.25810796061625        0.17706163973841
H           -8.43005439014973       -4.15765909501861       -0.07647723826512
H           -6.46767563365951       -5.36044078483548        0.73280435751671
H           -4.37908892689312       -4.11397696898639        1.23297877568736
H           -4.28521540182421       -1.70514966390736        0.87305291618881
H           -5.67540172386625        1.45375494093524        1.96174724297499
H           -3.51560595832157        2.52997687962254        2.43283630845233
H            1.85463671180769        0.70297890547455       -1.06057652653918
H            4.00947095668386       -0.38076585608757       -1.50856492436380
H            4.33024003647707       -1.66808149146546        1.01827188367617
H            4.47580243587645       -4.04673573161947        1.53894890676278
H            6.57838464095749       -5.28642285952187        1.08517791814726
H            8.49934255177896       -4.11032608448551        0.14800953163836

          :  Hamiltonian                  GFN2-xTB          :
         :: gradient norm              0.000056204285 Eh/a0 ::
         :: HOMO-LUMO gap              0.395922273260 eV    ::
         :: SCC energy              -136.311667293427 Eh    ::
         :: -> dispersion             -0.126647224499 Eh    ::
         :: -> Gsolv                  -0.066893634396 Eh    ::
         :: repulsion energy           2.447080710186 Eh    ::

    * Orbital Energies and Occupations

         #    Occupation            Energy/Eh            Energy/eV
      -------------------------------------------------------------
         1        2.0000           -0.6820350             -18.5591
       ...           ...                  ...                  ...
       114        2.0000           -0.4120940             -11.2136
       115        2.0000           -0.4098775             -11.1533
       116        2.0000           -0.4095761             -11.1451
       117        2.0000           -0.4073808             -11.0854
       118        2.0000           -0.4042855             -11.0012
       119        2.0000           -0.4042357             -10.9998
       120        2.0000           -0.3947310             -10.7412
       121        2.0000           -0.3847483             -10.4695
       122        2.0000           -0.3839385             -10.4475
       123        1.9385           -0.3618943              -9.8476
       124        1.6339           -0.3598276              -9.7914
       125        1.4276           -0.3590289              -9.7697
       126        0.9995           -0.2679622              -7.2916 (HOMO)
       127        0.0005           -0.2534124              -6.8957 (LUMO)
       128                         -0.2387690              -6.4972
       129                         -0.2385927              -6.4924
       130                         -0.2318115              -6.3079
       131                         -0.2315031              -6.2995
       132                         -0.2310187              -6.2863
       133                         -0.2306910              -6.2774
       134                         -0.2278318              -6.1996
       135                         -0.2276138              -6.1937
       136                         -0.2272289              -6.1832
       137                         -0.2046994              -5.5702
       ...                                ...                  ...
       246                          1.1682681              31.7902
      -------------------------------------------------------------
                  HL-Gap            0.0145498 Eh            0.3959 eV

     #   Z          covCN         q      C6AA      α(0)
     1   6 C        3.761    -0.107    22.595     6.776
     2   6 C        3.909     0.024    20.119     6.375
     3   6 C        3.761    -0.107    22.594     6.776
     4   6 C        2.978    -0.003    28.102     8.696
     5   6 C        2.926    -0.034    28.836     8.806
     6   6 C        2.917    -0.034    28.848     8.808
     7   6 C        2.918    -0.029    28.721     8.788
     8   6 C        2.923    -0.049    29.227     8.866
     9   6 C        2.928     0.061    26.632     8.463
    10   7 N        2.754    -0.028    21.787     6.932
    11   6 C        2.929     0.049    26.894     8.505
    12   6 C        2.917    -0.040    28.993     8.830
    13   6 C        2.923    -0.040    28.989     8.830
    14   6 C        2.974     0.003    27.962     8.674
    15   6 C        2.970    -0.018    28.452     8.749
    16   6 C        2.896     0.046    26.972     8.515
    17   7 N        1.833    -0.271    27.876     7.824
    18   6 C        2.896     0.045    26.979     8.516
    19   6 C        2.970    -0.017    28.441     8.748
    20   6 C        2.974     0.003    27.949     8.672
    21   6 C        2.923    -0.031    28.771     8.796
    22   6 C        2.917    -0.039    28.958     8.824
    23   6 C        2.929     0.050    26.884     8.503
    24   7 N        2.754    -0.027    21.770     6.930
    25   6 C        2.928     0.061    26.638     8.464
    26   6 C        2.923    -0.049    29.227     8.866
    27   6 C        2.918    -0.029    28.722     8.788
    28   6 C        2.917    -0.034    28.845     8.807
    29   6 C        2.926    -0.034    28.836     8.806
    30   6 C        2.978    -0.003    28.098     8.695
    31   6 C        3.909     0.024    20.119     6.375
    32   6 C        3.761    -0.107    22.595     6.776
    33   6 C        3.761    -0.107    22.597     6.776
    34   6 C        2.978    -0.003    28.102     8.696
    35   6 C        2.926    -0.034    28.842     8.807
    36   6 C        2.917    -0.033    28.832     8.805
    37   6 C        2.918    -0.028    28.703     8.785
    38   6 C        2.922    -0.048    29.191     8.860
    39   6 C        2.929     0.061    26.633     8.463
    40   6 C        2.917    -0.040    28.989     8.829
    41   6 C        2.923    -0.039    28.982     8.828
    42   6 C        2.974    -0.039    28.974     8.829
    43   6 C        1.907     0.094    28.759     8.661
    44   7 N        0.911    -0.400    30.358     7.969
    45   6 C        2.924    -0.031    28.782     8.798
    46   6 C        2.917    -0.039    28.962     8.825
    47   6 C        2.929     0.061    26.627     8.462
    48   6 C        2.922    -0.048    29.192     8.860
    49   6 C        2.918    -0.028    28.704     8.786
    50   6 C        2.917    -0.034    28.836     8.806
    51   6 C        2.926    -0.034    28.843     8.807
    52   6 C        2.978    -0.003    28.105     8.696
    53   1 H        0.925     0.051     2.312     2.378
    54   1 H        0.925     0.035     2.510     2.478
    55   1 H        0.925     0.051     2.311     2.377
    56   1 H        0.925     0.050     2.314     2.379
    57   1 H        0.925     0.036     2.507     2.476
    58   1 H        0.925     0.051     2.309     2.376
    59   1 H        0.926     0.048     2.343     2.394
    60   1 H        0.926     0.041     2.429     2.437
    61   1 H        0.926     0.039     2.459     2.452
    62   1 H        0.926     0.037     2.486     2.465
    63   1 H        0.926     0.041     2.434     2.440
    64   1 H        0.926     0.034     2.532     2.488
    65   1 H        0.925     0.020     2.726     2.582
    66   1 H        0.925     0.020     2.727     2.582
    67   1 H        0.926     0.029     2.603     2.523
    68   1 H        0.926     0.039     2.464     2.454
    69   1 H        0.926     0.038     2.479     2.462
    70   1 H        0.926     0.039     2.456     2.451
    71   1 H        0.926     0.042     2.428     2.437
    72   1 H        0.926     0.048     2.342     2.393
    73   1 H        0.925     0.051     2.312     2.378
    74   1 H        0.925     0.036     2.509     2.477
    75   1 H        0.925     0.051     2.310     2.377
    76   1 H        0.925     0.036     2.506     2.476
    77   1 H        0.925     0.051     2.313     2.378
    78   1 H        0.925     0.051     2.309     2.376
    79   1 H        0.926     0.049     2.334     2.389
    80   1 H        0.926     0.042     2.423     2.434
    81   1 H        0.926     0.039     2.467     2.456
    82   1 H        0.926     0.036     2.500     2.472
    83   1 H        0.926     0.042     2.424     2.435
    84   1 H        0.926     0.034     2.527     2.486
    85   1 H        0.926     0.029     2.606     2.524
    86   1 H        0.926     0.038     2.473     2.459
    87   1 H        0.926     0.036     2.506     2.476
    88   1 H        0.926     0.038     2.470     2.458
    89   1 H        0.926     0.042     2.425     2.435
    90   1 H        0.926     0.049     2.336     2.390

molecular dipole:
                 x           y           z       tot (Debye)
 q only:       -0.058      -1.890      -1.244
   full:       -0.054      -1.601      -1.215       5.111

 projected vibrational frequencies (cm⁻¹)
eigval :       -0.00    -0.00    -0.00    -0.00     0.00     0.00
eigval :        2.83     5.65    11.18    20.42    23.58    24.12
eigval :       28.97    42.27    49.78    55.96    63.50    81.81
eigval :       85.40    95.06    97.82    99.38   102.52   112.23
eigval :      114.34   127.96   128.51   137.89   151.37   165.80
eigval :      193.06   197.49   198.83   199.60   203.36   216.04
eigval :      217.34   233.45   235.90   238.54   279.29   294.97
eigval :      297.73   304.93   308.30   323.06   326.89   327.32
eigval :      340.42   341.03   358.07   373.59   375.85   379.09
eigval :      380.65   389.49   393.18   399.83   404.48   410.55
eigval :      418.89   421.34   427.75   448.69   449.59   465.75
eigval :      482.26   500.81   505.03   505.28   509.00   514.46
eigval :      520.33   535.31   542.72   542.83   545.61   558.12
eigval :      575.13   579.88   584.08   591.92   600.40   606.31
eigval :      609.98   617.17   635.45   645.30   661.26   680.56
eigval :      687.67   687.85   688.16   689.85   701.31   701.47
eigval :      726.87   741.79   768.44   769.62   774.05   775.24
eigval :      776.01   801.86   803.60   823.43   824.91   825.58
eigval :      829.42   851.37   852.50   856.60   868.09   871.36
eigval :      872.48   873.51   904.61   906.04   907.64   912.97
eigval :      913.10   913.99   916.10   916.42   916.64   916.91
eigval :      917.98   918.50   920.12   923.36   923.94   924.23
eigval :      936.22   936.67   957.54   957.64   987.68  1007.02
eigval :     1012.02  1012.45  1037.91  1073.73  1073.74  1083.07
eigval :     1083.71  1104.68  1107.01  1111.44  1112.07  1124.02
eigval :     1127.81  1133.20  1134.63  1137.34  1137.48  1143.42
eigval :     1148.27  1148.35  1167.02  1168.01  1179.90  1181.45
eigval :     1181.87  1182.98  1183.99  1196.17  1206.50  1211.86
eigval :     1237.04  1237.40  1242.46  1242.58  1247.04  1258.01
eigval :     1259.30  1263.73  1265.71  1271.57  1291.93  1292.04
eigval :     1298.01  1304.66  1307.82  1309.30  1317.11  1319.58
eigval :     1326.75  1326.95  1331.30  1333.13  1333.85  1349.53
eigval :     1379.71  1394.79  1396.89  1397.41  1409.01  1414.81
eigval :     1415.45  1416.00  1419.17  1419.79  1427.42  1428.31
eigval :     1454.57  1454.60  1471.87  1472.79  1475.83  1478.05
eigval :     1481.58  1481.89  1482.54  1484.01  1492.31  1492.92
eigval :     1496.52  1498.05  1503.54  1508.20  1513.63  1552.88
eigval :     1552.95  1560.35  1564.88  1566.69  1577.48  1577.64
eigval :     1585.85  1587.12  1588.62  2237.33  3025.95  3026.85
eigval :     3027.99  3028.80  3040.91  3041.53  3047.54  3047.84
eigval :     3049.37  3049.72  3054.44  3055.00  3057.97  3058.68
eigval :     3074.95  3075.36  3077.26  3078.06  3082.40  3082.57
eigval :     3083.30  3084.42  3086.89  3087.26  3089.70  3089.75
eigval :     3089.98  3090.40  3091.35  3091.76  3099.66  3099.71
eigval :     3099.92  3100.32  3106.08  3107.30  3107.52  3108.06

   temp. (K)  partition function   enthalpy   heat capacity  entropy
                                   cal/mol     cal/K/mol   cal/K/mol   J/K/mol
 298.15  VIB  0.231E+22            26317.078    164.622    165.454
         ROT  0.142E+09              888.752      2.981     40.291
         INT  0.329E+30            27205.830    167.603    205.745
         TR   0.168E+29             1481.254      4.968     45.371
         TOT                       28687.0838   172.5714   251.1158  1050.6687

       T/K    H(0)-H(T)+PV         H(T)/Eh          T*S/Eh         G(T)/Eh
   ------------------------------------------------------------------------
    298.15    0.457158E-01    0.751750E+00    0.119313E+00    0.632437E+00
   ------------------------------------------------------------------------

         :::::::::::::::::::::::::::::::::::::::::::::::::::::
         ::                  THERMODYNAMIC                  ::
         :::::::::::::::::::::::::::::::::::::::::::::::::::::
         :: total free energy        -133.232149893343 Eh   ::
         ::.................................................::
         :: total energy             -133.864586583780 Eh   ::
         :: zero point energy           0.706034153391 Eh   ::
         :: G(RRHO) w/o ZPVE           -0.073597462954 Eh   ::
         :: G(RRHO) contrib.            0.632436690437 Eh   ::
         :::::::::::::::::::::::::::::::::::::::::::::::::::::

           -------------------------------------------------
          | TOTAL ENERGY             -133.864586583780 Eh   |
          | TOTAL ENTHALPY           -133.112836652427 Eh   |
          | TOTAL FREE ENERGY        -133.232149893343 Eh   |
          | GRADIENT NORM               0.000056472025 Eh/α |
          | HOMO-LUMO GAP               0.395920774947 eV   |
           -------------------------------------------------

 * finished run on 2025/08/24 at 00:46:57.931
