   * xtb version 6.7.1 (edcfbbe) compiled by 'albert@albert-system' on 2024-07-22

   ID    Z sym.   atoms
    1    6 C      1-9, 11-23, 25-44, 46-50, 52-54
    2    7 N      10, 24, 45, 51
    3    1 H      55-94

          program call               : xtb data2507/toluene/NyDPAc/NyDPAc.xyz --gfn 2 --gbsa toluene --ohess vtight --parallel 40 --molden --ceasefiles --namespace data2507/toluene/NyDPAc/NyDPAc_toluene_S0_preOpt
      * Solvation model:               GBSA
        Solvent                        toluene
        Solvent mass                       9.2140E+01 g/mol
          :  Hamiltonian                  GFN2-xTB          :
 * total energy  :  -139.2502618 Eh     change       -0.3745896E-08 Eh
 * total energy  :  -139.2693401 Eh     change       -0.1907834E-01 Eh
 * total energy  :  -139.2753606 Eh     change       -0.6020459E-02 Eh
 * total energy  :  -139.2767739 Eh     change       -0.1413343E-02 Eh
 * total energy  :  -139.2777604 Eh     change       -0.9864105E-03 Eh
 * total energy  :  -139.2782316 Eh     change       -0.4712741E-03 Eh
 * total energy  :  -139.2784600 Eh     change       -0.2283405E-03 Eh
 * total energy  :  -139.2785637 Eh     change       -0.1036878E-03 Eh
 * total energy  :  -139.2786187 Eh     change       -0.5501032E-04 Eh
 * total energy  :  -139.2786645 Eh     change       -0.4585127E-04 Eh
 * total energy  :  -139.2788493 Eh     change       -0.6583375E-06 Eh
 * total energy  :  -139.2788498 Eh     change       -0.5287726E-06 Eh
 * total energy  :  -139.2788502 Eh     change       -0.4051520E-06 Eh
 * total energy  :  -139.2788505 Eh     change       -0.3082300E-06 Eh
 * total energy  :  -139.2788507 Eh     change       -0.1738737E-06 Eh
 * total energy  :  -139.2788509 Eh     change       -0.1771447E-06 Eh
 * total energy  :  -139.2788511 Eh     change       -0.1736539E-06 Eh
 * total energy  :  -139.2788513 Eh     change       -0.2573483E-06 Eh
 * total energy  :  -139.2788513 Eh     change       -0.3686523E-08 Eh
   *** GEOMETRY OPTIMIZATION CONVERGED AFTER 44 ITERATIONS ***

 final structure:
================
94
 xtb: 6.7.1 (edcfbbe)
C            8.17300758706757       -1.53672497114777       -0.20644476253220
C            8.90196794805788       -0.41411764350058        0.55470830225910
C            8.12392081019256       -0.03991865142135        1.82958300198549
C           10.25737534521262       -0.96119362470087        0.98852290589573
C           10.33633748079611       -2.07729234348872        1.81123758776723
C           11.55050076369765       -2.59931549650164        2.22319049548312
C           12.73167734982410       -2.00422950225544        1.81332370495392
C           12.68392716263060       -0.89536364201794        0.99487733213468
C           11.45703284050305       -0.37415524137356        0.58299576163236
N           11.43275491014306        0.73025410706908       -0.23085439367565
C           10.28186168058880        1.31889183593877       -0.69719865939933
C           10.42419294068351        2.43259788064889       -1.52507980817217
C            9.31408382980583        3.07391477700400       -2.02725075750001
C            8.06190445701208        2.59738619051993       -1.69656137237830
C            7.90504109394801        1.48425423064720       -0.86923871160958
C            6.47679947899476        1.14525417968097       -0.64127186986776
C            5.76159032699162        1.75686570814257        0.38464253649430
C            4.40813470272302        1.52712462260293        0.54091962799082
C            3.72506654769193        0.69372555191868       -0.34339820316156
C            2.28708144093863        0.43129755967689       -0.21195196742757
C            1.64263424936135        0.47192118083305        1.05161387804842
C            0.30393974396505        0.21987361357713        1.13692856737806
C           -0.41415592922095       -0.07484837148126       -0.04422368277528
N           -1.73344996230784       -0.31697945536110        0.01318361460354
C           -2.38571122329172       -0.58681932660025       -1.09766884576492
C           -3.82561629317243       -0.83949646571043       -0.96806312743017
C           -4.32529712392998       -1.35759509621604        0.22684932310109
C           -5.67396564121438       -1.60845237091629        0.37847386584116
C           -6.57003317754763       -1.32056438239929       -0.64827476903721
C           -8.00265527450851       -1.69587578510364       -0.53111818494719
C           -8.24612280069604       -3.00417169351721       -0.95216458536698
C           -9.51712980815287       -3.54105671010555       -0.92647774648821
C          -10.55920753425987       -2.76231463973051       -0.47560439529191
C          -10.32991830275449       -1.45355629567813       -0.05056979900935
C           -9.04444982102816       -0.88663005755877       -0.06626167055243
C           -8.83259144917428        0.55101504527461        0.41295006797151
C           -7.87268359915459        0.54959460328637        1.61697549552641
C           -8.24637635474507        1.39178713429159       -0.73607702771468
C          -10.12550086443520        1.22364192918475        0.86114878177565
C          -10.11526505178684        2.53344336326165        1.32283767563425
C          -11.27049086087429        3.17283740391858        1.73879550597495
C          -12.48142068040443        2.50253945622055        1.70075795810742
C          -12.52182048135039        1.20071541413018        1.24771072908623
C          -11.35383360164836        0.56155978526546        0.83087843403591
N          -11.41665093505406       -0.73520333091180        0.38684918289184
C           -6.06869960263960       -0.82424298103003       -1.84853693749533
C           -4.71814028058533       -0.57967759153644       -2.00671556507404
C           -1.73609109720973       -0.65413075045872       -2.35743617350692
C           -0.39425745816478       -0.41892252028018       -2.44014185284248
C            0.32003834874460       -0.10607044999077       -1.26134446119835
N            1.63836682167003        0.14012028753880       -1.31956120329074
C            4.43186576982797        0.12244215466747       -1.40190106794531
C            5.78513389567779        0.34834974440201       -1.55069229825981
C            9.01745813590972        0.81482498307911       -0.34928337360639
H            7.14237920154003       -1.26438694393375       -0.40629497387117
H            8.67675298228776       -1.73129815255582       -1.15200627513612
H            8.17336795665215       -2.45543406112295        0.37343210260383
H            8.57840937447866        0.83064771251041        2.29994690397106
H            8.14191011626591       -0.85886127438628        2.54319136253353
H            7.08820175034290        0.18423750738911        1.59910455286276
H            9.43214390607744       -2.56308297695966        2.14719172215824
H           11.57233751012500       -3.46916828325748        2.86287882796649
H           13.68458740147032       -2.40270793966403        2.12951544686306
H           13.59545159127570       -0.41703484702062        0.66375713583887
H           12.31352263908455        1.13473837391667       -0.51064628090148
H           11.41840601605819        2.78260328956316       -1.76544103452923
H            9.42181187163458        3.93574708722259       -2.66880255717320
H            7.17731621995515        3.08582508986687       -2.07900411583770
H            6.27382995078277        2.42591063399224        1.06139891960173
H            3.87733168740516        2.02846620289917        1.33662317739979
H            2.21967927720931        0.67814935459835        1.93957388524971
H           -0.22562511168133        0.23378840783867        2.07814817558841
H           -3.63251045121592       -1.57006468955743        1.02656810118195
H           -6.04218122535891       -2.03686218669618        1.29976341237706
H           -7.41418030094371       -3.59773836241828       -1.30285187203056
H           -9.69181186299080       -4.55496090652653       -1.25437027741030
H          -11.56647694347754       -3.15381225646334       -0.44460927091333
H           -6.87895125174915        0.23173199308242        1.32087538017419
H           -8.24458463586942       -0.12343802892484        2.38799331858702
H           -7.79485022054636        1.54516172596581        2.04488064881809
H           -7.23610482140038        1.07534851901367       -0.97127030739717
H           -8.86604917079765        1.28927175579458       -1.62560417548770
H           -8.21525044073185        2.44308659102876       -0.46415600925760
H           -9.18576430338624        3.08169376179965        1.36510286010881
H          -11.22302799899979        4.19235855189045        2.09176382008174
H          -13.38921461173147        2.99163520383857        2.02242210599184
H          -13.45771598440043        0.66033734090495        1.21141380790355
H          -12.31658373895232       -1.19089660016264        0.37444155117201
H           -6.74827376618066       -0.62957001464174       -2.66597424741715
H           -4.36368807507943       -0.16445971532727       -2.93845560858454
H           -2.30232821489260       -0.91628781353373       -3.23755346757454
H            0.14204926194006       -0.46749693509800       -3.37639263150217
H            3.89645407502198       -0.49949624356514       -2.10265721042770
H            6.31707288742944       -0.09098922305365       -2.38248196683191

          :  Hamiltonian                  GFN2-xTB          :
         :: gradient norm              0.000045900108 Eh/a0 ::
         :: HOMO-LUMO gap              1.455336258092 eV    ::
         :: SCC energy              -141.802001402203 Eh    ::
         :: -> dispersion             -0.129082355379 Eh    ::
         :: -> Gsolv                  -0.056312725346 Eh    ::
         :: repulsion energy           2.523150087579 Eh    ::

    * Orbital Energies and Occupations

         #    Occupation            Energy/Eh            Energy/eV
      -------------------------------------------------------------
         1        2.0000           -0.6710421             -18.2600
       ...           ...                  ...                  ...
       118        2.0000           -0.4064862             -11.0611
       119        2.0000           -0.4018229             -10.9342
       120        2.0000           -0.4017398             -10.9319
       121        2.0000           -0.3964524             -10.7880
       122        2.0000           -0.3954416             -10.7605
       123        2.0000           -0.3950871             -10.7509
       124        2.0000           -0.3932156             -10.6999
       125        2.0000           -0.3898697             -10.6089
       126        2.0000           -0.3897030             -10.6044
       127        2.0000           -0.3834676             -10.4347
       128        2.0000           -0.3578392              -9.7373
       129        2.0000           -0.3466551              -9.4330
       130        2.0000           -0.3465432              -9.4299 (HOMO)
       131                         -0.2930606              -7.9746 (LUMO)
       132                         -0.2600000              -7.0750
       133                         -0.2444084              -6.6507
       134                         -0.2265744              -6.1654
       135                         -0.2265305              -6.1642
       136                         -0.2236093              -6.0847
       137                         -0.2235167              -6.0822
       138                         -0.2198665              -5.9829
       139                         -0.2198059              -5.9812
       140                         -0.2172667              -5.9121
       141                         -0.2170716              -5.9068
       ...                                ...                  ...
       256                          0.6880521              18.7229
      -------------------------------------------------------------
                  HL-Gap            0.0534826 Eh            1.4553 eV

     #   Z          covCN         q      C6AA      α(0)
     1   6 C        3.761    -0.106    22.581     6.774
     2   6 C        3.904     0.023    20.137     6.378
     3   6 C        3.761    -0.107    22.585     6.775
     4   6 C        2.980    -0.013    28.336     8.732
     5   6 C        2.928    -0.038    28.937     8.822
     6   6 C        2.918    -0.048    29.186     8.859
     7   6 C        2.919    -0.034    28.858     8.809
     8   6 C        2.924    -0.064    29.596     8.921
     9   6 C        2.920     0.064    26.571     8.453
    10   7 N        2.709    -0.143    24.096     7.290
    11   6 C        2.918     0.064    26.570     8.453
    12   6 C        2.929    -0.066    29.643     8.929
    13   6 C        2.915    -0.034    28.838     8.806
    14   6 C        2.938    -0.050    29.235     8.868
    15   6 C        2.979     0.004    27.935     8.670
    16   6 C        2.986     0.023    27.495     8.601
    17   6 C        2.923    -0.034    28.837     8.806
    18   6 C        2.921    -0.035    28.861     8.810
    19   6 C        2.980    -0.000    28.029     8.684
    20   6 C        2.952     0.100    25.778     8.327
    21   6 C        2.914    -0.048    29.180     8.858
    22   6 C        2.921    -0.028    28.699     8.785
    23   6 C        2.963     0.080    26.209     8.397
    24   7 N        1.848    -0.270    27.867     7.824
    25   6 C        2.952     0.100    25.778     8.327
    26   6 C        2.980    -0.000    28.026     8.684
    27   6 C        2.924    -0.027    28.688     8.784
    28   6 C        2.922    -0.033    28.812     8.802
    29   6 C        2.986     0.023    27.495     8.601
    30   6 C        2.979     0.004    27.935     8.670
    31   6 C        2.938    -0.050    29.239     8.868
    32   6 C        2.915    -0.034    28.841     8.806
    33   6 C        2.929    -0.066    29.644     8.929
    34   6 C        2.918     0.064    26.569     8.453
    35   6 C        2.970    -0.017    28.424     8.745
    36   6 C        3.904     0.023    20.136     6.378
    37   6 C        3.761    -0.107    22.583     6.774
    38   6 C        3.761    -0.106    22.580     6.774
    39   6 C        2.980    -0.013    28.334     8.732
    40   6 C        2.928    -0.038    28.936     8.822
    41   6 C        2.918    -0.048    29.184     8.859
    42   6 C        2.919    -0.034    28.859     8.809
    43   6 C        2.925    -0.064    29.596     8.922
    44   6 C        2.920     0.064    26.572     8.453
    45   7 N        2.709    -0.143    24.096     7.291
    46   6 C        2.923    -0.034    28.836     8.806
    47   6 C        2.921    -0.035    28.860     8.810
    48   6 C        2.914    -0.048    29.181     8.858
    49   6 C        2.921    -0.028    28.700     8.785
    50   6 C        2.963     0.080    26.208     8.397
    51   7 N        1.848    -0.271    27.879     7.825
    52   6 C        2.924    -0.028    28.691     8.784
    53   6 C        2.922    -0.033    28.811     8.802
    54   6 C        2.970    -0.017    28.427     8.746
    55   1 H        0.925     0.044     2.398     2.421
    56   1 H        0.925     0.029     2.594     2.518
    57   1 H        0.925     0.040     2.451     2.448
    58   1 H        0.925     0.030     2.593     2.518
    59   1 H        0.925     0.040     2.449     2.447
    60   1 H        0.925     0.044     2.396     2.421
    61   1 H        0.926     0.031     2.579     2.511
    62   1 H        0.926     0.025     2.665     2.553
    63   1 H        0.926     0.027     2.625     2.534
    64   1 H        0.925     0.024     2.675     2.558
    65   1 H        0.860     0.162     1.321     1.800
    66   1 H        0.926     0.026     2.650     2.546
    67   1 H        0.926     0.031     2.573     2.508
    68   1 H        0.926     0.025     2.663     2.552
    69   1 H        0.926     0.039     2.456     2.451
    70   1 H        0.926     0.036     2.501     2.473
    71   1 H        0.926     0.046     2.366     2.405
    72   1 H        0.926     0.051     2.308     2.376
    73   1 H        0.926     0.047     2.354     2.399
    74   1 H        0.926     0.040     2.445     2.445
    75   1 H        0.926     0.024     2.667     2.554
    76   1 H        0.926     0.031     2.574     2.509
    77   1 H        0.926     0.026     2.651     2.546
    78   1 H        0.925     0.045     2.388     2.417
    79   1 H        0.925     0.030     2.593     2.518
    80   1 H        0.925     0.040     2.450     2.448
    81   1 H        0.925     0.044     2.401     2.423
    82   1 H        0.925     0.029     2.595     2.519
    83   1 H        0.925     0.040     2.451     2.448
    84   1 H        0.926     0.031     2.578     2.511
    85   1 H        0.926     0.025     2.665     2.553
    86   1 H        0.926     0.027     2.625     2.534
    87   1 H        0.925     0.024     2.675     2.558
    88   1 H        0.860     0.162     1.321     1.800
    89   1 H        0.926     0.039     2.456     2.451
    90   1 H        0.926     0.036     2.501     2.473
    91   1 H        0.926     0.046     2.373     2.409
    92   1 H        0.926     0.051     2.313     2.378
    93   1 H        0.926     0.048     2.344     2.394
    94   1 H        0.926     0.040     2.448     2.447

molecular dipole:
                 x           y           z       tot (Debye)
 q only:        0.009      -0.066      -0.054
   full:        0.003      -0.061      -0.137       0.382

 projected vibrational frequencies (cm⁻¹)
eigval :       -0.00    -0.00    -0.00    -0.00     0.00     0.00
eigval :        7.19    10.10    14.87    20.02    26.27    30.58
eigval :       34.90    41.19    46.06    51.34    66.45    68.03
eigval :       71.94    80.82   100.56   102.11   104.01   111.91
eigval :      114.52   134.78   141.08   150.07   163.42   167.36
eigval :      180.17   186.42   204.56   216.75   220.20   224.55
eigval :      226.35   229.19   232.49   258.14   266.37   274.95
eigval :      290.90   302.19   314.70   321.50   323.12   330.89
eigval :      350.08   350.69   351.79   359.68   369.70   378.92
eigval :      381.49   383.27   387.43   390.08   398.23   417.98
eigval :      426.94   438.03   451.77   464.17   464.78   466.10
eigval :      478.79   484.81   487.33   514.70   515.97   522.26
eigval :      523.94   531.88   536.01   539.51   549.35   550.72
eigval :      552.28   560.34   572.95   579.28   580.61   586.64
eigval :      595.62   615.24   619.11   620.83   627.62   635.76
eigval :      643.33   668.49   679.28   689.14   690.20   701.71
eigval :      706.09   708.70   709.72   711.63   745.22   753.43
eigval :      759.94   776.15   778.23   791.72   793.40   803.44
eigval :      812.24   812.98   821.83   833.62   839.25   845.75
eigval :      857.38   859.56   860.29   860.86   868.10   868.56
eigval :      876.78   878.70   889.29   913.40   914.06   916.87
eigval :      917.55   918.43   920.02   920.93   922.64   924.20
eigval :      926.28   927.55   933.43   934.52   936.47   937.45
eigval :      943.23   947.38   960.51   960.61  1011.78  1012.02
eigval :     1012.54  1012.96  1073.98  1074.24  1085.47  1086.18
eigval :     1088.21  1088.47  1107.13  1107.80  1121.90  1122.04
eigval :     1128.12  1131.17  1141.97  1144.93  1146.01  1153.92
eigval :     1161.28  1161.59  1164.50  1164.75  1182.79  1183.06
eigval :     1193.12  1194.79  1196.91  1199.76  1201.63  1210.85
eigval :     1211.31  1222.68  1222.71  1252.46  1253.84  1257.73
eigval :     1258.50  1263.85  1268.07  1271.41  1274.02  1280.30
eigval :     1280.78  1291.11  1292.47  1303.28  1310.75  1317.15
eigval :     1317.84  1319.97  1331.04  1335.81  1335.93  1359.16
eigval :     1387.88  1389.05  1389.96  1393.91  1394.98  1398.62
eigval :     1399.07  1417.04  1417.27  1439.60  1441.50  1446.52
eigval :     1460.22  1463.73  1472.65  1477.31  1477.61  1486.40
eigval :     1487.26  1491.73  1492.75  1493.67  1494.58  1497.47
eigval :     1498.23  1501.78  1502.46  1505.36  1506.71  1516.41
eigval :     1554.60  1558.06  1572.12  1573.70  1575.65  1577.49
eigval :     1579.67  1579.77  1591.69  1591.72  1596.48  1597.39
eigval :     1598.27  1598.35  3018.93  3019.39  3021.57  3021.64
eigval :     3045.01  3045.13  3047.62  3047.80  3060.92  3061.77
eigval :     3063.09  3063.35  3070.86  3070.99  3071.50  3071.75
eigval :     3073.38  3073.53  3074.01  3074.14  3075.75  3075.99
eigval :     3077.29  3077.41  3077.46  3078.11  3079.47  3080.07
eigval :     3086.14  3086.16  3087.59  3087.94  3089.46  3090.15
eigval :     3095.24  3096.49  3098.73  3099.72  3435.53  3435.64

   temp. (K)  partition function   enthalpy   heat capacity  entropy
                                   cal/mol     cal/K/mol   cal/K/mol   J/K/mol
 298.15  VIB  0.386E+21            26685.240    169.273    165.189
         ROT  0.196E+09              888.752      2.981     40.926
         INT  0.758E+29            27573.993    172.254    206.115
         TR   0.178E+29             1481.254      4.968     45.484
         TOT                       29055.2466   177.2225   251.5990  1052.6902

       T/K    H(0)-H(T)+PV         H(T)/Eh          T*S/Eh         G(T)/Eh
   ------------------------------------------------------------------------
    298.15    0.463025E-01    0.791121E+00    0.119543E+00    0.671579E+00
   ------------------------------------------------------------------------

         :::::::::::::::::::::::::::::::::::::::::::::::::::::
         ::                  THERMODYNAMIC                  ::
         :::::::::::::::::::::::::::::::::::::::::::::::::::::
         :: total free energy        -138.607272675199 Eh   ::
         ::.................................................::
         :: total energy             -139.278851316857 Eh   ::
         :: zero point energy           0.744818963049 Eh   ::
         :: G(RRHO) w/o ZPVE           -0.073240321391 Eh   ::
         :: G(RRHO) contrib.            0.671578641658 Eh   ::
         :::::::::::::::::::::::::::::::::::::::::::::::::::::

           -------------------------------------------------
          | TOTAL ENERGY             -139.278851316857 Eh   |
          | TOTAL ENTHALPY           -138.487729871027 Eh   |
          | TOTAL FREE ENERGY        -138.607272675199 Eh   |
          | GRADIENT NORM               0.000045898652 Eh/α |
          | HOMO-LUMO GAP               1.455336498743 eV   |
           -------------------------------------------------

 * finished run on 2025/07/18 at 23:56:31.458
