   * xtb version 6.7.1 (edcfbbe) compiled by 'albert@albert-system' on 2024-07-22

   ID    Z sym.   atoms
    1    6 C      1-9, 11-23, 25-44, 46-50, 52-54
    2    7 N      10, 24, 45, 51
    3    1 H      55-94

          program call               : xtb data2507/toluene/NyDPAc/NyDPAc_toluene_T1_crest.xyz --gfn 2 --uhf 2 --gbsa toluene --ohess vtight --parallel 40 --molden --ceasefiles --namespace data2507/toluene/NyDPAc/NyDPAc_toluene_T1_finalOpt
      * Solvation model:               GBSA
        Solvent                        toluene
        Solvent mass                       9.2140E+01 g/mol
          :  Hamiltonian                  GFN2-xTB          :
 * total energy  :  -139.2167439 Eh     change       -0.1744897E-07 Eh
 * total energy  :  -139.2168455 Eh     change       -0.1015277E-03 Eh
 * total energy  :  -139.2168890 Eh     change       -0.4348156E-04 Eh
 * total energy  :  -139.2168961 Eh     change       -0.7165420E-05 Eh
 * total energy  :  -139.2169014 Eh     change       -0.5331178E-05 Eh
 * total energy  :  -139.2169046 Eh     change       -0.3174557E-05 Eh
 * total energy  :  -139.2169108 Eh     change       -0.6208400E-05 Eh
 * total energy  :  -139.2169134 Eh     change       -0.2609292E-05 Eh
 * total energy  :  -139.2169164 Eh     change       -0.2975440E-05 Eh
 * total energy  :  -139.2169218 Eh     change       -0.5336432E-05 Eh
 * total energy  :  -139.2169578 Eh     change       -0.7091880E-06 Eh
 * total energy  :  -139.2169584 Eh     change       -0.6150988E-06 Eh
 * total energy  :  -139.2169589 Eh     change       -0.4814740E-06 Eh
 * total energy  :  -139.2169593 Eh     change       -0.3860026E-06 Eh
 * total energy  :  -139.2169596 Eh     change       -0.3882723E-06 Eh
 * total energy  :  -139.2169601 Eh     change       -0.4292322E-06 Eh
 * total energy  :  -139.2169605 Eh     change       -0.4665901E-06 Eh
 * total energy  :  -139.2169610 Eh     change       -0.4562581E-06 Eh
 * total energy  :  -139.2169610 Eh     change       -0.2215558E-08 Eh
   *** GEOMETRY OPTIMIZATION CONVERGED AFTER 44 ITERATIONS ***

 final structure:
================
94
 xtb: 6.7.1 (edcfbbe)
C            8.10422654451297       -1.21742391938774       -1.10175123658631
C            8.97039914220330       -0.64841936932363        0.03724839665528
C            8.36255217326005       -1.01586016085212        1.40376668058688
C           10.33745777014989       -1.31463878885351       -0.04921730008158
C           10.45846676372299       -2.69493707901635        0.04496056681717
C           11.68744365943022       -3.32814372045816       -0.02659536618973
C           12.84258025738637       -2.58143081033428       -0.19717869371882
C           12.75407545766680       -1.20961086417681       -0.29456098862377
C           11.51126349987975       -0.57631151391836       -0.22226318406887
N           11.44489631152384        0.78826824518150       -0.32176710375458
C           10.27860158974193        1.51141730935518       -0.26608590577490
C           10.38274650728500        2.89838604529834       -0.38773795632861
C            9.25480350487505        3.68534241068309       -0.33982495259804
C            8.02586708034164        3.07905748874029       -0.16811335188114
C            7.90555721011407        1.69378708723327       -0.04452700241000
C            6.49770267125345        1.25622500354410        0.13740876640025
C            5.92554192726513        1.22373669317840        1.40738731897476
C            4.58855081622480        0.93267279568789        1.58093423713856
C            3.75801716435464        0.68053610785762        0.48241529922224
C            2.34484486755471        0.38099934633177        0.60480841914345
C            1.64788679540433        0.31808590220976        1.81708449393719
C            0.29925038312921        0.04603321079122        1.83910696492501
C           -0.40346082544067       -0.17717634379979        0.63368353159489
N           -1.68592352994337       -0.43206411467330        0.58956998368973
C           -2.36906294356384       -0.64612306608812       -0.55223388437608
C           -3.79111858230347       -0.89966172636858       -0.42922344974833
C           -4.37933562836022       -0.87911282761953        0.84410537799826
C           -5.72759623267321       -1.10066760625138        1.01335790676022
C           -6.55605477210866       -1.33468245673846       -0.08341524906108
C           -7.98750566068413       -1.67902082469441        0.11381427185644
C           -8.19087873344325       -3.04362319199579        0.32542466459836
C           -9.45341035243391       -3.56209851573647        0.53683486849321
C          -10.53117309853121       -2.70641803151936        0.53763367784901
C          -10.34393556932218       -1.33899240771650        0.32708381782148
C           -9.06794604902600       -0.78978493227714        0.10977790852469
C           -8.90980836146251        0.71395290638709       -0.11665520551690
C           -8.00489864101699        1.30274312914097        0.98161981717252
C           -8.28946277199377        0.95558052468376       -1.50541690012970
C          -10.23381171119531        1.46586240786005       -0.07000889623118
C          -10.27223072250030        2.84189116022583       -0.25410689243312
C          -11.46010631521979        3.55182986297394       -0.21759071099605
C          -12.65645013572646        2.88939642662616        0.00809992490388
C          -12.65006030622943        1.52400135929762        0.19426293797073
C          -11.44849954271315        0.81295263530558        0.15577595745662
N          -11.46382092346476       -0.54403199094358        0.34184738197052
C           -5.97171306665619       -1.40351054797080       -1.34619909587786
C           -4.62133705328748       -1.18125579042268       -1.52064661437133
C           -1.66923971576299       -0.60075079634409       -1.76350947242569
C           -0.31841998783229       -0.33834740570988       -1.78527933055455
C            0.38368242140616       -0.10687647961068       -0.58089070063898
N            1.66426012422965        0.15853221337890       -0.53703316578066
C            4.33420983711260        0.74960697786344       -0.79464905337203
C            5.66947311375066        1.04133924686651       -0.96323583260007
C            9.03785004041200        0.87329349097396       -0.09187271504159
H            7.07435663842566       -0.89281129434556       -1.00162287053351
H            8.48826109597672       -0.88259344588763       -2.06408507731363
H            8.11887698751961       -2.30344645895343       -1.08845279778071
H            8.91498533031314       -0.52215450607500        2.20177386723616
H            8.41178103601558       -2.08837451330134        1.56884763783896
H            7.32250639214048       -0.71317214919428        1.45572911100151
H            9.57704025901317       -3.30375309558461        0.17878155943230
H           11.74174342940078       -4.40367156383794        0.05092940862370
H           13.80520588460945       -3.06750889823886       -0.25330133341442
H           13.64276595677610       -0.60878920243445       -0.42788385179756
H           12.30708247483667        1.29866712446360       -0.44855725229658
H           11.35965892907191        3.34145975206152       -0.52007568892042
H            9.32925835605415        4.75823346573585       -0.43395290325777
H            7.12769648158232        3.67821286249219       -0.12681094818848
H            6.54147347521700        1.43702560451261        2.27020523002587
H            4.19011202778340        0.91205054708173        2.58379936943487
H            2.16916591509900        0.48825898112570        2.74544262669454
H           -0.24778859727141       -0.00027117261363        2.76798657188658
H           -3.74407142740091       -0.68811914836912        1.69615728941464
H           -6.15257607850049       -1.09607573177950        2.00760940737034
H           -7.33093962729293       -3.69765159715533        0.32247769534327
H           -9.59226232493834       -4.62036828849583        0.69902286854915
H          -11.53233375693465       -3.07968616050971        0.70076142884092
H           -6.99480300548621        0.91708202430559        0.89774500745442
H           -8.39925079463418        1.04913589601754        1.96437356009525
H           -7.96060732290226        2.38512587429742        0.90192259256182
H           -8.87594114993426        0.44640816580080       -2.26860004206506
H           -8.27477354250287        2.01633986310214       -1.73897244910828
H           -7.26994656281580        0.58761832723426       -1.54041220279901
H           -9.35691848673413        3.38606953594604       -0.43185279713013
H          -11.45077958866174        4.62141272232517       -0.36479330190777
H          -13.58728704378833        3.43587853121143        0.03800440657152
H          -13.57199413838707        0.98807671534089        0.37140901459443
H          -12.35450415900751       -0.99219670536558        0.50233080784193
H           -6.58846917869360       -1.63980116069300       -2.20238535469865
H           -4.21224278705093       -1.23812289489276       -2.51786616616249
H           -2.19182223362772       -0.76837363722153       -2.69168345071669
H            0.22918932717005       -0.29925780772952       -2.71417616690568
H            3.69874746451132        0.57765612129494       -1.65062083912649
H            6.08244900763427        1.11128521521985       -1.96011427875262

          :  Hamiltonian                  GFN2-xTB          :
         :: gradient norm              0.000052659554 Eh/a0 ::
         :: HOMO-LUMO gap              1.002470304196 eV    ::
         :: SCC energy              -141.738982664972 Eh    ::
         :: -> dispersion             -0.128955089693 Eh    ::
         :: -> Gsolv                  -0.057935676632 Eh    ::
         :: repulsion energy           2.522021662224 Eh    ::

    * Orbital Energies and Occupations

         #    Occupation            Energy/Eh            Energy/eV
      -------------------------------------------------------------
         1        2.0000           -0.6718093             -18.2809
       ...           ...                  ...                  ...
       119        2.0000           -0.4023420             -10.9483
       120        2.0000           -0.4006229             -10.9015
       121        2.0000           -0.3978085             -10.8249
       122        2.0000           -0.3976242             -10.8199
       123        2.0000           -0.3957257             -10.7682
       124        2.0000           -0.3931406             -10.6979
       125        2.0000           -0.3915169             -10.6537
       126        2.0000           -0.3889591             -10.5841
       127        2.0000           -0.3703039             -10.0765
       128        1.8622           -0.3529543              -9.6044
       129        1.8617           -0.3529501              -9.6043
       130        1.2762           -0.3502969              -9.5321
       131        1.0000           -0.2868508              -7.8056 (HOMO)
       132                         -0.2500107              -6.8031 (LUMO)
       133                         -0.2389323              -6.5017
       134                         -0.2293027              -6.2396
       135                         -0.2292858              -6.2392
       136                         -0.2239544              -6.0941
       137                         -0.2239236              -6.0933
       138                         -0.2228498              -6.0641
       139                         -0.2228331              -6.0636
       140                         -0.2167534              -5.8982
       141                         -0.2166501              -5.8953
       142                         -0.1930187              -5.2523
       ...                                ...                  ...
       256                          0.7146303              19.4461
      -------------------------------------------------------------
                  HL-Gap            0.0368401 Eh            1.0025 eV

     #   Z          covCN         q      C6AA      α(0)
     1   6 C        3.761    -0.107    22.592     6.776
     2   6 C        3.904     0.024    20.112     6.375
     3   6 C        3.761    -0.107    22.592     6.776
     4   6 C        2.980    -0.008    28.219     8.714
     5   6 C        2.927    -0.035    28.882     8.813
     6   6 C        2.918    -0.042    29.052     8.839
     7   6 C        2.918    -0.032    28.795     8.800
     8   6 C        2.924    -0.061    29.505     8.908
     9   6 C        2.920     0.065    26.547     8.449
    10   7 N        2.709    -0.125    23.726     7.234
    11   6 C        2.918     0.064    26.571     8.453
    12   6 C        2.928    -0.063    29.564     8.917
    13   6 C        2.914    -0.032    28.796     8.799
    14   6 C        2.938    -0.045    29.111     8.849
    15   6 C        2.978     0.007    27.848     8.656
    16   6 C        2.984     0.010    27.792     8.648
    17   6 C        2.922    -0.037    28.909     8.817
    18   6 C        2.921    -0.042    29.047     8.838
    19   6 C        2.975    -0.002    28.067     8.690
    20   6 C        2.928     0.068    26.468     8.437
    21   6 C        2.913    -0.047    29.158     8.855
    22   6 C        2.919    -0.063    29.573     8.918
    23   6 C        2.934     0.092    25.964     8.357
    24   7 N        1.852    -0.238    27.082     7.713
    25   6 C        2.928     0.068    26.468     8.437
    26   6 C        2.975    -0.002    28.067     8.690
    27   6 C        2.926    -0.036    28.892     8.815
    28   6 C        2.921    -0.036    28.892     8.815
    29   6 C        2.984     0.010    27.791     8.647
    30   6 C        2.978     0.007    27.848     8.656
    31   6 C        2.937    -0.045    29.111     8.849
    32   6 C        2.914    -0.032    28.796     8.799
    33   6 C        2.928    -0.063    29.564     8.917
    34   6 C        2.918     0.064    26.571     8.453
    35   6 C        2.970    -0.013    28.334     8.731
    36   6 C        3.904     0.024    20.113     6.375
    37   6 C        3.761    -0.107    22.591     6.776
    38   6 C        3.761    -0.107    22.593     6.776
    39   6 C        2.980    -0.008    28.219     8.714
    40   6 C        2.927    -0.035    28.882     8.813
    41   6 C        2.918    -0.042    29.052     8.839
    42   6 C        2.918    -0.032    28.795     8.800
    43   6 C        2.924    -0.061    29.505     8.908
    44   6 C        2.920     0.065    26.547     8.449
    45   7 N        2.709    -0.126    23.727     7.234
    46   6 C        2.921    -0.037    28.908     8.817
    47   6 C        2.921    -0.042    29.047     8.838
    48   6 C        2.913    -0.047    29.158     8.855
    49   6 C        2.919    -0.063    29.572     8.918
    50   6 C        2.934     0.092    25.964     8.357
    51   7 N        1.852    -0.238    27.084     7.713
    52   6 C        2.925    -0.036    28.891     8.815
    53   6 C        2.921    -0.036    28.895     8.815
    54   6 C        2.970    -0.013    28.333     8.731
    55   1 H        0.925     0.047     2.353     2.399
    56   1 H        0.925     0.031     2.573     2.508
    57   1 H        0.925     0.042     2.423     2.434
    58   1 H        0.925     0.031     2.572     2.508
    59   1 H        0.925     0.042     2.423     2.434
    60   1 H        0.925     0.047     2.353     2.399
    61   1 H        0.926     0.036     2.501     2.473
    62   1 H        0.926     0.031     2.571     2.507
    63   1 H        0.926     0.034     2.535     2.490
    64   1 H        0.926     0.030     2.579     2.512
    65   1 H        0.860     0.168     1.284     1.775
    66   1 H        0.926     0.031     2.570     2.507
    67   1 H        0.926     0.035     2.514     2.479
    68   1 H        0.926     0.029     2.607     2.525
    69   1 H        0.925     0.031     2.574     2.509
    70   1 H        0.926     0.027     2.626     2.534
    71   1 H        0.926     0.040     2.453     2.449
    72   1 H        0.926     0.038     2.472     2.459
    73   1 H        0.926     0.039     2.463     2.454
    74   1 H        0.925     0.031     2.571     2.508
    75   1 H        0.926     0.029     2.605     2.524
    76   1 H        0.926     0.035     2.514     2.479
    77   1 H        0.926     0.031     2.570     2.507
    78   1 H        0.925     0.047     2.356     2.400
    79   1 H        0.925     0.031     2.573     2.509
    80   1 H        0.925     0.042     2.424     2.435
    81   1 H        0.925     0.031     2.571     2.507
    82   1 H        0.925     0.042     2.423     2.434
    83   1 H        0.925     0.047     2.354     2.399
    84   1 H        0.926     0.036     2.502     2.473
    85   1 H        0.926     0.031     2.571     2.507
    86   1 H        0.926     0.034     2.535     2.490
    87   1 H        0.926     0.030     2.579     2.511
    88   1 H        0.860     0.168     1.284     1.775
    89   1 H        0.925     0.031     2.573     2.508
    90   1 H        0.926     0.027     2.626     2.534
    91   1 H        0.926     0.040     2.454     2.450
    92   1 H        0.926     0.038     2.472     2.459
    93   1 H        0.926     0.039     2.465     2.455
    94   1 H        0.925     0.031     2.571     2.507

molecular dipole:
                 x           y           z       tot (Debye)
 q only:        0.004       0.114      -0.013
   full:       -0.003       0.124      -0.003       0.316

 projected vibrational frequencies (cm⁻¹)
eigval :       -0.00    -0.00    -0.00     0.00     0.00     0.00
eigval :        4.14     6.88    12.60    17.85    22.56    25.56
eigval :       35.49    37.78    43.61    49.58    56.20    63.84
eigval :       69.80    79.72    98.74   102.21   103.75   108.71
eigval :      116.71   131.36   144.56   153.25   153.62   163.97
eigval :      180.86   190.05   206.99   214.64   222.54   223.75
eigval :      228.37   231.15   232.99   258.08   266.95   275.07
eigval :      287.63   302.90   313.02   320.37   322.73   328.15
eigval :      338.27   348.45   350.41   362.67   364.99   377.22
eigval :      378.53   383.68   384.82   396.25   397.68   415.65
eigval :      420.35   434.28   446.58   452.07   464.24   466.65
eigval :      489.94   508.71   509.24   511.68   511.87   512.33
eigval :      516.31   520.14   529.79   536.70   549.71   551.70
eigval :      551.88   553.23   566.25   574.15   574.53   579.54
eigval :      581.92   602.84   613.32   619.69   620.24   625.88
eigval :      634.31   639.97   674.49   677.84   690.72   691.57
eigval :      693.37   694.28   700.64   710.19   710.72   741.84
eigval :      752.23   752.73   770.55   775.14   775.89   792.60
eigval :      793.74   808.88   810.08   813.67   814.83   816.93
eigval :      836.05   845.97   855.80   857.07   861.51   862.38
eigval :      862.78   863.00   873.83   875.48   879.26   884.43
eigval :      913.61   914.57   916.00   917.11   917.79   918.24
eigval :      922.04   922.31   929.19   930.28   931.03   932.10
eigval :      941.03   942.08   960.21   962.97  1007.89  1008.39
eigval :     1010.57  1013.86  1072.50  1073.39  1074.68  1082.70
eigval :     1087.00  1088.28  1104.61  1105.42  1111.76  1119.26
eigval :     1121.01  1123.34  1137.81  1143.66  1144.41  1146.44
eigval :     1157.56  1158.22  1162.61  1163.47  1182.85  1183.19
eigval :     1192.58  1192.65  1196.81  1198.95  1204.38  1208.94
eigval :     1209.19  1220.96  1221.77  1228.37  1250.45  1251.91
eigval :     1256.87  1257.65  1261.26  1268.17  1271.84  1275.77
eigval :     1277.99  1278.90  1285.49  1291.28  1305.87  1311.24
eigval :     1314.72  1315.96  1320.83  1335.24  1335.43  1356.08
eigval :     1377.35  1383.51  1384.81  1388.58  1396.88  1398.40
eigval :     1403.72  1404.47  1410.88  1415.38  1416.94  1436.14
eigval :     1438.46  1447.34  1455.76  1465.02  1469.36  1474.06
eigval :     1482.97  1484.00  1484.26  1486.04  1490.10  1491.74
eigval :     1494.31  1496.27  1497.32  1498.66  1503.04  1504.19
eigval :     1505.23  1525.28  1536.63  1538.17  1566.44  1566.60
eigval :     1572.44  1572.77  1580.02  1582.48  1587.37  1589.75
eigval :     1591.31  1592.47  3018.78  3019.20  3021.17  3021.72
eigval :     3046.41  3047.43  3048.99  3049.76  3064.96  3065.10
eigval :     3065.80  3065.92  3066.33  3066.45  3068.17  3068.35
eigval :     3073.63  3073.73  3075.66  3075.76  3076.85  3076.99
eigval :     3078.13  3078.20  3080.78  3081.51  3083.31  3084.11
eigval :     3086.13  3086.37  3088.22  3088.99  3089.93  3090.44
eigval :     3093.17  3093.83  3095.97  3096.88  3419.33  3421.03

   temp. (K)  partition function   enthalpy   heat capacity  entropy
                                   cal/mol     cal/K/mol   cal/K/mol   J/K/mol
 298.15  VIB  0.299E+22            26927.989    170.318    167.752
         ROT  0.192E+09              888.752      2.981     40.889
         INT  0.576E+30            27816.741    173.299    208.641
         TR   0.178E+29             1481.254      4.968     45.484
         TOT                       29297.9952   178.2673   254.1253  1063.2602

       T/K    H(0)-H(T)+PV         H(T)/Eh          T*S/Eh         G(T)/Eh
   ------------------------------------------------------------------------
    298.15    0.466893E-01    0.788077E+00    0.120743E+00    0.667333E+00
   ------------------------------------------------------------------------

         :::::::::::::::::::::::::::::::::::::::::::::::::::::
         ::                  THERMODYNAMIC                  ::
         :::::::::::::::::::::::::::::::::::::::::::::::::::::
         :: total free energy        -138.549627596777 Eh   ::
         ::.................................................::
         :: total energy             -139.216961008090 Eh   ::
         :: zero point energy           0.741387213177 Eh   ::
         :: G(RRHO) w/o ZPVE           -0.074053801864 Eh   ::
         :: G(RRHO) contrib.            0.667333411313 Eh   ::
         :::::::::::::::::::::::::::::::::::::::::::::::::::::

           -------------------------------------------------
          | TOTAL ENERGY             -139.216961008090 Eh   |
          | TOTAL ENTHALPY           -138.428884467683 Eh   |
          | TOTAL FREE ENERGY        -138.549627596777 Eh   |
          | GRADIENT NORM               0.000048936562 Eh/α |
          | HOMO-LUMO GAP               1.002470223861 eV   |
           -------------------------------------------------

 * finished run on 2025/07/19 at 00:12:47.723
