   * xtb version 6.7.1 (edcfbbe) compiled by 'albert@albert-system' on 2024-07-22

   ID    Z sym.   atoms
    1    6 C      1-9, 11-23, 25-44, 46-50, 52-54
    2    7 N      10, 24, 45, 51
    3    1 H      55-94

          program call               : xtb data2507/toluene/NyDPAc/NyDPAc_toluene_S0_crest.xyz --gfn 2 --gbsa toluene --ohess vtight --parallel 40 --molden --ceasefiles --namespace data2507/toluene/NyDPAc/NyDPAc_toluene_S0_finalOpt
      * Solvation model:               GBSA
        Solvent                        toluene
        Solvent mass                       9.2140E+01 g/mol
          :  Hamiltonian                  GFN2-xTB          :
 * total energy  :  -139.2787294 Eh     change       -0.2505800E-08 Eh
 * total energy  :  -139.2787648 Eh     change       -0.3545992E-04 Eh
 * total energy  :  -139.2787750 Eh     change       -0.1013500E-04 Eh
 * total energy  :  -139.2787808 Eh     change       -0.5829078E-05 Eh
 * total energy  :  -139.2787880 Eh     change       -0.7188531E-05 Eh
 * total energy  :  -139.2787904 Eh     change       -0.2407157E-05 Eh
 * total energy  :  -139.2787917 Eh     change       -0.1337345E-05 Eh
 * total energy  :  -139.2787926 Eh     change       -0.8788080E-06 Eh
 * total energy  :  -139.2787932 Eh     change       -0.5677492E-06 Eh
 * total energy  :  -139.2787936 Eh     change       -0.4081375E-06 Eh
 * total energy  :  -139.2787947 Eh     change       -0.2271696E-06 Eh
 * total energy  :  -139.2787949 Eh     change       -0.2182439E-06 Eh
 * total energy  :  -139.2787951 Eh     change       -0.1822062E-06 Eh
 * total energy  :  -139.2787953 Eh     change       -0.1598687E-06 Eh
 * total energy  :  -139.2787954 Eh     change       -0.1769276E-06 Eh
 * total energy  :  -139.2787956 Eh     change       -0.2107010E-06 Eh
 * total energy  :  -139.2787959 Eh     change       -0.2458223E-06 Eh
 * total energy  :  -139.2787961 Eh     change       -0.2418614E-06 Eh
 * total energy  :  -139.2787961 Eh     change       -0.3494563E-08 Eh
   *** GEOMETRY OPTIMIZATION CONVERGED AFTER 22 ITERATIONS ***

 final structure:
================
94
 xtb: 6.7.1 (edcfbbe)
C            8.14162133057575       -1.59859486710806       -0.28225213521912
C            8.89543243491087       -0.57474519249345        0.58641692393533
C            8.12896200331821       -0.31878823793266        1.89704924164941
C           10.24108200721451       -1.18983086650381        0.95514998467956
C           10.30063892383668       -2.38752414655993        1.65571188327333
C           11.50542534378638       -2.97334859194479        2.00459605137611
C           12.69685798736926       -2.36117058371370        1.65396245925209
C           12.66838694847024       -1.17059323722397        0.95871362625374
C           11.45086522405214       -0.58610177360572        0.60858824931274
N           11.44622515400545        0.59719431146087       -0.08589833775264
C           10.30591477424406        1.25543181344731       -0.47950581143291
C           10.46830020405124        2.45130275734950       -1.17915368419117
C            9.36993853919397        3.16478081059740       -1.60370932470837
C            8.10945078440133        2.67764885984312       -1.32394318301038
C            7.93255040607228        1.48266709780211       -0.62478178097391
C            6.49873063116526        1.14701604621107       -0.42988583104675
C            5.79279792841684        1.67739278719679        0.64649201133437
C            4.43608957640751        1.45571358609756        0.78434254006570
C            3.74004806154333        0.71058906774154       -0.16656731022010
C            2.30016307247632        0.45071534957001       -0.05358046126074
C            1.64994389617757        0.42960644213575        1.20770954485594
C            0.30902987496912        0.18443968956106        1.27462826449137
C           -0.40576258742020       -0.04753862167088        0.07764170388516
N           -1.72633700164685       -0.28439139505924        0.11770572673204
C           -2.37510245976004       -0.50331174898831       -1.00671319734801
C           -3.81678576986872       -0.75268207518303       -0.89229209599969
C           -4.32763208184829       -1.27500060418418        0.29651379647507
C           -5.67817728652336       -1.52019142215315        0.43813014170253
C           -6.56608194730493       -1.22566647682035       -0.59400473218434
C           -8.00078164464022       -1.59534162533671       -0.48530694065736
C           -8.24461121459725       -2.90821471440330       -0.89164609101515
C           -9.51752670431686       -3.44076838134152       -0.87048980620700
C          -10.56110190220354       -2.65321804625463       -0.43881006914175
C          -10.33134666990703       -1.34009248696255       -0.02770820750142
C           -9.04399530057399       -0.77738045478846       -0.03917475478789
C           -8.83155429551381        0.66483755479900        0.42578093007120
C           -7.87927747365274        0.67353893401302        1.63571854339455
C           -8.23633175052739        1.49238941087864       -0.72832738676939
C          -10.12549807055106        1.34544631465309        0.85857663551379
C          -10.11426924785501        2.65929071384662        1.30858475103995
C          -11.27063430768564        3.30671938489204        1.70860213619232
C          -12.48369746273714        2.64056439846918        1.66608927275027
C          -12.52504427162113        1.33468568948279        1.22492938262288
C          -11.35592141935386        0.68748534534046        0.82397935960750
N          -11.41958167186898       -0.61308042696701        0.39132882246836
C           -6.05393238887535       -0.72820999390596       -1.78906829250426
C           -4.70155409519666       -0.48611523612935       -1.93604543079991
C           -1.71807198498122       -0.52047744972738       -2.26441910734076
C           -0.37544980290792       -0.28434904503559       -2.33045762490320
C            0.33434690569270       -0.02470371320927       -1.13610868733687
N            1.65345013787750        0.22000310203607       -1.17690778032965
C            4.43851352299198        0.22462929167342       -1.27256644195397
C            5.79441543101033        0.44461099878805       -1.40499825556182
C            9.03274147485630        0.74000099867337       -0.18412861977643
H            7.11087846235942       -1.29647459306626       -0.43235962397654
H            8.62755805670640       -1.69201167304039       -1.25220569403282
H            8.14102391898569       -2.57599501103688        0.19198622303873
H            8.60947263091969        0.48129227425083        2.45809217336288
H            8.12207970338871       -1.21107174955866        2.51676207943169
H            7.10048233873072       -0.03948130877275        1.69580851378056
H            9.38806634939037       -2.88808760373064        1.94398503400579
H           11.51188484203579       -3.90586130573778        2.54921121163810
H           13.64272311953181       -2.80887098178837        1.92175640362652
H           13.58809618196483       -0.67724493135135        0.67580173254175
H           12.33419522596924        1.01123028150970       -0.32629308018200
H           11.46863913102958        2.80755115788968       -1.38199281486991
H            9.49319706619232        4.09045926442224       -2.14578549442370
H            7.23371011607653        3.22190191350256       -1.64683449919165
H            6.31584211554597        2.27560915226718        1.37909071528609
H            3.91462070538440        1.89542557578143        1.62138277641235
H            2.22314658557855        0.58467122518282        2.10832441624586
H           -0.22419546554749        0.15564881448929        2.21343888735454
H           -3.64119446051397       -1.49361550861813        1.09994494669399
H           -6.05484106482236       -1.94873019781073        1.35598280706425
H           -7.41146094321925       -3.50874861526112       -1.22730801772536
H           -9.69253958271072       -4.45817898353220       -1.18715938501971
H          -11.56981283644613       -3.04128126327490       -0.41181995294109
H           -6.88784390513737        0.33757690342589        1.35211042920901
H           -8.26442165045880        0.01932201578157        2.41638365173564
H           -7.79138371143959        1.67575537804952        2.04574122330360
H           -7.22094887397329        1.17969283798084       -0.94572287071953
H           -8.84398483216125        1.37246367003221       -1.62393766113991
H           -8.21611526331217        2.54786176885507       -0.47194550780505
H           -9.18312820738297        3.20449832736742        1.35386627935637
H          -11.22241823208941        4.32939483102090        2.05222459212466
H          -13.39238540009097        3.13595674205306        1.97533740030014
H          -13.46263174635402        0.79746242045195        1.18564279367536
H          -12.32063090199970       -1.06652886946695        0.37760133969970
H           -6.72631274911300       -0.53054927563165       -2.61168414275831
H           -4.34077823507983       -0.06829548222225       -2.86404967338598
H           -2.27865792884719       -0.74507257291676       -3.15830833949482
H            0.16487226379729       -0.29468219346699       -3.26560912399924
H            3.89366886587511       -0.32629549804713       -2.02360740998871
H            6.31829937339249        0.07404603696490       -2.27450379294022

          :  Hamiltonian                  GFN2-xTB          :
         :: gradient norm              0.000044332913 Eh/a0 ::
         :: HOMO-LUMO gap              1.451419621818 eV    ::
         :: SCC energy              -141.801785475933 Eh    ::
         :: -> dispersion             -0.129086217247 Eh    ::
         :: -> Gsolv                  -0.056253845607 Eh    ::
         :: repulsion energy           2.522989340280 Eh    ::

    * Orbital Energies and Occupations

         #    Occupation            Energy/Eh            Energy/eV
      -------------------------------------------------------------
         1        2.0000           -0.6708895             -18.2558
       ...           ...                  ...                  ...
       118        2.0000           -0.4064762             -11.0608
       119        2.0000           -0.4018389             -10.9346
       120        2.0000           -0.4017512             -10.9322
       121        2.0000           -0.3963485             -10.7852
       122        2.0000           -0.3954452             -10.7606
       123        2.0000           -0.3951506             -10.7526
       124        2.0000           -0.3932575             -10.7011
       125        2.0000           -0.3898836             -10.6093
       126        2.0000           -0.3896677             -10.6034
       127        2.0000           -0.3831870             -10.4271
       128        2.0000           -0.3576761              -9.7329
       129        2.0000           -0.3466638              -9.4332
       130        2.0000           -0.3465551              -9.4302 (HOMO)
       131                         -0.2932164              -7.9788 (LUMO)
       132                         -0.2601908              -7.0802
       133                         -0.2448305              -6.6622
       134                         -0.2264844              -6.1630
       135                         -0.2264462              -6.1619
       136                         -0.2236166              -6.0849
       137                         -0.2235248              -6.0824
       138                         -0.2198798              -5.9832
       139                         -0.2198265              -5.9818
       140                         -0.2172714              -5.9123
       141                         -0.2170842              -5.9072
       ...                                ...                  ...
       256                          0.6881986              18.7268
      -------------------------------------------------------------
                  HL-Gap            0.0533387 Eh            1.4514 eV

     #   Z          covCN         q      C6AA      α(0)
     1   6 C        3.761    -0.107    22.585     6.775
     2   6 C        3.904     0.023    20.137     6.378
     3   6 C        3.761    -0.106    22.580     6.774
     4   6 C        2.980    -0.013    28.336     8.732
     5   6 C        2.928    -0.038    28.937     8.822
     6   6 C        2.918    -0.048    29.186     8.859
     7   6 C        2.919    -0.034    28.858     8.809
     8   6 C        2.925    -0.064    29.596     8.921
     9   6 C        2.920     0.064    26.571     8.453
    10   7 N        2.709    -0.143    24.095     7.290
    11   6 C        2.918     0.064    26.569     8.453
    12   6 C        2.929    -0.066    29.643     8.929
    13   6 C        2.915    -0.034    28.838     8.806
    14   6 C        2.938    -0.050    29.235     8.868
    15   6 C        2.979     0.004    27.935     8.670
    16   6 C        2.986     0.023    27.492     8.601
    17   6 C        2.923    -0.034    28.839     8.807
    18   6 C        2.921    -0.035    28.862     8.810
    19   6 C        2.980    -0.000    28.033     8.685
    20   6 C        2.952     0.100    25.782     8.328
    21   6 C        2.914    -0.048    29.181     8.858
    22   6 C        2.921    -0.028    28.702     8.785
    23   6 C        2.963     0.080    26.209     8.397
    24   7 N        1.848    -0.270    27.869     7.824
    25   6 C        2.952     0.100    25.782     8.328
    26   6 C        2.980    -0.000    28.030     8.685
    27   6 C        2.924    -0.028    28.691     8.784
    28   6 C        2.922    -0.033    28.812     8.802
    29   6 C        2.986     0.023    27.493     8.601
    30   6 C        2.979     0.004    27.935     8.670
    31   6 C        2.938    -0.050    29.238     8.868
    32   6 C        2.915    -0.034    28.840     8.806
    33   6 C        2.929    -0.066    29.644     8.929
    34   6 C        2.918     0.064    26.569     8.453
    35   6 C        2.970    -0.017    28.424     8.745
    36   6 C        3.904     0.023    20.136     6.378
    37   6 C        3.761    -0.106    22.581     6.774
    38   6 C        3.761    -0.106    22.582     6.774
    39   6 C        2.980    -0.013    28.334     8.732
    40   6 C        2.928    -0.038    28.936     8.822
    41   6 C        2.918    -0.048    29.184     8.859
    42   6 C        2.919    -0.034    28.859     8.809
    43   6 C        2.925    -0.064    29.596     8.922
    44   6 C        2.920     0.064    26.572     8.453
    45   7 N        2.709    -0.143    24.096     7.290
    46   6 C        2.923    -0.034    28.837     8.806
    47   6 C        2.921    -0.035    28.861     8.810
    48   6 C        2.914    -0.048    29.182     8.858
    49   6 C        2.921    -0.028    28.703     8.786
    50   6 C        2.963     0.080    26.208     8.397
    51   7 N        1.848    -0.271    27.880     7.826
    52   6 C        2.924    -0.028    28.695     8.785
    53   6 C        2.922    -0.032    28.809     8.802
    54   6 C        2.970    -0.017    28.427     8.746
    55   1 H        0.925     0.044     2.395     2.420
    56   1 H        0.925     0.030     2.592     2.518
    57   1 H        0.925     0.040     2.451     2.448
    58   1 H        0.925     0.030     2.593     2.518
    59   1 H        0.925     0.040     2.450     2.448
    60   1 H        0.925     0.044     2.400     2.423
    61   1 H        0.926     0.031     2.579     2.511
    62   1 H        0.926     0.025     2.665     2.553
    63   1 H        0.926     0.027     2.625     2.533
    64   1 H        0.925     0.024     2.675     2.558
    65   1 H        0.860     0.162     1.321     1.800
    66   1 H        0.926     0.026     2.650     2.546
    67   1 H        0.926     0.031     2.572     2.508
    68   1 H        0.926     0.025     2.663     2.552
    69   1 H        0.926     0.039     2.460     2.453
    70   1 H        0.926     0.036     2.499     2.472
    71   1 H        0.926     0.046     2.366     2.406
    72   1 H        0.926     0.051     2.310     2.377
    73   1 H        0.926     0.048     2.343     2.394
    74   1 H        0.926     0.040     2.448     2.447
    75   1 H        0.926     0.024     2.666     2.553
    76   1 H        0.926     0.031     2.573     2.509
    77   1 H        0.926     0.026     2.651     2.546
    78   1 H        0.925     0.044     2.391     2.418
    79   1 H        0.925     0.030     2.593     2.518
    80   1 H        0.925     0.040     2.450     2.448
    81   1 H        0.925     0.044     2.398     2.422
    82   1 H        0.925     0.029     2.595     2.519
    83   1 H        0.925     0.040     2.451     2.448
    84   1 H        0.926     0.031     2.578     2.511
    85   1 H        0.926     0.025     2.665     2.553
    86   1 H        0.926     0.027     2.625     2.534
    87   1 H        0.925     0.024     2.675     2.557
    88   1 H        0.860     0.162     1.321     1.800
    89   1 H        0.926     0.040     2.455     2.450
    90   1 H        0.926     0.036     2.498     2.472
    91   1 H        0.926     0.046     2.373     2.409
    92   1 H        0.926     0.050     2.315     2.379
    93   1 H        0.926     0.049     2.333     2.389
    94   1 H        0.926     0.040     2.444     2.445

molecular dipole:
                 x           y           z       tot (Debye)
 q only:        0.011      -0.069      -0.052
   full:        0.007      -0.061      -0.121       0.345

 projected vibrational frequencies (cm⁻¹)
eigval :       -0.00    -0.00     0.00     0.00     0.00     0.00
eigval :        6.70    10.49    15.65    21.12    27.19    33.22
eigval :       35.15    42.29    46.77    53.11    66.98    68.80
eigval :       72.47    82.49   101.31   102.90   104.26   113.81
eigval :      115.56   138.21   144.05   152.11   164.87   168.88
eigval :      180.24   191.97   206.81   217.09   220.82   224.83
eigval :      227.24   230.19   233.05   258.25   266.46   276.28
eigval :      291.18   302.85   315.30   321.66   323.43   331.23
eigval :      350.21   350.91   351.67   359.92   369.83   378.46
eigval :      381.33   384.00   387.47   390.34   398.74   417.79
eigval :      427.27   437.70   451.79   463.68   466.18   466.57
eigval :      477.16   485.04   491.61   514.85   516.19   522.58
eigval :      522.85   531.82   535.67   539.44   549.36   551.90
eigval :      552.45   559.87   572.83   578.95   581.42   587.27
eigval :      595.38   615.18   619.22   621.11   627.55   635.84
eigval :      643.36   668.89   679.32   689.24   691.38   700.80
eigval :      706.06   708.81   710.24   711.41   745.26   754.60
eigval :      760.03   774.05   776.13   793.84   796.50   803.36
eigval :      812.21   813.03   821.81   833.41   839.34   845.57
eigval :      857.31   859.53   860.08   862.75   865.09   874.93
eigval :      875.47   878.15   889.19   911.48   914.39   915.45
eigval :      918.42   918.96   920.67   922.54   923.39   923.70
eigval :      927.11   928.13   934.44   936.04   937.22   937.70
eigval :      943.42   947.43   961.11   961.30  1011.77  1011.99
eigval :     1012.91  1013.03  1074.10  1074.17  1084.81  1086.03
eigval :     1088.30  1088.44  1107.12  1107.70  1121.78  1122.16
eigval :     1127.36  1130.98  1143.03  1145.02  1145.85  1154.75
eigval :     1161.33  1161.73  1164.22  1164.61  1182.34  1182.74
eigval :     1193.09  1195.15  1197.01  1200.41  1202.15  1211.20
eigval :     1211.61  1222.74  1222.78  1252.56  1253.84  1258.01
eigval :     1258.39  1263.40  1267.94  1271.53  1274.43  1280.50
eigval :     1280.72  1291.12  1292.49  1303.56  1310.89  1317.11
eigval :     1317.85  1320.59  1331.21  1335.91  1336.03  1358.54
eigval :     1388.28  1389.05  1389.83  1393.92  1395.05  1399.02
eigval :     1399.07  1417.38  1417.39  1439.34  1441.34  1446.17
eigval :     1460.17  1463.41  1472.89  1477.48  1477.59  1487.68
eigval :     1487.78  1491.78  1492.84  1493.69  1494.59  1497.66
eigval :     1498.26  1501.64  1502.36  1506.52  1506.92  1516.33
eigval :     1554.21  1557.83  1572.05  1573.55  1575.64  1577.18
eigval :     1579.74  1579.77  1591.62  1591.80  1596.37  1597.39
eigval :     1598.31  1598.38  3018.96  3019.46  3021.55  3021.89
eigval :     3045.42  3045.56  3047.58  3047.92  3060.30  3061.34
eigval :     3063.63  3063.81  3070.33  3071.33  3071.54  3071.68
eigval :     3072.72  3073.40  3073.48  3074.69  3075.49  3075.54
eigval :     3076.74  3077.51  3077.80  3077.83  3079.68  3080.33
eigval :     3086.24  3086.92  3087.29  3087.90  3089.58  3090.00
eigval :     3096.08  3097.30  3099.68  3100.17  3435.54  3435.55

   temp. (K)  partition function   enthalpy   heat capacity  entropy
                                   cal/mol     cal/K/mol   cal/K/mol   J/K/mol
 298.15  VIB  0.254E+21            26630.679    169.365    164.637
         ROT  0.195E+09              888.752      2.981     40.919
         INT  0.496E+29            27519.431    172.346    205.556
         TR   0.178E+29             1481.254      4.968     45.484
         TOT                       29000.6854   177.3141   251.0401  1050.3519

       T/K    H(0)-H(T)+PV         H(T)/Eh          T*S/Eh         G(T)/Eh
   ------------------------------------------------------------------------
    298.15    0.462155E-01    0.791201E+00    0.119277E+00    0.671923E+00
   ------------------------------------------------------------------------

         :::::::::::::::::::::::::::::::::::::::::::::::::::::
         ::                  THERMODYNAMIC                  ::
         :::::::::::::::::::::::::::::::::::::::::::::::::::::
         :: total free energy        -138.606872674972 Eh   ::
         ::.................................................::
         :: total energy             -139.278796139097 Eh   ::
         :: zero point energy           0.744985196810 Eh   ::
         :: G(RRHO) w/o ZPVE           -0.073061732685 Eh   ::
         :: G(RRHO) contrib.            0.671923464125 Eh   ::
         :::::::::::::::::::::::::::::::::::::::::::::::::::::

           -------------------------------------------------
          | TOTAL ENERGY             -139.278796139097 Eh   |
          | TOTAL ENTHALPY           -138.487595408348 Eh   |
          | TOTAL FREE ENERGY        -138.606872674972 Eh   |
          | GRADIENT NORM               0.000044337935 Eh/α |
          | HOMO-LUMO GAP               1.451419490364 eV   |
           -------------------------------------------------

 * finished run on 2025/07/19 at 00:04:07.405
