   * xtb version 6.7.1 (edcfbbe) compiled by 'albert@albert-system' on 2024-07-22

   ID    Z sym.   atoms
    1    6 C      1-9, 11-23, 25-44, 46-50, 52-54
    2    7 N      10, 24, 45, 51
    3    1 H      55-94

          program call               : xtb data2507/toluene/NyDPAc/NyDPAc_toluene_S0_finalOpt.xtbopt.xyz --gfn 2 --uhf 2 --gbsa toluene --ohess vtight --parallel 40 --molden --ceasefiles --namespace data2507/toluene/NyDPAc/NyDPAc_toluene_T1_preOpt
      * Solvation model:               GBSA
        Solvent                        toluene
        Solvent mass                       9.2140E+01 g/mol
          :  Hamiltonian                  GFN2-xTB          :
 * total energy  :  -139.2101254 Eh     change       -0.2224121E-07 Eh
 * total energy  :  -139.2141898 Eh     change       -0.4064390E-02 Eh
 * total energy  :  -139.2156855 Eh     change       -0.1495682E-02 Eh
 * total energy  :  -139.2158957 Eh     change       -0.2102560E-03 Eh
 * total energy  :  -139.2160287 Eh     change       -0.1330060E-03 Eh
 * total energy  :  -139.2160686 Eh     change       -0.3983683E-04 Eh
 * total energy  :  -139.2161191 Eh     change       -0.5052142E-04 Eh
 * total energy  :  -139.2161576 Eh     change       -0.3854192E-04 Eh
 * total energy  :  -139.2161939 Eh     change       -0.3625532E-04 Eh
 * total energy  :  -139.2162236 Eh     change       -0.2973597E-04 Eh
 * total energy  :  -139.2165470 Eh     change       -0.5853046E-06 Eh
 * total energy  :  -139.2165474 Eh     change       -0.3903530E-06 Eh
 * total energy  :  -139.2165476 Eh     change       -0.2684927E-06 Eh
 * total energy  :  -139.2165479 Eh     change       -0.2336726E-06 Eh
 * total energy  :  -139.2165482 Eh     change       -0.2914673E-06 Eh
 * total energy  :  -139.2165485 Eh     change       -0.3129512E-06 Eh
 * total energy  :  -139.2165488 Eh     change       -0.3564746E-06 Eh
 * total energy  :  -139.2165492 Eh     change       -0.4005945E-06 Eh
 * total energy  :  -139.2165492 Eh     change       -0.2238522E-08 Eh
   *** GEOMETRY OPTIMIZATION CONVERGED AFTER 68 ITERATIONS ***

 final structure:
================
94
 xtb: 6.7.1 (edcfbbe)
C            8.12585786262755       -1.50820261289330       -0.38706371213876
C            8.89610989749320       -0.55595931325235        0.54641688547573
C            8.14147087616385       -0.38923403630716        1.87870443718914
C           10.23711577920389       -1.20636426296706        0.86105764873469
C           10.29245180803712       -2.45187931471935        1.47300824624970
C           11.49603995988423       -3.06347191424748        1.77926977577188
C           12.69151311244634       -2.43149332812608        1.47508189479427
C           12.66849770620896       -1.19626588582907        0.86460812755289
C           11.45108374851210       -0.58519736844935        0.55561030183819
N           11.44961640469677        0.64052894024832       -0.05589870213685
C           10.31362608805149        1.32820520804590       -0.40648951092854
C           10.48546966083685        2.56062191331817       -1.03966939200499
C            9.39113780923046        3.30438016307539       -1.41798795596001
C            8.12760562475646        2.81220762339570       -1.15556372893330
C            7.93958555773442        1.58323743927405       -0.52120119155999
C            6.50501212641464        1.24785934801046       -0.33034335570358
C            5.82706105672194        1.64920820856553        0.81874054721072
C            4.47406027843693        1.42219045051069        0.96222824829126
C            3.73773936923052        0.80412682177169       -0.05449054571990
C            2.31635722655414        0.53617020646329        0.06168314861797
C            1.62827877571705        0.49806054955904        1.27813579254658
C            0.28111071750527        0.21358135369757        1.31187541011217
C           -0.42418278626222       -0.03157075778606        0.11334511330209
N           -1.70601463562717       -0.29818015963008        0.08052302847818
C           -2.39564396565089       -0.50739092687212       -1.05719834397456
C           -3.81367324508089       -0.78648456141436       -0.92632238306547
C           -4.32520559751397       -1.16600908105975        0.32188656385332
C           -5.66568689686451       -1.43456345290526        0.49260821675323
C           -6.55996196219123       -1.30173904961297       -0.56804941132643
C           -7.98760488552624       -1.68442566421790       -0.41841655540630
C           -8.22679164202087       -3.01862479563576       -0.75165072323090
C           -9.49202748336784       -3.56724507661526       -0.67552415222385
C          -10.53624811038406       -2.77323444074346       -0.25970150440330
C          -10.31354754710170       -1.43603580421392        0.07440406452979
C           -9.03456281703379       -0.85622789243315        0.00159708668816
C           -8.83985607967034        0.61572558780442        0.36644936457418
C           -7.87351803784849        0.72410219218049        1.56112748140876
C           -8.27038199705208        1.36822625522324       -0.85024859959291
C          -10.13654958629320        1.30664746262876        0.76778168048227
C          -10.14307818001598        2.65227731681745        1.11142230805950
C          -11.30430629525407        3.30540280717407        1.48740910880315
C          -12.50508191611599        2.61453511474798        1.52992926371237
C          -12.53012948908494        1.27835775294791        1.19375080164053
C          -11.35554977916048        0.62503998628923        0.81363399184306
N          -11.40166439119751       -0.70269920979325        0.48002206444318
C           -6.05235838175452       -0.95736517637377       -1.81950094081594
C           -4.70933720202996       -0.69783187028064       -1.99770952537937
C           -1.70939178361433       -0.46342067747466       -2.27435918424001
C           -0.35542259685678       -0.21041780221565       -2.30621880703853
C            0.35378015499447        0.02675906546278       -1.10813798098498
N            1.63757836371331        0.28621821557899       -1.07426887220623
C            4.41327369448715        0.45967825416798       -1.23282067723421
C            5.76661888208538        0.68025856845458       -1.36774939158067
C            9.03692727152807        0.80593005631279       -0.13396275784728
H            7.11553094146719       -1.15057103757816       -0.55381671929895
H            8.63616538786936       -1.58240056057090       -1.34611256946308
H            8.06531235490676       -2.50285314246165        0.04523898624039
H            8.60734944543896        0.39355141596734        2.47510766886566
H            8.16645080416976       -1.31224482406682        2.45082040291227
H            7.10368127969303       -0.12900270177148        1.70293842800171
H            9.37834745451165       -2.96878965938503        1.72353180135632
H           11.49957890200167       -4.03215236164725        2.25612126835071
H           13.63452378127216       -2.90067784491461        1.71300548565007
H           13.58950151343472       -0.68692913739884        0.61781805619558
H           12.33983233540809        1.06463007348733       -0.27404573780580
H           11.48796785231979        2.91816826291551       -1.22804006790622
H            9.51776357553279        4.25671400255264       -1.91043806074953
H            7.25507084363348        3.38137292905948       -1.44182134367742
H            6.37068875457003        2.15414003471362        1.60513865240742
H            3.98103394608833        1.75378106771318        1.86377504942188
H            2.16299769209027        0.66831098855231        2.19918496699516
H           -0.26002028774217        0.17083391418011        2.24427349143138
H           -3.63843271604740       -1.25757574660110        1.15017598465415
H           -6.02964168577470       -1.75802707879533        1.45783804650311
H           -7.39254326069532       -3.62523466311119       -1.07308899098949
H           -9.65877900601971       -4.60121626344374       -0.93745360256392
H          -11.53841046407758       -3.17175860539676       -0.18805724315858
H           -6.86697224314952        0.44582932293844        1.26927862928033
H           -8.20274690181901        0.07033458370010        2.36718212134089
H           -7.84635995728717        1.74197587187783        1.93973026968855
H           -7.28561666613846        0.99407200343086       -1.10788993555230
H           -8.93057206988097        1.24402679564418       -1.70720062547882
H           -8.18314809127440        2.42983854519587       -0.63812963766609
H           -9.22322213319242        3.21695450648989        1.09043681777304
H          -11.27037308124716        4.35267092915492        1.74784804144344
H          -13.41501215107475        3.11622336749129        1.82363795427666
H          -13.45627316931301        0.72154368719887        1.21988129751256
H          -12.29553686108782       -1.17150182796607        0.51515435971738
H           -6.72675659273710       -0.88776410071561       -2.66195598356965
H           -4.35809711230811       -0.40933897206308       -2.97710964179785
H           -2.23964750043307       -0.65393523957453       -3.19408689925531
H            0.18808388971870       -0.18657213103242       -3.23800881663174
H            3.84751255790233        0.01215247974237       -2.03645788968342
H            6.26622562953352        0.41144062177025       -2.28833005003377

          :  Hamiltonian                  GFN2-xTB          :
         :: gradient norm              0.000102102882 Eh/a0 ::
         :: HOMO-LUMO gap              0.993679543040 eV    ::
         :: SCC energy              -141.738346230314 Eh    ::
         :: -> dispersion             -0.128955694124 Eh    ::
         :: -> Gsolv                  -0.058264073245 Eh    ::
         :: repulsion energy           2.521796983774 Eh    ::

    * Orbital Energies and Occupations

         #    Occupation            Energy/Eh            Energy/eV
      -------------------------------------------------------------
         1        2.0000           -0.6719336             -18.2842
       ...           ...                  ...                  ...
       119        2.0000           -0.4024596             -10.9515
       120        2.0000           -0.3997614             -10.8781
       121        2.0000           -0.3981400             -10.8339
       122        2.0000           -0.3976705             -10.8212
       123        2.0000           -0.3958346             -10.7712
       124        2.0000           -0.3933040             -10.7023
       125        2.0000           -0.3920723             -10.6688
       126        2.0000           -0.3886140             -10.5747
       127        2.0000           -0.3711852             -10.1005
       128        1.8607           -0.3530757              -9.6077
       129        1.8596           -0.3530669              -9.6074
       130        1.2796           -0.3504464              -9.5361
       131        1.0000           -0.2856788              -7.7737 (HOMO)
       132                         -0.2491619              -6.7800 (LUMO)
       133                         -0.2377271              -6.4689
       134                         -0.2294019              -6.2423
       135                         -0.2293864              -6.2419
       136                         -0.2240987              -6.0980
       137                         -0.2239538              -6.0941
       138                         -0.2229674              -6.0673
       139                         -0.2229118              -6.0657
       140                         -0.2172226              -5.9109
       141                         -0.2171625              -5.9093
       142                         -0.1932769              -5.2593
       ...                                ...                  ...
       256                          0.7114336              19.3591
      -------------------------------------------------------------
                  HL-Gap            0.0365169 Eh            0.9937 eV

     #   Z          covCN         q      C6AA      α(0)
     1   6 C        3.761    -0.107    22.584     6.775
     2   6 C        3.904     0.024    20.113     6.375
     3   6 C        3.761    -0.108    22.603     6.777
     4   6 C        2.980    -0.008    28.218     8.714
     5   6 C        2.927    -0.035    28.882     8.813
     6   6 C        2.918    -0.042    29.051     8.839
     7   6 C        2.918    -0.032    28.794     8.800
     8   6 C        2.924    -0.060    29.503     8.907
     9   6 C        2.920     0.065    26.547     8.449
    10   7 N        2.709    -0.125    23.723     7.234
    11   6 C        2.918     0.064    26.571     8.453
    12   6 C        2.928    -0.063    29.563     8.917
    13   6 C        2.914    -0.032    28.794     8.799
    14   6 C        2.937    -0.045    29.109     8.849
    15   6 C        2.978     0.007    27.848     8.656
    16   6 C        2.984     0.010    27.784     8.646
    17   6 C        2.922    -0.036    28.898     8.816
    18   6 C        2.921    -0.042    29.041     8.837
    19   6 C        2.975    -0.001    28.054     8.688
    20   6 C        2.929     0.069    26.451     8.434
    21   6 C        2.913    -0.048    29.183     8.858
    22   6 C        2.919    -0.064    29.594     8.921
    23   6 C        2.934     0.092    25.961     8.356
    24   7 N        1.852    -0.240    27.115     7.718
    25   6 C        2.929     0.069    26.455     8.435
    26   6 C        2.976    -0.001    28.054     8.688
    27   6 C        2.925    -0.035    28.875     8.812
    28   6 C        2.921    -0.036    28.890     8.814
    29   6 C        2.984     0.010    27.784     8.646
    30   6 C        2.978     0.007    27.848     8.656
    31   6 C        2.937    -0.045    29.111     8.849
    32   6 C        2.914    -0.032    28.795     8.799
    33   6 C        2.928    -0.063    29.563     8.917
    34   6 C        2.918     0.064    26.571     8.453
    35   6 C        2.970    -0.013    28.331     8.731
    36   6 C        3.904     0.024    20.112     6.375
    37   6 C        3.761    -0.107    22.598     6.777
    38   6 C        3.761    -0.107    22.587     6.775
    39   6 C        2.980    -0.008    28.216     8.713
    40   6 C        2.927    -0.035    28.882     8.813
    41   6 C        2.918    -0.042    29.050     8.838
    42   6 C        2.918    -0.032    28.794     8.799
    43   6 C        2.924    -0.060    29.503     8.907
    44   6 C        2.920     0.065    26.547     8.449
    45   7 N        2.709    -0.125    23.720     7.233
    46   6 C        2.922    -0.036    28.905     8.817
    47   6 C        2.921    -0.042    29.036     8.837
    48   6 C        2.913    -0.047    29.179     8.858
    49   6 C        2.919    -0.064    29.594     8.921
    50   6 C        2.934     0.092    25.962     8.356
    51   7 N        1.851    -0.240    27.130     7.720
    52   6 C        2.924    -0.035    28.872     8.812
    53   6 C        2.921    -0.036    28.894     8.815
    54   6 C        2.970    -0.013    28.333     8.731
    55   1 H        0.925     0.046     2.365     2.405
    56   1 H        0.925     0.031     2.572     2.508
    57   1 H        0.925     0.042     2.422     2.434
    58   1 H        0.925     0.031     2.569     2.506
    59   1 H        0.925     0.042     2.421     2.433
    60   1 H        0.925     0.048     2.346     2.395
    61   1 H        0.926     0.036     2.500     2.472
    62   1 H        0.926     0.031     2.570     2.507
    63   1 H        0.926     0.034     2.534     2.489
    64   1 H        0.926     0.031     2.578     2.511
    65   1 H        0.860     0.168     1.284     1.775
    66   1 H        0.926     0.031     2.569     2.506
    67   1 H        0.926     0.035     2.512     2.479
    68   1 H        0.926     0.029     2.603     2.523
    69   1 H        0.926     0.032     2.556     2.500
    70   1 H        0.926     0.028     2.618     2.530
    71   1 H        0.926     0.040     2.454     2.450
    72   1 H        0.926     0.038     2.473     2.459
    73   1 H        0.926     0.037     2.487     2.466
    74   1 H        0.926     0.033     2.550     2.497
    75   1 H        0.926     0.029     2.603     2.523
    76   1 H        0.926     0.035     2.512     2.478
    77   1 H        0.926     0.031     2.568     2.506
    78   1 H        0.925     0.048     2.342     2.393
    79   1 H        0.925     0.031     2.569     2.507
    80   1 H        0.925     0.042     2.423     2.434
    81   1 H        0.925     0.046     2.366     2.406
    82   1 H        0.925     0.031     2.572     2.508
    83   1 H        0.925     0.042     2.421     2.433
    84   1 H        0.926     0.036     2.499     2.472
    85   1 H        0.926     0.031     2.569     2.507
    86   1 H        0.926     0.034     2.534     2.489
    87   1 H        0.926     0.031     2.577     2.510
    88   1 H        0.860     0.168     1.283     1.775
    89   1 H        0.925     0.030     2.579     2.511
    90   1 H        0.926     0.027     2.625     2.534
    91   1 H        0.926     0.039     2.466     2.456
    92   1 H        0.926     0.038     2.481     2.463
    93   1 H        0.926     0.037     2.494     2.470
    94   1 H        0.925     0.031     2.575     2.509

molecular dipole:
                 x           y           z       tot (Debye)
 q only:        0.020      -0.032       0.398
   full:        0.016      -0.035       0.318       0.814

 projected vibrational frequencies (cm⁻¹)
eigval :       -0.00    -0.00    -0.00    -0.00     0.00     0.00
eigval :        5.05     7.26    14.11    19.24    27.28    30.15
eigval :       35.13    39.71    46.90    51.04    63.22    67.31
eigval :       69.91    82.49    99.53   101.55   103.46   112.34
eigval :      115.84   140.45   145.51   151.79   160.22   166.38
eigval :      180.34   194.13   207.29   214.68   219.45   225.21
eigval :      228.70   230.65   232.90   256.97   265.89   272.18
eigval :      288.77   300.35   312.41   320.28   322.57   328.03
eigval :      340.74   348.06   349.21   363.41   366.42   378.92
eigval :      380.95   383.46   384.99   395.71   398.19   411.61
eigval :      423.41   434.89   447.23   452.28   464.48   467.26
eigval :      487.49   502.08   502.24   507.07   511.19   511.66
eigval :      515.17   522.81   530.26   536.80   549.62   549.81
eigval :      550.62   553.79   566.33   574.33   576.91   579.28
eigval :      581.67   603.52   613.06   619.94   620.32   625.83
eigval :      634.45   640.26   674.72   678.49   689.96   691.09
eigval :      694.33   694.97   700.88   710.65   711.09   742.27
eigval :      751.56   753.40   770.53   774.45   777.10   793.77
eigval :      795.56   809.12   811.65   813.90   816.45   816.99
eigval :      839.72   850.08   855.91   857.18   862.83   863.91
eigval :      865.74   866.14   877.24   878.92   879.87   885.43
eigval :      914.61   914.93   917.08   918.32   919.21   920.34
eigval :      920.59   924.00   929.67   931.68   932.57   936.30
eigval :      941.71   941.93   961.68   962.52  1008.38  1009.12
eigval :     1012.27  1013.66  1073.01  1073.39  1076.98  1085.16
eigval :     1087.08  1088.22  1104.78  1104.92  1112.29  1119.94
eigval :     1121.36  1124.13  1136.04  1143.65  1144.05  1144.93
eigval :     1157.60  1157.86  1162.88  1163.66  1181.39  1181.82
eigval :     1190.45  1191.94  1196.44  1196.83  1205.59  1208.40
eigval :     1209.43  1221.31  1221.33  1227.43  1250.68  1252.59
eigval :     1257.38  1257.45  1262.38  1268.52  1270.46  1272.57
eigval :     1277.37  1278.74  1284.53  1291.69  1308.12  1310.88
eigval :     1314.30  1315.87  1321.23  1335.09  1335.40  1355.73
eigval :     1371.58  1383.56  1384.62  1388.50  1397.40  1397.81
eigval :     1402.67  1404.08  1409.35  1416.03  1416.26  1436.68
eigval :     1438.47  1448.33  1455.53  1464.83  1469.26  1473.82
eigval :     1482.96  1484.04  1485.18  1486.64  1490.58  1490.82
eigval :     1494.49  1496.60  1497.64  1497.99  1503.55  1503.82
eigval :     1504.32  1522.38  1537.30  1538.35  1566.36  1566.57
eigval :     1572.68  1572.71  1579.66  1582.42  1587.19  1589.84
eigval :     1591.03  1592.33  3020.13  3020.42  3022.34  3022.57
eigval :     3047.09  3047.17  3049.64  3049.72  3065.08  3065.70
eigval :     3065.96  3066.04  3066.42  3067.55  3068.32  3068.55
eigval :     3073.47  3073.51  3076.56  3076.85  3076.96  3077.46
eigval :     3078.03  3078.46  3079.92  3081.07  3083.36  3083.68
eigval :     3083.78  3084.48  3088.09  3088.59  3090.30  3090.58
eigval :     3093.22  3093.76  3094.06  3094.88  3418.45  3420.26

   temp. (K)  partition function   enthalpy   heat capacity  entropy
                                   cal/mol     cal/K/mol   cal/K/mol   J/K/mol
 298.15  VIB  0.935E+21            26861.786    170.653    166.673
         ROT  0.196E+09              888.752      2.981     40.925
         INT  0.183E+30            27750.538    173.634    207.599
         TR   0.178E+29             1481.254      4.968     45.484
         TOT                       29231.7924   178.6020   253.0829  1058.8989

       T/K    H(0)-H(T)+PV         H(T)/Eh          T*S/Eh         G(T)/Eh
   ------------------------------------------------------------------------
    298.15    0.465838E-01    0.788138E+00    0.120248E+00    0.667891E+00
   ------------------------------------------------------------------------

         :::::::::::::::::::::::::::::::::::::::::::::::::::::
         ::                  THERMODYNAMIC                  ::
         :::::::::::::::::::::::::::::::::::::::::::::::::::::
         :: total free energy        -138.548658714055 Eh   ::
         ::.................................................::
         :: total energy             -139.216549248488 Eh   ::
         :: zero point energy           0.741554560565 Eh   ::
         :: G(RRHO) w/o ZPVE           -0.073664026132 Eh   ::
         :: G(RRHO) contrib.            0.667890534433 Eh   ::
         :::::::::::::::::::::::::::::::::::::::::::::::::::::

           -------------------------------------------------
          | TOTAL ENERGY             -139.216549248488 Eh   |
          | TOTAL ENTHALPY           -138.428410861577 Eh   |
          | TOTAL FREE ENERGY        -138.548658714055 Eh   |
          | GRADIENT NORM               0.000101179387 Eh/α |
          | HOMO-LUMO GAP               0.993675556365 eV   |
           -------------------------------------------------

 * finished run on 2025/07/19 at 00:04:20.807
