   * xtb version 6.7.1 (edcfbbe) compiled by 'albert@albert-system' on 2024-07-22

   ID    Z sym.   atoms
    1    6 C      1-9, 11-24, 26-30, 32-45, 47, 48
    2    7 N      10, 25, 31, 46
    3    1 H      49-76

          program call               : xtb data2507/gas/24PQ-Cz/24PQ-Cz_gas_S0_finalOpt.xtbopt.xyz --gfn 2 --spinpol --tblite --uhf 2 --ohess vtight --parallel 40 --molden --ceasefiles --namespace data2507/gas/24PQ-Cz/24PQ-Cz_gas_T1_preOpt
 * total energy  :  -120.2014604 Eh     change       -0.3055034E-07 Eh
 * total energy  :  -120.2057586 Eh     change       -0.4298261E-02 Eh
 * total energy  :  -120.2074336 Eh     change       -0.1674934E-02 Eh
 * total energy  :  -120.2076055 Eh     change       -0.1719667E-03 Eh
 * total energy  :  -120.2077180 Eh     change       -0.1124412E-03 Eh
 * total energy  :  -120.2077615 Eh     change       -0.4354231E-04 Eh
 * total energy  :  -120.2078093 Eh     change       -0.4773733E-04 Eh
 * total energy  :  -120.2078566 Eh     change       -0.4729483E-04 Eh
 * total energy  :  -120.2078866 Eh     change       -0.3005964E-04 Eh
 * total energy  :  -120.2079051 Eh     change       -0.1844125E-04 Eh
 * total energy  :  -120.2082939 Eh     change       -0.3927233E-06 Eh
 * total energy  :  -120.2082943 Eh     change       -0.3947618E-06 Eh
 * total energy  :  -120.2082947 Eh     change       -0.4523817E-06 Eh
 * total energy  :  -120.2082953 Eh     change       -0.5731505E-06 Eh
 * total energy  :  -120.2082958 Eh     change       -0.5350321E-06 Eh
 * total energy  :  -120.2082962 Eh     change       -0.4016327E-06 Eh
 * total energy  :  -120.2082968 Eh     change       -0.5150217E-06 Eh
 * total energy  :  -120.2082968 Eh     change        0.1225834E-07 Eh
 * total energy  :  -120.2082968 Eh     change       -0.2295170E-07 Eh
   *** GEOMETRY OPTIMIZATION CONVERGED AFTER 69 ITERATIONS ***

 final structure:
================
76
 xtb: 6.7.1 (edcfbbe)
C            0.92948811148181       -6.50585869012790       -0.31737435107243
C            2.17237588310247       -5.91604707081020       -0.46555826462722
C            2.29543506576060       -4.53287130614503       -0.43845494522484
C            1.18177441482137       -3.72689171453326       -0.24756844322535
C            1.16540443011251       -2.28098354379047       -0.18557316752162
C            2.34574521210317       -1.45180139519156       -0.08305602226833
C            2.31984766125519       -0.16043260819648       -0.63504634871673
C            3.41336354810580        0.66850252982057       -0.55610946913545
C            4.56920985211342        0.24651224171895        0.10212951188892
N            5.68978633747729        1.08401712153936        0.18075128090581
C            6.98369171252578        0.72860063196794       -0.13861334356768
C            7.47262351079717       -0.47061829797751       -0.63853715202646
C            8.82685889107641       -0.55644517098651       -0.89888008981392
C            9.67969464386841        0.52279666474104       -0.67814932422933
C            9.19532951731466        1.72648368244660       -0.20337702098601
C            7.83847488309790        1.83720014378373        0.06578680250512
C            7.00702483067965        2.91014598283559        0.53679517619536
C            7.26192690440654        4.21985950981019        0.91807092774559
C            6.20778278317531        4.99884458410425        1.35494796962905
C            4.91634059766304        4.48160153632157        1.42861737281874
C            4.63742676719109        3.18094057244544        1.05477512389992
C            5.68811476121097        2.40087857015380        0.59118161079642
C            4.59179044747261       -1.01555630792880        0.69473793440174
C            3.50017118360707       -1.84995303750222        0.60491103467839
N            0.00054238941491       -1.64519875945146       -0.20862889056143
C           -1.16902265848152       -2.23942196484801       -0.16000827592578
C           -2.38785272758131       -1.46711701593088       -0.14732921253900
C           -2.34695340690639       -0.06905159510009       -0.15482203014083
C           -3.51070183359175        0.66474205132113       -0.13316035326517
C           -4.74771732502005        0.01802750832315       -0.11064754965771
N           -5.93255205283400        0.76296878310985       -0.08817510985887
C           -6.98185798984125        0.58247207229596        0.79081193887217
C           -7.10117967556853       -0.30027689343762        1.85525424966431
C           -8.26288545512760       -0.25604801061526        2.60228806318080
C           -9.28186842573031        0.64773797215845        2.31021108518721
C           -9.15779986589384        1.54618851753272        1.26826307300493
C           -8.00009178887146        1.52082152126235        0.50322123288079
C           -7.53386323135805        2.29958041350514       -0.61070731129888
C           -8.08388562813943        3.34168489966103       -1.34392266908615
C           -7.35887161947560        3.86402042028768       -2.39739465296122
C           -6.10838843543484        3.34924863523684       -2.73162549789893
C           -5.54003504743462        2.31215559408568       -2.01670900885593
C           -6.25272900467921        1.79997656807748       -0.94143928008155
C           -4.79567375662564       -1.37659917085701       -0.10737603283341
C           -3.63032038221901       -2.10860607750755       -0.12107273712505
N           -1.21810479858013       -3.57771605704595       -0.13055513087890
C           -0.11179710973996       -4.33153293138963       -0.17812704746285
C           -0.20668636673567       -5.72593268661092       -0.19119500018593
H            0.83695932437685       -7.58169124975301       -0.32294073772071
H            3.05073545438608       -6.52604846382397       -0.61233046500989
H            3.26093681930573       -4.08172083450732       -0.60621712064616
H            1.42862724428125        0.16172612625489       -1.15158075335315
H            3.39355171246666        1.64275048908811       -1.02182464893883
H            6.81587277049190       -1.30586040261254       -0.82898772715922
H            9.23271168252039       -1.47955378629892       -1.28559959909145
H           10.73274510835663        0.41515949389995       -0.89138405313200
H            9.85440224884291        2.56717327318852       -0.04755099936750
H            8.26521459298061        4.61627017997760        0.87675001968286
H            6.38451426085443        6.02125187951210        1.65400099976343
H            4.11580053047707        5.11000521408616        1.79002614447037
H            3.63737062892340        2.78254679718211        1.13352981908701
H            5.46505966806328       -1.32350415925964        1.25099535243595
H            3.51846903942876       -2.79727450986952        1.12142587832198
H           -1.38531505292594        0.42114539709119       -0.16220971507933
H           -3.47752874118389        1.74394368206315       -0.11194274474825
H           -6.30902846386331       -0.99097272846115        2.10129827494133
H           -8.38145348281485       -0.93492203087674        3.43378455803082
H          -10.17571783635400        0.64900010304164        2.91600363405653
H           -9.94034201596759        2.25791786370978        1.05273413598907
H           -9.06019495346705        3.72958037054513       -1.09543679861027
H           -7.76771951049165        4.67662844974335       -2.97917802280985
H           -5.57257932110310        3.76723526322416       -3.57100679046869
H           -4.57903096169036        1.90717900206282       -2.29523139199872
H           -5.75459315396306       -1.87315770455667       -0.11307735756510
H           -3.65457509589163       -3.18772474721872       -0.12314547216576
H           -1.18384859210461       -6.17274057378661       -0.09825427855332

 projected vibrational frequencies (cm⁻¹)
eigval :       -0.00    -0.00    -0.00    -0.00     0.00     0.00
eigval :        9.86    11.54    11.85    23.47    26.93    35.19
eigval :       51.22    60.73    62.57    77.83    80.98    94.69
eigval :      104.07   105.11   124.08   129.33   140.41   145.34
eigval :      148.97   170.76   185.73   217.90   225.84   234.97
eigval :      239.29   250.45   271.19   271.29   287.26   307.40
eigval :      328.74   343.07   373.80   381.44   383.29   386.82
eigval :      388.81   394.67   401.87   407.23   416.72   423.39
eigval :      425.65   437.30   440.50   467.76   470.99   478.43
eigval :      500.88   517.31   517.61   535.25   535.55   539.40
eigval :      539.84   546.53   552.68   559.03   577.43   582.36
eigval :      589.15   595.54   597.59   600.28   616.19   618.68
eigval :      640.08   673.91   674.16   675.40   685.73   687.56
eigval :      693.34   708.33   709.50   723.45   748.04   756.73
eigval :      757.74   759.21   769.01   769.49   779.35   779.98
eigval :      812.98   821.04   826.24   829.20   846.42   862.09
eigval :      863.70   871.68   872.75   873.00   875.78   887.32
eigval :      897.45   897.46   901.97   902.25   902.48   902.95
eigval :      904.43   907.71   917.01   917.62   919.96   920.91
eigval :      924.80   925.36   930.69   936.12   937.93   954.10
eigval :     1011.10  1011.75  1011.85  1015.26  1069.24  1069.86
eigval :     1072.48  1073.25  1084.02  1111.98  1116.05  1116.66
eigval :     1121.50  1124.64  1137.02  1149.25  1150.09  1160.97
eigval :     1172.56  1175.02  1176.09  1177.52  1180.29  1180.47
eigval :     1183.51  1196.65  1203.32  1220.36  1234.81  1234.97
eigval :     1238.06  1242.53  1242.82  1256.66  1264.50  1281.61
eigval :     1294.90  1297.08  1297.64  1297.77  1302.16  1320.65
eigval :     1325.81  1332.98  1354.31  1355.39  1356.31  1356.91
eigval :     1361.67  1366.43  1380.18  1391.34  1408.83  1413.33
eigval :     1414.89  1421.34  1423.21  1427.35  1431.65  1457.28
eigval :     1469.74  1471.27  1475.94  1486.56  1486.77  1490.56
eigval :     1520.66  1526.73  1542.29  1543.84  1570.07  1571.69
eigval :     1576.10  1582.46  1585.44  1586.76  1589.90  1592.16
eigval :     1607.39  1609.48  3077.75  3077.98  3078.18  3078.41
eigval :     3079.29  3081.47  3082.95  3082.99  3083.31  3084.26
eigval :     3084.68  3085.36  3086.52  3087.48  3090.31  3090.61
eigval :     3092.07  3092.28  3095.62  3096.15  3096.32  3096.91
eigval :     3097.13  3097.21  3097.51  3097.88  3098.46  3103.29

   temp. (K)  partition function   enthalpy   heat capacity  entropy
                                   cal/mol     cal/K/mol   cal/K/mol   J/K/mol
 298.15  VIB  0.197E+17            21226.466    138.242    130.906
         ROT  0.127E+09              888.752      2.981     40.060
         INT  0.250E+25            22115.218    141.223    170.966
         TR   0.147E+29             1481.254      4.968     45.101
         TOT                       23596.4722   146.1912   216.0669   904.0240

       T/K    H(0)-H(T)+PV         H(T)/Eh          T*S/Eh         G(T)/Eh
   ------------------------------------------------------------------------
    298.15    0.376034E-01    0.613863E+00    0.102660E+00    0.511203E+00
   ------------------------------------------------------------------------

         :::::::::::::::::::::::::::::::::::::::::::::::::::::
         ::                  THERMODYNAMIC                  ::
         :::::::::::::::::::::::::::::::::::::::::::::::::::::
         :: total free energy        -119.697094156693 Eh   ::
         ::.................................................::
         :: total energy             -120.208296776721 Eh   ::
         :: zero point energy           0.576259618702 Eh   ::
         :: G(RRHO) w/o ZPVE           -0.065056998673 Eh   ::
         :: G(RRHO) contrib.            0.511202620028 Eh   ::
         :::::::::::::::::::::::::::::::::::::::::::::::::::::

           -------------------------------------------------
          | TOTAL ENERGY             -120.208296776721 Eh   |
          | TOTAL ENTHALPY           -119.594433785942 Eh   |
          | TOTAL FREE ENERGY        -119.697094156693 Eh   |
          | GRADIENT NORM               0.000093022840 Eh/α |
           -------------------------------------------------

 * finished run on 2025/08/26 at 01:55:52.515
