   * xtb version 6.7.1 (edcfbbe) compiled by 'albert@albert-system' on 2024-07-22

   ID    Z sym.   atoms
    1    6 C      1-9, 11-24, 26-30, 32-45, 47, 48
    2    7 N      10, 25, 31, 46
    3    1 H      49-76

          program call               : xtb data2507/gas/24PQ-Cz/24PQ-Cz_gas_T1_crest.xyz --gfn 2 --spinpol --tblite --uhf 2 --ohess vtight --parallel 40 --molden --ceasefiles --namespace data2507/gas/24PQ-Cz/24PQ-Cz_gas_T1_finalOpt
 * total energy  :  -120.2081384 Eh     change       -0.3268399E-07 Eh
 * total energy  :  -120.2082149 Eh     change       -0.7657878E-04 Eh
 * total energy  :  -120.2082531 Eh     change       -0.3811831E-04 Eh
 * total energy  :  -120.2082576 Eh     change       -0.4521487E-05 Eh
 * total energy  :  -120.2082622 Eh     change       -0.4622700E-05 Eh
 * total energy  :  -120.2082659 Eh     change       -0.3694929E-05 Eh
 * total energy  :  -120.2082701 Eh     change       -0.4218119E-05 Eh
 * total energy  :  -120.2082740 Eh     change       -0.3867010E-05 Eh
 * total energy  :  -120.2082773 Eh     change       -0.3344048E-05 Eh
 * total energy  :  -120.2082799 Eh     change       -0.2568155E-05 Eh
 * total energy  :  -120.2082966 Eh     change       -0.3424960E-06 Eh
 * total energy  :  -120.2082970 Eh     change       -0.3507218E-06 Eh
 * total energy  :  -120.2082972 Eh     change       -0.2755984E-06 Eh
 * total energy  :  -120.2082975 Eh     change       -0.2186475E-06 Eh
 * total energy  :  -120.2082977 Eh     change       -0.2043320E-06 Eh
 * total energy  :  -120.2082979 Eh     change       -0.2040562E-06 Eh
 * total energy  :  -120.2082981 Eh     change       -0.2285834E-06 Eh
 * total energy  :  -120.2082982 Eh     change       -0.1329078E-06 Eh
 * total energy  :  -120.2082983 Eh     change       -0.9532107E-07 Eh
   *** GEOMETRY OPTIMIZATION CONVERGED AFTER 38 ITERATIONS ***

 final structure:
================
76
 xtb: 6.7.1 (edcfbbe)
C            0.95435123496653       -6.50580336098244       -0.20296471189941
C            2.19122312579683       -5.91196434327604       -0.38232000965502
C            2.30754784675834       -4.52797957582255       -0.37646940342541
C            1.19348516359816       -3.72489884570491       -0.17590769588528
C            1.17116942501423       -2.27832872447375       -0.12963325677117
C            2.34810178856844       -1.44263243079382       -0.04837394675982
C            2.30560021549630       -0.15193944088957       -0.60150359970944
C            3.39547074982024        0.68329887586635       -0.54229761613992
C            4.56539063363124        0.26807800088171        0.09507487194025
N            5.68282252409954        1.11164303733158        0.15252647697955
C            6.97158571560106        0.76458536000450       -0.19499269838447
C            7.45638449737418       -0.43038801397637       -0.70890026107888
C            8.80525317601751       -0.50779144463694       -0.99809943187438
C            9.65653693328508        0.57554884256281       -0.79187164614887
C            9.17578405635063        1.77492611243500       -0.30261825505468
C            7.82436875008170        1.87723460479337       -0.00445441359727
C            6.99707775582680        2.94364116616288        0.48838572580961
C            7.25242945518881        4.25305806640333        0.87030767677032
C            6.20326543738822        5.02381719913415        1.33313627143026
C            4.91653347516602        4.49893241536713        1.43133705739442
C            4.63715752926673        3.19851507439859        1.05707953260612
C            5.68245878974878        2.42667089253274        0.56826181752504
C            4.60542837868969       -0.99300367856238        0.68872253012784
C            3.51661508415144       -1.83297741212579        0.62033151160978
N            0.00259391435250       -1.64891190173262       -0.14740176022575
C           -1.16325369030450       -2.24817717119400       -0.07816781154121
C           -2.38578594893412       -1.48139220698949       -0.07208027513075
C           -2.35058172154413       -0.08352626444256       -0.10293787363266
C           -3.51734354881492        0.64565091189406       -0.09699963015256
C           -4.75180618363919       -0.00568196339743       -0.06757135919534
N           -5.93915775647700        0.73561812843892       -0.06928314070696
C           -6.99577749693420        0.57141593330471        0.80403412123903
C           -7.12245687908073       -0.28829765701212        1.88630428244239
C           -8.29095435048681       -0.23095672472181        2.62178763853757
C           -9.30954904308151        0.66348093563935        2.30098582944806
C           -9.17845595011759        1.53928430572153        1.24078970583592
C           -8.01384849283757        1.50043229668297        0.48686149942855
C           -7.53987766548681        2.25575621605349       -0.63987941928766
C           -8.08598610882129        3.27992517414072       -1.40084595482763
C           -7.35307237212202        3.78065410947154       -2.45931569276041
C           -6.09857252819261        3.26174112992760       -2.77133758106396
C           -5.53400582340107        2.24228722188832       -2.02862656777059
C           -6.25466990426342        1.75249585886962       -0.94825622893712
C           -4.79406126944042       -1.40009695295266       -0.03666685902913
C           -3.62555520046736       -2.12739411520798       -0.03435132108385
N           -1.20531026433814       -3.58596022816480       -0.02681447213074
C           -0.09574710884336       -4.33484888383179       -0.07807322310072
C           -0.18354900500056       -5.72977673767135       -0.06894191567614
H            0.86752092622520       -7.58204959665149       -0.19074148986620
H            3.06994754353325       -6.51954293366931       -0.53675535554641
H            3.26738718096690       -4.07458657879882       -0.56876992711631
H            1.40367194737990        0.16461461271518       -1.10268063642349
H            3.36181529931007        1.65739556309838       -1.00759756420592
H            6.80022966810301       -1.26868634382337       -0.88772282212168
H            9.20801986320346       -1.42737114205775       -1.39629286845298
H           10.70539651503356        0.47455045170114       -1.02780857377862
H            9.83345561763235        2.61867496365069       -0.15778725489146
H            8.25231664961355        4.65555122188022        0.80979303878131
H            6.38051469904649        6.04574574587016        1.63351186555527
H            4.12028479699486        5.12103099971866        1.81259612810444
H            3.64125272045169        2.79382161817706        1.15440055001056
H            5.49053516305352       -1.29565144076534        1.22898628471921
H            3.54902137164706       -2.77868587701574        1.13901013305421
H           -1.39096497810712        0.41043982298951       -0.11732662763287
H           -3.48876793897720        1.72518975817070       -0.09512421904040
H           -6.33082199010487       -0.97138412725019        2.15428304008130
H           -8.41533961797587       -0.89188089831496        3.46679215382775
H          -10.20882058925477        0.67551145728116        2.89857687850842
H           -9.96090806864776        2.24388164113351        1.00269430639220
H           -9.06534209611965        3.67073767745831       -1.16955973404162
H           -7.75872516007149        4.57914602946535       -3.06248021907940
H           -5.55653428836616        3.66218545452315       -3.61525952320977
H           -4.56979421629283        1.83349526826520       -2.28994812825753
H           -5.75086281108358       -1.90075553972805       -0.03507340778195
H           -3.64547784051281       -3.20644902175233       -0.01657960793223
H           -1.15665143319925       -6.18005226701295        0.04696110895544

 projected vibrational frequencies (cm⁻¹)
eigval :       -0.00    -0.00    -0.00    -0.00    -0.00     0.00
eigval :        9.98    11.50    11.85    23.33    26.91    35.15
eigval :       51.26    60.65    62.39    77.73    80.94    94.53
eigval :      104.03   105.11   124.35   129.43   140.37   145.15
eigval :      148.77   170.90   185.56   218.01   225.66   234.68
eigval :      239.60   250.35   271.15   271.30   287.04   307.54
eigval :      328.74   342.92   373.54   381.61   383.55   386.81
eigval :      388.76   394.67   401.86   407.24   416.75   423.33
eigval :      425.60   437.22   440.57   467.98   471.27   478.31
eigval :      501.03   517.33   517.61   535.25   535.55   539.40
eigval :      539.87   546.61   552.77   559.09   577.45   582.39
eigval :      589.29   595.61   597.46   600.45   616.32   618.63
eigval :      640.35   673.89   674.16   675.29   685.84   687.53
eigval :      693.40   708.35   709.48   723.55   747.78   756.62
eigval :      757.79   759.32   769.04   769.56   779.36   780.06
eigval :      812.84   821.11   826.54   829.92   846.34   862.08
eigval :      863.70   871.65   872.66   873.05   875.84   887.47
eigval :      897.42   897.46   901.98   902.29   902.54   903.02
eigval :      904.49   907.75   917.03   917.69   920.04   920.97
eigval :      924.71   925.45   930.74   935.88   938.05   954.21
eigval :     1010.97  1011.65  1011.77  1014.75  1069.07  1069.73
eigval :     1072.28  1073.12  1083.95  1111.90  1115.95  1116.85
eigval :     1121.60  1124.70  1137.09  1149.13  1150.12  1160.83
eigval :     1172.97  1175.06  1176.20  1177.61  1180.43  1180.59
eigval :     1183.72  1196.35  1203.18  1220.19  1234.82  1235.01
eigval :     1239.28  1242.70  1242.79  1257.09  1264.53  1281.32
eigval :     1295.09  1297.21  1297.79  1297.86  1302.20  1320.74
eigval :     1325.75  1332.84  1354.53  1355.35  1356.41  1356.94
eigval :     1361.72  1366.57  1380.53  1391.15  1408.93  1413.44
eigval :     1414.84  1421.41  1423.38  1427.55  1431.68  1457.54
eigval :     1469.84  1471.31  1475.97  1486.75  1486.88  1490.67
eigval :     1520.75  1526.48  1542.26  1543.97  1569.99  1571.68
eigval :     1576.08  1582.52  1585.44  1586.82  1589.76  1592.24
eigval :     1607.41  1609.29  3077.90  3078.19  3078.32  3078.58
eigval :     3079.50  3081.53  3083.06  3083.17  3083.33  3084.45
eigval :     3084.78  3085.55  3086.80  3087.68  3090.45  3090.87
eigval :     3092.19  3092.53  3096.02  3096.32  3096.52  3096.85
eigval :     3097.40  3097.46  3097.74  3098.08  3098.74  3103.59

   temp. (K)  partition function   enthalpy   heat capacity  entropy
                                   cal/mol     cal/K/mol   cal/K/mol   J/K/mol
 298.15  VIB  0.198E+17            21226.867    138.231    130.910
         ROT  0.127E+09              888.752      2.981     40.060
         INT  0.251E+25            22115.619    141.212    170.971
         TR   0.147E+29             1481.254      4.968     45.101
         TOT                       23596.8729   146.1801   216.0714   904.0429

       T/K    H(0)-H(T)+PV         H(T)/Eh          T*S/Eh         G(T)/Eh
   ------------------------------------------------------------------------
    298.15    0.376040E-01    0.613887E+00    0.102663E+00    0.511224E+00
   ------------------------------------------------------------------------

         :::::::::::::::::::::::::::::::::::::::::::::::::::::
         ::                  THERMODYNAMIC                  ::
         :::::::::::::::::::::::::::::::::::::::::::::::::::::
         :: total free energy        -119.697074257883 Eh   ::
         ::.................................................::
         :: total energy             -120.208298357617 Eh   ::
         :: zero point energy           0.576282602559 Eh   ::
         :: G(RRHO) w/o ZPVE           -0.065058502825 Eh   ::
         :: G(RRHO) contrib.            0.511224099735 Eh   ::
         :::::::::::::::::::::::::::::::::::::::::::::::::::::

           -------------------------------------------------
          | TOTAL ENERGY             -120.208298357617 Eh   |
          | TOTAL ENTHALPY           -119.594411744515 Eh   |
          | TOTAL FREE ENERGY        -119.697074257883 Eh   |
          | GRADIENT NORM               0.000122917645 Eh/α |
           -------------------------------------------------

 * finished run on 2025/08/26 at 02:01:21.913
