   * xtb version 6.7.1 (edcfbbe) compiled by 'albert@albert-system' on 2024-07-22

   ID    Z sym.   atoms
    1    6 C      1-9, 11-24, 26-30, 32-45, 47, 48
    2    7 N      10, 25, 31, 46
    3    1 H      49-76

          program call               : xtb data2507/gas/24PQ-Cz/24PQ-Cz_gas_S0_crest.xyz --gfn 2 --ohess vtight --parallel 40 --molden --ceasefiles --namespace data2507/gas/24PQ-Cz/24PQ-Cz_gas_S0_finalOpt
          :  Hamiltonian                  GFN2-xTB          :
 * total energy  :  -120.2720689 Eh     change       -0.3113385E-08 Eh
 * total energy  :  -120.2720699 Eh     change       -0.9533732E-06 Eh
 * total energy  :  -120.2720711 Eh     change       -0.1209328E-05 Eh
 * total energy  :  -120.2720733 Eh     change       -0.2221115E-05 Eh
 * total energy  :  -120.2720755 Eh     change       -0.2176695E-05 Eh
 * total energy  :  -120.2720769 Eh     change       -0.1420653E-05 Eh
 * total energy  :  -120.2720783 Eh     change       -0.1406532E-05 Eh
 * total energy  :  -120.2720808 Eh     change       -0.2520498E-05 Eh
 * total energy  :  -120.2720857 Eh     change       -0.4886245E-05 Eh
 * total energy  :  -120.2720920 Eh     change       -0.6292133E-05 Eh
 * total energy  :  -120.2721382 Eh     change       -0.7588622E-06 Eh
 * total energy  :  -120.2721391 Eh     change       -0.9288831E-06 Eh
 * total energy  :  -120.2721400 Eh     change       -0.8844078E-06 Eh
 * total energy  :  -120.2721408 Eh     change       -0.8031529E-06 Eh
 * total energy  :  -120.2721416 Eh     change       -0.7917062E-06 Eh
 * total energy  :  -120.2721422 Eh     change       -0.6272203E-06 Eh
 * total energy  :  -120.2721425 Eh     change       -0.2619323E-06 Eh
 * total energy  :  -120.2721426 Eh     change       -0.1201812E-06 Eh
 * total energy  :  -120.2721426 Eh     change       -0.2479945E-07 Eh
   *** GEOMETRY OPTIMIZATION CONVERGED AFTER 35 ITERATIONS ***

 final structure:
================
76
 xtb: 6.7.1 (edcfbbe)
C            0.97663451355039       -6.39025514253246       -0.47293527439684
C            2.21571605853860       -5.74514880255887       -0.61353153484812
C            2.30527466786430       -4.38130123623842       -0.53936819595047
C            1.15100697564714       -3.61081469042099       -0.31223264316701
C            1.11099865044177       -2.19242094599719       -0.17728883561517
C            2.32261547725407       -1.36949262739366       -0.08220835429650
C            2.38332649022433       -0.16608060572331       -0.78244272818577
C            3.50353146669822        0.63419331379676       -0.71056681469722
C            4.58071341116918        0.25831468076163        0.09043541105230
N            5.71718397683551        1.06820987843971        0.17054989648249
C            7.02463159366022        0.64382364513161        0.02636505297057
C            7.51730867598430       -0.61908440482580       -0.26858550099630
C            8.88606344263815       -0.76621089828918       -0.38926969633025
C            9.75063543624129        0.31432129016978       -0.23125442078064
C            9.26465566252283        1.57843487669426        0.03676112550761
C            7.89275754346748        1.75093321301961        0.16287521601830
C            7.06026964528533        2.89534686015535        0.40922969070104
C            7.32859502424883        4.23753430124503        0.64296417025425
C            6.27005788236730        5.09267121473947        0.87540955026688
C            4.95950234708789        4.62111988907741        0.89352356038018
C            4.66759343181248        3.29010388333113        0.66357278007325
C            5.72532821645444        2.43122348173494        0.40226752363373
C            4.51068360271639       -0.92722927963189        0.81922777488502
C            3.39503852883193       -1.73465481490153        0.72898122445492
N           -0.02932348279670       -1.54732686385194       -0.12784638285267
C           -1.17799243802951       -2.25210626813178       -0.12532001757009
C           -2.41883539997287       -1.47950776636017       -0.09467027649976
C           -2.38206740312308       -0.08890472566298       -0.00046137178727
C           -3.55159688554521        0.64038121283725        0.02414005225162
C           -4.78314806276055       -0.00851230319757       -0.05301343913881
N           -5.97036029319992        0.73089115921788       -0.03507394424364
C           -7.06656825931378        0.48306589653223        0.76898155250462
C           -7.24126925404047       -0.47772845627499        1.75469901558064
C           -8.44090476798930       -0.48769943554251        2.44036892062420
C           -9.44452007552512        0.43848013230562        2.16544577481253
C           -9.26617231032527        1.41327668964923        1.20437832118368
C           -8.06895864142204        1.44335354300424        0.50162616204088
C           -7.54629163499731        2.30577820149052       -0.52105178145025
C           -8.06157059243113        3.40176786330707       -1.20030281142982
C           -7.28503722731858        4.00389246583861       -2.16993131347216
C           -6.01685601715578        3.51570956396906       -2.47637665658173
C           -5.48280210571391        2.42669658568555       -1.81439207625606
C           -6.24783419040815        1.83365420736441       -0.82024538603504
C           -4.82343376663963       -1.39924683879959       -0.14913402557860
C           -3.65244568490983       -2.12573563222246       -0.16596925740213
N           -1.25735135435534       -3.56288851020039       -0.12246172718060
C           -0.11305790730262       -4.25993761312018       -0.23346928768077
C           -0.16986173622182       -5.66809298425922       -0.29548459233905
H            0.93577774079607       -7.46842428053956       -0.52670548364169
H            3.10254038564661       -6.33646227706310       -0.78800501790660
H            3.25511169570871       -3.88579314146003       -0.67611788503733
H            1.54399850556443        0.11951130212109       -1.39759514520983
H            3.56016292222151        1.54745938103130       -1.28342498582064
H            6.85555323997034       -1.45992461774556       -0.41241679502237
H            9.29400063185890       -1.74045005940121       -0.61515515244744
H           10.81438015751209        0.15782928110672       -0.33083152405759
H            9.93293451985125        2.41968349690984        0.14186877067793
H            8.34592900502791        4.59861020775179        0.64713748510705
H            6.45631440306475        6.14069292699019        1.05686519649051
H            4.15290698368292        5.31021927939363        1.09592652582969
H            3.64983757196895        2.93228218622727        0.70072112978952
H            5.32680616843859       -1.19850292476850        1.47204611283938
H            3.33710692222200       -2.63320052913440        1.32582339813246
H           -1.42364008171300        0.40163645172800        0.06547846571204
H           -3.52393450242181        1.71543626936541        0.12232593777446
H           -6.46274485753291       -1.18757700390908        1.98980410016842
H           -8.60220230536506       -1.22820280222509        3.20993570304119
H          -10.36915221915062        0.39547797651499        2.72163414280178
H          -10.03638577243423        2.14249680741824        1.00299517831006
H           -9.05161806127797        3.76836424290072       -0.97462471047129
H           -7.66563602138904        4.85913578514796       -2.70831864684030
H           -5.43913283318424        3.99666166107114       -3.25200062347406
H           -4.50714406494693        2.04448756250960       -2.07380347372571
H           -5.77795864648380       -1.89760400149969       -0.22989556889852
H           -3.66862160722040       -3.20124678785853       -0.24486175407250
H           -1.13664497006939       -6.13998681865735       -0.21949120016961

          :  Hamiltonian                  GFN2-xTB          :
         :: gradient norm              0.000075151749 Eh/a0 ::
         :: HOMO-LUMO gap              1.797808807514 eV    ::
         :: SCC energy              -122.524304798318 Eh    ::
         :: -> dispersion             -0.105063289158 Eh    ::
         :: repulsion energy           2.252162187069 Eh    ::

    * Orbital Energies and Occupations

         #    Occupation            Energy/Eh            Energy/eV
      -------------------------------------------------------------
         1        2.0000           -0.6789901             -18.4763
       ...           ...                  ...                  ...
       100        2.0000           -0.4160893             -11.3224
       101        2.0000           -0.4160118             -11.3203
       102        2.0000           -0.4117672             -11.2048
       103        2.0000           -0.4094481             -11.1417
       104        2.0000           -0.4067472             -11.0682
       105        2.0000           -0.4026659             -10.9571
       106        2.0000           -0.3972196             -10.8089
       107        2.0000           -0.3934315             -10.7058
       108        2.0000           -0.3801932             -10.3456
       109        2.0000           -0.3760974             -10.2341
       110        2.0000           -0.3650235              -9.9328
       111        2.0000           -0.3603274              -9.8050
       112        2.0000           -0.3582605              -9.7488 (HOMO)
       113                         -0.2921923              -7.9510 (LUMO)
       114                         -0.2665755              -7.2539
       115                         -0.2480026              -6.7485
       116                         -0.2421988              -6.5906
       117                         -0.2403059              -6.5391
       118                         -0.2388105              -6.4984
       119                         -0.2291001              -6.2341
       120                         -0.2234047              -6.0792
       121                         -0.2226123              -6.0576
       122                         -0.2193149              -5.9679
       123                         -0.2040127              -5.5515
       ...                                ...                  ...
       220                          0.7484261              20.3657
      -------------------------------------------------------------
                  HL-Gap            0.0660682 Eh            1.7978 eV

     #   Z          covCN         q      C6AA      α(0)
     1   6 C        2.916    -0.023    28.580     8.767
     2   6 C        2.917    -0.030    28.742     8.791
     3   6 C        2.913    -0.032    28.807     8.801
     4   6 C        2.979    -0.020    28.492     8.756
     5   6 C        2.958     0.112    25.526     8.287
     6   6 C        2.982     0.003    27.952     8.672
     7   6 C        2.925    -0.023    28.588     8.768
     8   6 C        2.921    -0.042    29.046     8.838
     9   6 C        2.913     0.067    26.492     8.440
    10   7 N        2.802    -0.042    22.058     6.975
    11   6 C        3.074     0.046    26.884     8.501
    12   6 C        2.910    -0.051    29.260     8.870
    13   6 C        2.924    -0.033    28.829     8.805
    14   6 C        2.920    -0.040    29.001     8.831
    15   6 C        2.913    -0.032    28.808     8.801
    16   6 C        3.068    -0.016    28.342     8.730
    17   6 C        3.068    -0.016    28.346     8.730
    18   6 C        2.913    -0.032    28.810     8.801
    19   6 C        2.920    -0.040    28.996     8.830
    20   6 C        2.924    -0.033    28.819     8.804
    21   6 C        2.910    -0.051    29.257     8.869
    22   6 C        3.074     0.047    26.881     8.501
    23   6 C        2.921    -0.043    29.075     8.842
    24   6 C        2.922    -0.029    28.736     8.791
    25   7 N        1.851    -0.271    27.876     7.825
    26   6 C        2.941     0.180    24.153     8.060
    27   6 C        2.984    -0.002    28.064     8.690
    28   6 C        2.923    -0.027    28.671     8.781
    29   6 C        2.921    -0.043    29.073     8.842
    30   6 C        2.913     0.067    26.497     8.441
    31   7 N        2.802    -0.041    22.033     6.971
    32   6 C        3.075     0.047    26.878     8.500
    33   6 C        2.910    -0.051    29.256     8.869
    34   6 C        2.924    -0.033    28.829     8.805
    35   6 C        2.920    -0.041    29.009     8.832
    36   6 C        2.913    -0.033    28.818     8.803
    37   6 C        3.068    -0.017    28.353     8.731
    38   6 C        3.068    -0.017    28.352     8.731
    39   6 C        2.913    -0.033    28.817     8.803
    40   6 C        2.920    -0.041    29.011     8.833
    41   6 C        2.924    -0.033    28.832     8.806
    42   6 C        2.910    -0.051    29.258     8.870
    43   6 C        3.075     0.047    26.879     8.500
    44   6 C        2.920    -0.043    29.061     8.840
    45   6 C        2.923    -0.027    28.668     8.780
    46   7 N        1.846    -0.274    27.953     7.836
    47   6 C        2.982     0.104    25.699     8.316
    48   6 C        2.919    -0.040    28.990     8.829
    49   1 H        0.926     0.039     2.462     2.454
    50   1 H        0.926     0.036     2.504     2.474
    51   1 H        0.926     0.036     2.503     2.474
    52   1 H        0.926     0.052     2.296     2.370
    53   1 H        0.926     0.046     2.368     2.406
    54   1 H        0.926     0.026     2.645     2.543
    55   1 H        0.926     0.029     2.595     2.519
    56   1 H        0.926     0.029     2.602     2.522
    57   1 H        0.926     0.032     2.559     2.502
    58   1 H        0.926     0.032     2.562     2.503
    59   1 H        0.926     0.029     2.598     2.521
    60   1 H        0.926     0.030     2.580     2.512
    61   1 H        0.926     0.029     2.597     2.520
    62   1 H        0.926     0.044     2.392     2.419
    63   1 H        0.926     0.040     2.447     2.446
    64   1 H        0.926     0.060     2.203     2.321
    65   1 H        0.926     0.044     2.399     2.422
    66   1 H        0.926     0.029     2.598     2.521
    67   1 H        0.926     0.029     2.596     2.519
    68   1 H        0.926     0.028     2.615     2.529
    69   1 H        0.926     0.031     2.574     2.509
    70   1 H        0.926     0.031     2.573     2.508
    71   1 H        0.926     0.028     2.616     2.529
    72   1 H        0.926     0.029     2.600     2.522
    73   1 H        0.926     0.028     2.608     2.525
    74   1 H        0.926     0.044     2.391     2.418
    75   1 H        0.926     0.061     2.189     2.314
    76   1 H        0.926     0.053     2.283     2.363

molecular dipole:
                 x           y           z       tot (Debye)
 q only:        0.468      -0.344      -0.094
   full:        0.848      -0.658      -0.132       2.747

 projected vibrational frequencies (cm⁻¹)
eigval :       -0.00    -0.00    -0.00    -0.00     0.00     0.00
eigval :        8.45    10.62    11.42    22.88    27.37    34.85
eigval :       51.54    58.98    60.78    77.37    80.99    91.63
eigval :      104.32   105.44   125.46   127.27   141.39   146.67
eigval :      149.89   166.18   183.23   216.84   224.60   237.37
eigval :      239.72   252.85   271.89   271.98   281.71   309.37
eigval :      334.55   353.82   378.77   379.79   387.25   388.43
eigval :      390.37   397.54   402.28   406.74   412.77   424.76
eigval :      427.13   438.84   441.58   470.52   480.60   501.07
eigval :      513.61   518.43   519.46   533.94   534.98   541.08
eigval :      541.14   554.24   563.99   579.77   583.14   593.45
eigval :      599.48   604.04   609.82   616.50   639.95   646.29
eigval :      661.05   674.16   674.38   690.14   699.16   708.19
eigval :      709.40   709.96   729.17   754.51   757.68   761.45
eigval :      768.24   769.87   770.06   777.68   781.07   781.11
eigval :      826.63   831.71   855.64   866.63   867.28   873.78
eigval :      874.65   876.26   877.67   882.77   886.46   898.14
eigval :      898.21   902.94   903.01   903.40   903.48   915.85
eigval :      920.52   921.01   921.56   922.86   923.49   929.30
eigval :      930.80   931.73   936.57   943.72   944.72   977.02
eigval :     1012.12  1012.17  1018.00  1023.62  1069.20  1070.64
eigval :     1070.82  1074.24  1074.50  1114.74  1117.27  1121.03
eigval :     1124.22  1134.72  1143.92  1152.71  1152.89  1170.60
eigval :     1176.45  1176.90  1179.07  1181.32  1181.33  1182.03
eigval :     1190.44  1198.14  1211.41  1235.10  1236.36  1236.53
eigval :     1244.30  1246.26  1255.95  1262.18  1265.68  1299.85
eigval :     1300.13  1301.74  1301.95  1317.16  1324.77  1328.00
eigval :     1338.62  1354.79  1357.90  1360.35  1361.53  1361.65
eigval :     1368.19  1382.78  1385.25  1406.01  1409.80  1427.59
eigval :     1428.03  1428.14  1432.12  1441.76  1475.75  1475.84
eigval :     1480.46  1488.09  1488.23  1493.72  1499.56  1526.88
eigval :     1538.37  1559.20  1564.71  1575.59  1575.76  1588.83
eigval :     1589.21  1591.80  1592.78  1598.85  1599.25  1604.52
eigval :     1614.73  1614.86  3076.02  3076.16  3076.63  3076.63
eigval :     3077.76  3080.12  3081.54  3081.95  3082.33  3082.79
eigval :     3083.45  3087.66  3088.81  3089.19  3089.88  3090.45
eigval :     3091.12  3091.72  3091.93  3095.15  3095.50  3096.20
eigval :     3096.95  3097.73  3102.89  3107.59  3107.86  3110.23

   temp. (K)  partition function   enthalpy   heat capacity  entropy
                                   cal/mol     cal/K/mol   cal/K/mol   J/K/mol
 298.15  VIB  0.243E+17            21041.587    136.627    130.330
         ROT  0.126E+09              888.752      2.981     40.044
         INT  0.306E+25            21930.340    139.608    170.374
         TR   0.147E+29             1481.254      4.968     45.101
         TOT                       23411.5936   144.5762   215.4748   901.5466

       T/K    H(0)-H(T)+PV         H(T)/Eh          T*S/Eh         G(T)/Eh
   ------------------------------------------------------------------------
    298.15    0.373087E-01    0.616889E+00    0.102379E+00    0.514510E+00
   ------------------------------------------------------------------------

         :::::::::::::::::::::::::::::::::::::::::::::::::::::
         ::                  THERMODYNAMIC                  ::
         :::::::::::::::::::::::::::::::::::::::::::::::::::::
         :: total free energy        -119.757632169170 Eh   ::
         ::.................................................::
         :: total energy             -120.272142611244 Eh   ::
         :: zero point energy           0.579580723748 Eh   ::
         :: G(RRHO) w/o ZPVE           -0.065070281674 Eh   ::
         :: G(RRHO) contrib.            0.514510442075 Eh   ::
         :::::::::::::::::::::::::::::::::::::::::::::::::::::

           -------------------------------------------------
          | TOTAL ENERGY             -120.272142611244 Eh   |
          | TOTAL ENTHALPY           -119.655253138269 Eh   |
          | TOTAL FREE ENERGY        -119.757632169170 Eh   |
          | GRADIENT NORM               0.000075146256 Eh/α |
          | HOMO-LUMO GAP               1.797807463155 eV   |
           -------------------------------------------------

 * finished run on 2025/08/26 at 01:55:39.706
