   * xtb version 6.7.1 (edcfbbe) compiled by 'albert@albert-system' on 2024-07-22

   ID    Z sym.   atoms
    1    6 C      1-9, 11-24, 26-30, 32-45, 47, 48
    2    7 N      10, 25, 31, 46
    3    1 H      49-76

          program call               : xtb data2507/gas/24PQ-Cz/24PQ-Cz.xyz --gfn 2 --ohess vtight --parallel 40 --molden --ceasefiles --namespace data2507/gas/24PQ-Cz/24PQ-Cz_gas_S0_preOpt
          :  Hamiltonian                  GFN2-xTB          :
 * total energy  :  -120.2473924 Eh     change       -0.5090499E-08 Eh
 * total energy  :  -120.2645735 Eh     change       -0.1718109E-01 Eh
 * total energy  :  -120.2687080 Eh     change       -0.4134555E-02 Eh
 * total energy  :  -120.2695935 Eh     change       -0.8854652E-03 Eh
 * total energy  :  -120.2703173 Eh     change       -0.7237814E-03 Eh
 * total energy  :  -120.2706279 Eh     change       -0.3106283E-03 Eh
 * total energy  :  -120.2708467 Eh     change       -0.2188145E-03 Eh
 * total energy  :  -120.2710185 Eh     change       -0.1717525E-03 Eh
 * total energy  :  -120.2711384 Eh     change       -0.1198848E-03 Eh
 * total energy  :  -120.2712256 Eh     change       -0.8724359E-04 Eh
 * total energy  :  -120.2718178 Eh     change       -0.1607257E-05 Eh
 * total energy  :  -120.2718195 Eh     change       -0.1747748E-05 Eh
 * total energy  :  -120.2718213 Eh     change       -0.1763734E-05 Eh
 * total energy  :  -120.2718229 Eh     change       -0.1665584E-05 Eh
 * total energy  :  -120.2718245 Eh     change       -0.1522054E-05 Eh
 * total energy  :  -120.2718259 Eh     change       -0.1387119E-05 Eh
 * total energy  :  -120.2718271 Eh     change       -0.1277605E-05 Eh
 * total energy  :  -120.2718283 Eh     change       -0.1198467E-05 Eh
 * total energy  :  -120.2718283 Eh     change       -0.5739324E-08 Eh
   *** GEOMETRY OPTIMIZATION CONVERGED AFTER 94 ITERATIONS ***

 final structure:
================
76
 xtb: 6.7.1 (edcfbbe)
C            0.85100643496313       -6.18021063245766        1.76945258591285
C            2.10188076469938       -5.62729601881106        1.45104560562017
C            2.20616357781578       -4.32584218941857        1.04044611371898
C            1.05437196354963       -3.52486508376652        0.94102898682170
C            1.02829130849451       -2.15465803158591        0.54991312616574
C            2.25675627666724       -1.37290471502472        0.35088704257269
C            2.38438494385478       -0.56877656850560       -0.77907510136326
C            3.52590786111214        0.17787778466604       -0.98415630720744
C            4.55917376487768        0.14572514963854       -0.04974577963395
N            5.72162578007580        0.89608488006516       -0.25647761585752
C            6.48871362216344        0.89569945980559       -1.40593813325952
C            6.33391448372762        0.15927438210830       -2.57143148371790
C            7.27515194160990        0.32595019574308       -3.56934566363346
C            8.35208596493848        1.19606431308444       -3.41592083375229
C            8.52396680268642        1.91388671335531       -2.24928173508184
C            7.59117028430963        1.76304700748942       -1.23182958438857
C            7.47086778089486        2.31720826157754        0.08788356613948
C            8.22490520710413        3.23129047275000        0.81179318460188
C            7.80641761602717        3.57553479556576        2.08149655305569
C            6.64401334723733        3.03260138558159        2.62421741732156
C            5.87738175345587        2.12109804662109        1.92355009955689
C            6.30681224169043        1.75230760175812        0.65692713060752
C            4.42352728416525       -0.63496749740115        1.09594123708736
C            3.28255918158287       -1.38651903002110        1.29299672506717
N           -0.10293782007908       -1.52344917600589        0.35331888551373
C           -1.26013482504567       -2.17061827183087        0.60094985023160
C           -2.49365125587242       -1.41867405345921        0.37548238800725
C           -2.44701715916038       -0.10074587624029       -0.07703944008486
C           -3.61135566302742        0.60948581216959       -0.27925333786074
C           -4.84694220843879        0.01639230969961       -0.02381360633034
N           -6.02906132498394        0.74010501886825       -0.21240643122248
C           -6.28909002140360        2.00524243322868        0.27942836324397
C           -5.50136904339865        2.82399720201708        1.07591503024514
C           -6.02145455851320        4.04574902894082        1.45836176655329
C           -7.29753877915672        4.44766730486535        1.07029348257358
C           -8.09596957753456        3.62645775375253        0.29971579197219
C           -7.59512329839020        2.39367425005161       -0.09716424439512
C           -8.14151588162241        1.30551937016451       -0.85883819551754
C           -9.35609997632614        1.10582408783053       -1.50146759794437
C           -9.55713454782181       -0.07801096154450       -2.18251553755211
C           -8.55917237848624       -1.04818560089757       -2.24143256501907
C           -7.34259877264988       -0.87223526510278       -1.61026095132536
C           -7.14464725496948        0.30409453825380       -0.90143531796678
C           -4.89702516085927       -1.30238452567268        0.42722360829182
C           -3.73179536753698       -2.01205340632309        0.62038865442516
N           -1.35471372474188       -3.39944863133530        1.05348953730574
C           -0.21826469480352       -4.09965965930380        1.21311920777754
C           -0.29108632502974       -5.43986447135255        1.64742289466871
H            0.79858377134317       -7.20810721185060        2.09763379155817
H            2.98633453546552       -6.24247961232312        1.52721020849295
H            3.16615122360859       -3.90985659004012        0.77204070907429
H            1.57609942458229       -0.54092273244053       -1.49363349446679
H            3.61874510800636        0.80585164380539       -1.85750932003462
H            5.51278743664055       -0.53104220567605       -2.69375685590485
H            7.17534820937707       -0.23427680626116       -4.48734852564241
H            9.06502606095265        1.29994240828191       -4.22023087189202
H            9.36725039351428        2.57604037951492       -2.12352783915429
H            9.11613079967453        3.66488814125673        0.38388265003145
H            8.37926220188776        4.28305495530262        2.66224044263681
H            6.33215876143120        3.33390933888875        3.61339720232033
H            4.96758460763491        1.72159401691023        2.34575918981577
H            5.22310546485246       -0.65942601056043        1.82115728659011
H            3.17636773580663       -1.97125951732765        2.19521858136040
H           -1.48541919103742        0.34900893811959       -0.26845443597479
H           -3.57613289626339        1.62306144416338       -0.65016991513969
H           -4.51910228280464        2.51452742526144        1.39936242649866
H           -5.42609527831691        4.70208873568390        2.07593474954208
H           -7.66675766398233        5.41148360882375        1.38792722690727
H           -9.09193252437188        3.92928748325305        0.01356142914200
H          -10.12229743755875        1.86575372822338       -1.46999137553706
H          -10.49561205082817       -0.25490002612911       -2.68662365440358
H           -8.73875764614209       -1.95731050753262       -2.79628917035604
H           -6.56921476063345       -1.62225900895629       -1.67867014685872
H           -5.85438380127996       -1.75293379781902        0.64280447305493
H           -3.75556822310714       -3.03013280207173        0.97542898700976
H           -1.26501154630707       -5.85207631211374        1.85878687938277

          :  Hamiltonian                  GFN2-xTB          :
         :: gradient norm              0.000061023364 Eh/a0 ::
         :: HOMO-LUMO gap              1.799747881506 eV    ::
         :: SCC energy              -122.523840745091 Eh    ::
         :: -> dispersion             -0.104835543285 Eh    ::
         :: repulsion energy           2.252012406031 Eh    ::

    * Orbital Energies and Occupations

         #    Occupation            Energy/Eh            Energy/eV
      -------------------------------------------------------------
         1        2.0000           -0.6785373             -18.4639
       ...           ...                  ...                  ...
       100        2.0000           -0.4160158             -11.3204
       101        2.0000           -0.4159004             -11.3172
       102        2.0000           -0.4118550             -11.2071
       103        2.0000           -0.4097831             -11.1508
       104        2.0000           -0.4062936             -11.0558
       105        2.0000           -0.4026266             -10.9560
       106        2.0000           -0.3976885             -10.8217
       107        2.0000           -0.3937342             -10.7141
       108        2.0000           -0.3796939             -10.3320
       109        2.0000           -0.3760410             -10.2326
       110        2.0000           -0.3646039              -9.9214
       111        2.0000           -0.3606451              -9.8137
       112        2.0000           -0.3582004              -9.7471 (HOMO)
       113                         -0.2920609              -7.9474 (LUMO)
       114                         -0.2669205              -7.2633
       115                         -0.2477385              -6.7413
       116                         -0.2421648              -6.5896
       117                         -0.2403876              -6.5413
       118                         -0.2390888              -6.5059
       119                         -0.2291620              -6.2358
       120                         -0.2229027              -6.0655
       121                         -0.2228560              -6.0642
       122                         -0.2192630              -5.9664
       123                         -0.2042474              -5.5579
       ...                                ...                  ...
       220                          0.7484521              20.3664
      -------------------------------------------------------------
                  HL-Gap            0.0661395 Eh            1.7997 eV

     #   Z          covCN         q      C6AA      α(0)
     1   6 C        2.916    -0.023    28.575     8.766
     2   6 C        2.917    -0.029    28.734     8.790
     3   6 C        2.913    -0.032    28.805     8.801
     4   6 C        2.979    -0.020    28.494     8.756
     5   6 C        2.959     0.113    25.510     8.284
     6   6 C        2.982     0.003    27.940     8.671
     7   6 C        2.924    -0.024    28.591     8.769
     8   6 C        2.921    -0.041    29.028     8.835
     9   6 C        2.913     0.067    26.495     8.440
    10   7 N        2.802    -0.043    22.075     6.978
    11   6 C        3.075     0.046    26.882     8.501
    12   6 C        2.910    -0.051    29.264     8.870
    13   6 C        2.924    -0.033    28.826     8.805
    14   6 C        2.920    -0.040    29.003     8.831
    15   6 C        2.913    -0.033    28.810     8.802
    16   6 C        3.068    -0.016    28.348     8.730
    17   6 C        3.068    -0.016    28.349     8.731
    18   6 C        2.913    -0.033    28.811     8.802
    19   6 C        2.920    -0.040    29.002     8.831
    20   6 C        2.924    -0.033    28.824     8.804
    21   6 C        2.910    -0.051    29.259     8.870
    22   6 C        3.074     0.047    26.880     8.500
    23   6 C        2.921    -0.043    29.073     8.842
    24   6 C        2.922    -0.029    28.729     8.790
    25   7 N        1.849    -0.270    27.866     7.824
    26   6 C        2.942     0.180    24.152     8.060
    27   6 C        2.984    -0.002    28.065     8.690
    28   6 C        2.923    -0.027    28.668     8.780
    29   6 C        2.920    -0.043    29.073     8.842
    30   6 C        2.913     0.067    26.494     8.440
    31   7 N        2.802    -0.041    22.034     6.972
    32   6 C        3.075     0.047    26.878     8.500
    33   6 C        2.910    -0.051    29.257     8.869
    34   6 C        2.924    -0.033    28.830     8.805
    35   6 C        2.920    -0.041    29.010     8.832
    36   6 C        2.913    -0.033    28.818     8.803
    37   6 C        3.068    -0.017    28.352     8.731
    38   6 C        3.068    -0.017    28.352     8.731
    39   6 C        2.913    -0.033    28.818     8.803
    40   6 C        2.920    -0.041    29.010     8.832
    41   6 C        2.924    -0.033    28.831     8.805
    42   6 C        2.910    -0.051    29.256     8.869
    43   6 C        3.075     0.047    26.879     8.500
    44   6 C        2.920    -0.043    29.060     8.840
    45   6 C        2.923    -0.027    28.671     8.781
    46   7 N        1.846    -0.273    27.938     7.834
    47   6 C        2.981     0.104    25.699     8.316
    48   6 C        2.919    -0.040    28.987     8.829
    49   1 H        0.926     0.039     2.458     2.452
    50   1 H        0.926     0.036     2.499     2.472
    51   1 H        0.926     0.036     2.499     2.472
    52   1 H        0.926     0.050     2.315     2.379
    53   1 H        0.926     0.046     2.366     2.406
    54   1 H        0.926     0.027     2.635     2.538
    55   1 H        0.926     0.030     2.593     2.518
    56   1 H        0.926     0.029     2.603     2.523
    57   1 H        0.926     0.032     2.562     2.503
    58   1 H        0.926     0.032     2.563     2.504
    59   1 H        0.926     0.029     2.603     2.523
    60   1 H        0.926     0.030     2.589     2.516
    61   1 H        0.926     0.028     2.621     2.532
    62   1 H        0.926     0.044     2.392     2.419
    63   1 H        0.926     0.040     2.454     2.450
    64   1 H        0.926     0.060     2.200     2.319
    65   1 H        0.926     0.044     2.398     2.421
    66   1 H        0.926     0.029     2.603     2.523
    67   1 H        0.926     0.029     2.598     2.520
    68   1 H        0.926     0.028     2.615     2.529
    69   1 H        0.926     0.031     2.573     2.508
    70   1 H        0.926     0.031     2.573     2.509
    71   1 H        0.926     0.028     2.615     2.529
    72   1 H        0.926     0.029     2.598     2.520
    73   1 H        0.926     0.029     2.604     2.523
    74   1 H        0.926     0.044     2.390     2.417
    75   1 H        0.926     0.061     2.183     2.311
    76   1 H        0.926     0.053     2.280     2.361

molecular dipole:
                 x           y           z       tot (Debye)
 q only:        0.430      -0.417       0.053
   full:        0.805      -0.722       0.132       2.769

 projected vibrational frequencies (cm⁻¹)
eigval :       -0.00    -0.00     0.00     0.00     0.00     0.00
eigval :        8.26     9.81    11.69    22.74    26.38    34.77
eigval :       50.71    57.40    65.17    77.25    80.65    92.26
eigval :      104.10   105.25   122.69   129.59   139.40   145.93
eigval :      148.22   163.40   186.20   212.36   220.39   235.11
eigval :      245.21   250.65   271.69   271.98   284.11   313.58
eigval :      328.19   345.07   378.77   381.47   385.33   386.68
eigval :      392.79   399.55   403.53   407.96   411.89   424.70
eigval :      426.79   438.71   441.37   468.45   480.22   500.50
eigval :      513.72   518.41   519.42   533.34   535.09   541.08
eigval :      541.12   554.18   563.98   579.75   583.73   590.70
eigval :      593.90   609.66   616.11   616.92   636.81   646.28
eigval :      660.98   673.83   674.36   690.54   698.47   708.15
eigval :      709.24   710.04   729.22   754.62   757.69   761.98
eigval :      768.25   769.84   770.12   777.69   781.06   781.12
eigval :      825.92   832.11   855.69   867.24   867.48   873.87
eigval :      874.73   875.42   878.67   882.66   886.50   898.14
eigval :      898.18   902.81   903.02   903.49   903.60   916.30
eigval :      920.52   921.04   921.62   922.86   923.68   928.47
eigval :      930.97   931.84   936.63   941.19   944.79   977.24
eigval :     1012.06  1012.16  1017.86  1023.98  1068.93  1070.51
eigval :     1070.65  1074.04  1074.29  1114.32  1117.11  1120.30
eigval :     1124.11  1133.77  1144.04  1152.72  1152.76  1170.65
eigval :     1176.37  1176.76  1178.95  1181.30  1181.35  1181.92
eigval :     1190.74  1197.93  1210.90  1235.05  1236.41  1236.56
eigval :     1244.27  1246.33  1255.94  1261.51  1265.15  1299.85
eigval :     1300.07  1301.75  1302.37  1316.55  1324.03  1327.89
eigval :     1338.06  1354.92  1357.83  1360.47  1361.59  1361.71
eigval :     1368.21  1383.68  1385.51  1404.75  1409.70  1427.73
eigval :     1428.11  1428.16  1432.53  1442.08  1475.72  1476.10
eigval :     1480.53  1488.12  1488.26  1493.51  1499.68  1528.71
eigval :     1539.58  1560.45  1564.80  1575.52  1575.62  1588.84
eigval :     1589.37  1592.59  1593.67  1598.84  1599.29  1604.64
eigval :     1614.76  1615.03  3076.00  3076.22  3076.61  3076.62
eigval :     3077.09  3079.62  3081.51  3081.52  3081.81  3082.76
eigval :     3082.79  3087.70  3088.31  3089.17  3089.81  3089.95
eigval :     3090.40  3091.12  3091.91  3094.92  3095.50  3095.82
eigval :     3096.95  3097.36  3101.56  3107.64  3107.94  3110.87

   temp. (K)  partition function   enthalpy   heat capacity  entropy
                                   cal/mol     cal/K/mol   cal/K/mol   J/K/mol
 298.15  VIB  0.283E+17            21059.938    136.661    130.561
         ROT  0.128E+09              888.752      2.981     40.085
         INT  0.364E+25            21948.690    139.642    170.645
         TR   0.147E+29             1481.254      4.968     45.101
         TOT                       23429.9440   144.6102   215.7462   902.6822

       T/K    H(0)-H(T)+PV         H(T)/Eh          T*S/Eh         G(T)/Eh
   ------------------------------------------------------------------------
    298.15    0.373380E-01    0.616857E+00    0.102508E+00    0.514349E+00
   ------------------------------------------------------------------------

         :::::::::::::::::::::::::::::::::::::::::::::::::::::
         ::                  THERMODYNAMIC                  ::
         :::::::::::::::::::::::::::::::::::::::::::::::::::::
         :: total free energy        -119.757479545592 Eh   ::
         ::.................................................::
         :: total energy             -120.271828339059 Eh   ::
         :: zero point energy           0.579518791241 Eh   ::
         :: G(RRHO) w/o ZPVE           -0.065169997773 Eh   ::
         :: G(RRHO) contrib.            0.514348793467 Eh   ::
         :::::::::::::::::::::::::::::::::::::::::::::::::::::

           -------------------------------------------------
          | TOTAL ENERGY             -120.271828339059 Eh   |
          | TOTAL ENTHALPY           -119.654971555333 Eh   |
          | TOTAL FREE ENERGY        -119.757479545592 Eh   |
          | GRADIENT NORM               0.000061023388 Eh/α |
          | HOMO-LUMO GAP               1.799747803200 eV   |
           -------------------------------------------------

 * finished run on 2025/08/26 at 01:51:48.525
