   * xtb version 6.7.1 (edcfbbe) compiled by 'albert@albert-system' on 2024-07-22

   ID    Z sym.   atoms
    1    6 C      1-8, 10-20, 23-27, 30-41, 43, 44, 46, 49-64, 66-79
    2    7 N      9, 21, 22, 42, 45, 65
    3   15 P      28, 47
    4    8 O      29, 48
    5    1 H      80-137

          program call               : xtb data2507/gas/PO-TPA/PO-TPA.xyz --gfn 2 --ohess vtight --parallel 40 --molden --ceasefiles --namespace data2507/gas/PO-TPA/PO-TPA_gas_S0_preOpt
          :  Hamiltonian                  GFN2-xTB          :
 * total energy  :  -208.0554946 Eh     change       -0.9903061E-08 Eh
 * total energy  :  -208.0826204 Eh     change       -0.2712584E-01 Eh
 * total energy  :  -208.0924801 Eh     change       -0.9859727E-02 Eh
 * total energy  :  -208.0956177 Eh     change       -0.3137549E-02 Eh
 * total energy  :  -208.0979044 Eh     change       -0.2286682E-02 Eh
 * total energy  :  -208.0995846 Eh     change       -0.1680185E-02 Eh
 * total energy  :  -208.1004012 Eh     change       -0.8166425E-03 Eh
 * total energy  :  -208.1013042 Eh     change       -0.9029709E-03 Eh
 * total energy  :  -208.1019685 Eh     change       -0.6643355E-03 Eh
 * total energy  :  -208.1026217 Eh     change       -0.6532242E-03 Eh
 * total energy  :  -208.1095671 Eh     change       -0.4945175E-06 Eh
 * total energy  :  -208.1095676 Eh     change       -0.5041928E-06 Eh
 * total energy  :  -208.1095681 Eh     change       -0.5419821E-06 Eh
 * total energy  :  -208.1095687 Eh     change       -0.6228716E-06 Eh
 * total energy  :  -208.1095695 Eh     change       -0.7597035E-06 Eh
 * total energy  :  -208.1095704 Eh     change       -0.9409395E-06 Eh
 * total energy  :  -208.1095715 Eh     change       -0.1065944E-05 Eh
 * total energy  :  -208.1095725 Eh     change       -0.9590060E-06 Eh
 * total energy  :  -208.1095725 Eh     change       -0.9855370E-08 Eh
   *** GEOMETRY OPTIMIZATION CONVERGED AFTER 260 ITERATIONS ***

 final structure:
================
137
 xtb: 6.7.1 (edcfbbe)
C          -12.33000909950474       -2.25504291002833       -1.48171047514393
C          -11.30337191384301       -3.12243626271015       -0.73948564706349
C          -11.06830889530999       -4.39305445927226       -1.56046074430931
C          -11.86328115634421       -3.53431516542382        0.62950997501413
C          -10.03196496822416       -2.31571481702475       -0.53288779408962
C           -8.79786151472718       -2.69920009059266       -1.04530525193577
C           -7.66220480733799       -1.93861050959215       -0.84033696754686
C           -7.72330137946742       -0.76258357899814       -0.09990110561952
N           -6.57593493310894        0.01955918115601        0.11192945834110
C           -5.35452078665955       -0.58041565694050        0.36349653845257
C           -5.28726929019576       -1.81586001576206        1.01783329302941
C           -4.07676409910496       -2.42969874693010        1.23845254964510
C           -2.88273102411202       -1.82966489492569        0.83190547601047
C           -1.59150444768461       -2.47255444480538        1.05971361729610
C           -0.51946189621382       -1.77463332722518        1.51629586344218
C            0.73294489628778       -2.41121811008451        1.79138695455916
C            0.90143363585349       -3.82374767406945        1.39198923494138
C           -0.26046084180950       -4.53832130657902        0.94407648627481
C           -1.44354830976634       -3.89380563664768        0.77896543232138
C           -2.52428664687020       -4.62083930478501        0.22413623551687
N           -3.35843726923574       -5.24714096456745       -0.25225691702238
N            2.04452941543542       -4.40679786027174        1.39864530669791
C            3.19273240702927       -3.60286759928579        1.73596939229952
C            3.78650120730791       -3.01194943944477        0.47471139612504
C            3.57086261830978       -3.58281518626846       -0.77197709233316
C            4.19902431430747       -3.03523511761345       -1.87594652397359
C            5.04710737428922       -1.95070209172428       -1.68441270695668
P            5.99351899291807       -1.37612863028463       -3.14064180126739
O            5.31379791406239       -1.69691631914006       -4.40225669625475
C            7.59489911692923       -2.22133110376562       -2.93053341273740
C            8.26575793197497       -2.58658365138110       -4.08899388744778
C            9.48961640502525       -3.22618156536720       -4.00751561028560
C           10.03998958591712       -3.50462240612313       -2.76682705498428
C            9.36587963087558       -3.14798335412736       -1.60937603242132
C            8.14326550921266       -2.50454016719654       -1.68655589056897
C            6.35521759660229        0.39255065445510       -2.93253627534349
C            5.69453736624873        1.27820287378483       -3.77238057952060
C            5.98272827306576        2.63005735562898       -3.70990993488476
C            6.93008098496736        3.09407788804195       -2.81102309750058
C            7.58829692682230        2.20809080308382       -1.97276518925661
C            7.30579788953399        0.85633596438636       -2.03509172427501
N            5.24216261784066       -1.38410268296696       -0.50644222212090
C            4.61237435800815       -1.88226376351581        0.55248228023710
C            4.79696521189394       -1.20234251136945        1.83807050939165
N            5.73269767427512       -0.26523716317538        1.90740096477769
C            5.89253334630869        0.40028930132874        3.03819394230017
P            7.05946240470444        1.80302967847029        3.03426467770148
O            7.24077508515209        2.41094388267458        4.35844199357569
C            8.60450234434929        1.20660231933713        2.28341244492902
C            9.78330618293142        1.72062293307601        2.80577254766417
C           10.99899788255034        1.34993670548021        2.25930781864469
C           11.03253774951622        0.46910264202063        1.19062463274789
C            9.85399518126231       -0.04811601189488        0.67497935377297
C            8.63497702806044        0.31824832503100        1.21746432747362
C            6.31260725032481        2.93202271455142        1.81224946345924
C            5.67551767793599        2.49576813497445        0.65880937390981
C            5.09436085815502        3.42276393748793       -0.18758995011896
C            5.16909206286882        4.77633513747286        0.09990995382119
C            5.81824085795833        5.21062085750691        1.24435497366388
C            6.38336319988923        4.28725777183792        2.10514352836438
C            5.13888956266247        0.14849149705957        4.17815692788403
C            4.15876465831568       -0.82640242884721        4.11192501296252
C            3.97020335841354       -1.51650049615109        2.92285857949593
C            2.85481901811121       -2.51441808881234        2.76718034929990
N            1.64906274123486       -1.78518452280368        2.43964302003059
C           -2.94877254528552       -0.58002251861123        0.21067564598041
C           -4.15743168232358        0.02939245094277       -0.03096961198155
C           -6.69127092352263        1.41644629617927        0.04763627839682
C           -6.00138537299604        2.23342269387022        0.94076351186266
C           -6.12917100485171        3.60461346373138        0.87071105705179
C           -6.94802197674565        4.21909396171125       -0.07512613232920
C           -7.05164806069989        5.73510326865008       -0.10598467399386
C           -7.99180239414402        6.23964416379679       -1.20392497513957
C           -5.65760459515215        6.32581476305556       -0.36069778738321
C           -7.58639108966471        6.22858619340342        1.24598400500419
C           -7.63804357254949        3.39200577412637       -0.95393803864921
C           -7.51359016430637        2.01652013364089       -0.90024108766757
C           -8.95355090371024       -0.36584536103668        0.41839135392271
C          -10.07992000295471       -1.13066986062003        0.19917228985274
H          -13.24235482834909       -2.82139363574888       -1.65576663289158
H          -12.58515313176702       -1.36621568528443       -0.91132822155168
H          -11.93053105953620       -1.94026309852354       -2.44362515782299
H          -10.36159534280902       -5.05442280131176       -1.06483688594571
H          -10.69758481153750       -4.15447159143555       -2.55458014979755
H          -12.00798421850694       -4.92995938038700       -1.67315130390940
H          -12.11049708148079       -2.66696417211825        1.23527960913218
H          -12.76583233632985       -4.12791518529166        0.50114396161070
H          -11.13184776144993       -4.13115611425212        1.17039137881991
H           -8.69946379534226       -3.60182326097773       -1.62509574235817
H           -6.71939386376079       -2.25716609877024       -1.26053986654090
H           -6.19707261080314       -2.28496122808374        1.36021827770038
H           -4.05488941710042       -3.36880370618861        1.77091040935728
H           -0.59989602753989       -0.72789111987849        1.76498164669903
H           -0.14098202953307       -5.58057299997151        0.68767484042190
H            3.94326504795337       -4.28681079129466        2.16005916052912
H            2.92988574911289       -4.44762075395204       -0.86312910184206
H            4.06190447398953       -3.42811438445845       -2.87168980783034
H            7.80750247136689       -2.36981381845875       -5.04337593254852
H           10.01340678613131       -3.51046910340398       -4.90831915272617
H           10.99407576497682       -4.00682364828856       -2.70016242617130
H            9.79330009298272       -3.37730791477507       -0.64334425279283
H            7.60995387228097       -2.23174067807290       -0.78676882856883
H            4.97137288767852        0.88969848222940       -4.47545276791907
H            5.47328116527652        3.32202996155179       -4.36509177668496
H            7.15781153368414        4.14895905985986       -2.76373509679085
H            8.32573823121657        2.57028274649034       -1.27105146452398
H            7.82598588076871        0.16087632131901       -1.39862780366935
H            9.72923541308061        2.39991260168630        3.64450168339426
H           11.91864836790139        1.74674207513461        2.66414463987698
H           11.98027052892578        0.18082299671239        0.75907148183473
H            9.89228655602587       -0.73838620112052       -0.15622949193680
H            7.70492323993869       -0.08276247892782        0.84494937189480
H            5.62206940529546        1.44094018617935        0.43434365961964
H            4.58088279242286        3.08531792125468       -1.07588844693213
H            4.71476814538333        5.49448259961266       -0.56745705790752
H            5.87509856076411        6.26586735022269        1.46908482255263
H            6.87312002305259        4.59810123612755        3.01703029961764
H            5.32720706707838        0.72326476630674        5.07186208424686
H            3.53179640746556       -1.04269756023206        4.96532778306195
H            2.67086703640601       -2.98969871620260        3.74562481884112
H           -2.03692936644559       -0.10761591411735       -0.12386576122632
H           -4.18945535088406        0.97724634510211       -0.54707831337754
H           -5.36970723056433        1.78580429312544        1.69435371684521
H           -5.57948040921321        4.20338555512678        1.58095400002837
H           -7.64175266279520        5.93836619885089       -2.18852266837476
H           -8.02665585994284        7.32686562476715       -1.17882832900731
H           -9.00313990145074        5.86848066276085       -1.05496607652256
H           -5.71348150265234        7.41134360510193       -0.40443840159384
H           -4.96069163423353        6.05292332016084        0.42679369902564
H           -5.26240885296054        5.96228932094564       -1.30708764689506
H           -6.92127202583373        5.95472638083661        2.06013851090527
H           -8.56471340390202        5.79552192856780        1.44413502706630
H           -7.68415191186965        7.31198352490046        1.23658251710942
H           -8.28478505212977        3.80960145857302       -1.70780882507129
H           -8.05592590836841        1.39841721574577       -1.60082172814951
H           -9.01936323661859        0.54440252904016        0.99658061370676
H          -11.01456361399986       -0.79174916911686        0.61953396952210

          :  Hamiltonian                  GFN2-xTB          :
         :: gradient norm              0.000081341113 Eh/a0 ::
         :: HOMO-LUMO gap              0.524325727701 eV    ::
         :: SCC energy              -211.734446138821 Eh    ::
         :: -> dispersion             -0.202432993505 Eh    ::
         :: repulsion energy           3.624873672432 Eh    ::

    * Orbital Energies and Occupations

         #    Occupation            Energy/Eh            Energy/eV
      -------------------------------------------------------------
         1        2.0000           -0.6926538             -18.8481
       ...           ...                  ...                  ...
       181        2.0000           -0.4095868             -11.1454
       182        2.0000           -0.4086123             -11.1189
       183        2.0000           -0.4073917             -11.0857
       184        2.0000           -0.4066865             -11.0665
       185        2.0000           -0.4052643             -11.0278
       186        2.0000           -0.4032550             -10.9731
       187        2.0000           -0.3993660             -10.8673
       188        2.0000           -0.3966814             -10.7942
       189        2.0000           -0.3953071             -10.7569
       190        2.0000           -0.3785218             -10.3001
       191        2.0000           -0.3731467             -10.1538
       192        2.0000           -0.3621942              -9.8558
       193        1.9999           -0.3565184              -9.7014 (HOMO)
       194        0.0001           -0.3372500              -9.1770 (LUMO)
       195                         -0.2875101              -7.8235
       196                         -0.2692023              -7.3254
       197                         -0.2680416              -7.2938
       198                         -0.2651747              -7.2158
       199                         -0.2507971              -6.8245
       200                         -0.2484348              -6.7603
       201                         -0.2468121              -6.7161
       202                         -0.2375163              -6.4631
       203                         -0.2365923              -6.4380
       204                         -0.2344074              -6.3785
       ...                                ...                  ...
       384                          1.2018342              32.7036
      -------------------------------------------------------------
                  HL-Gap            0.0192684 Eh            0.5243 eV

     #   Z          covCN         q      C6AA      α(0)
     1   6 C        3.762    -0.106    22.570     6.772
     2   6 C        3.903     0.026    20.082     6.370
     3   6 C        3.761    -0.109    22.627     6.781
     4   6 C        3.762    -0.106    22.573     6.773
     5   6 C        2.973     0.005    27.899     8.664
     6   6 C        2.925    -0.038    28.949     8.823
     7   6 C        2.921    -0.047    29.177     8.858
     8   6 C        2.926     0.059    26.684     8.471
     9   7 N        2.752    -0.063    22.460     7.039
    10   6 C        2.923     0.070    26.431     8.431
    11   6 C        2.921    -0.047    29.166     8.856
    12   6 C        2.922    -0.028    28.692     8.784
    13   6 C        2.977    -0.001    28.053     8.688
    14   6 C        2.970     0.019    27.570     8.613
    15   6 C        2.920    -0.051    29.269     8.872
    16   6 C        2.923     0.096    25.865     8.340
    17   6 C        2.930     0.100    25.792     8.329
    18   6 C        2.932    -0.029    28.737     8.791
    19   6 C        2.966     0.025    27.443     8.593
    20   6 C        1.918     0.118    28.185     8.574
    21   7 N        0.911    -0.225    25.912     7.362
    22   7 N        1.842    -0.248    27.327     7.747
    23   6 C        3.830     0.056    19.623     6.303
    24   6 C        2.976    -0.005    28.139     8.701
    25   6 C        2.927    -0.016    28.422     8.743
    26   6 C        3.016    -0.031    28.758     8.797
    27   6 C        2.905     0.096    25.862     8.339
    28  15 P        4.087     0.067   157.265    22.527
    29   8 O        0.808    -0.359    20.895     6.128
    30   6 C        2.921     0.013    27.721     8.634
    31   6 C        3.027    -0.020    28.467     8.752
    32   6 C        2.919    -0.027    28.665     8.780
    33   6 C        2.920    -0.025    28.637     8.775
    34   6 C        2.920    -0.028    28.696     8.785
    35   6 C        2.973    -0.027    28.660     8.781
    36   6 C        2.922     0.022    27.508     8.601
    37   6 C        3.026    -0.020    28.483     8.754
    38   6 C        2.919    -0.027    28.683     8.783
    39   6 C        2.920    -0.023    28.576     8.766
    40   6 C        2.920    -0.023    28.588     8.768
    41   6 C        2.981    -0.022    28.560     8.766
    42   7 N        1.907    -0.211    26.436     7.623
    43   6 C        2.970     0.085    26.110     8.382
    44   6 C        2.968     0.085    26.095     8.379
    45   7 N        1.930    -0.207    26.318     7.607
    46   6 C        2.904     0.097    25.856     8.338
    47  15 P        4.095     0.061   157.539    22.547
    48   8 O        0.808    -0.358    20.881     6.125
    49   6 C        2.922     0.019    27.588     8.613
    50   6 C        3.034    -0.021    28.499     8.756
    51   6 C        2.919    -0.028    28.706     8.786
    52   6 C        2.920    -0.026    28.660     8.779
    53   6 C        2.920    -0.028    28.699     8.785
    54   6 C        2.974    -0.031    28.774     8.799
    55   6 C        2.922     0.016    27.654     8.624
    56   6 C        2.970    -0.029    28.717     8.790
    57   6 C        2.921    -0.026    28.642     8.776
    58   6 C        2.920    -0.026    28.648     8.777
    59   6 C        2.919    -0.029    28.715     8.787
    60   6 C        3.033    -0.021    28.508     8.758
    61   6 C        2.995    -0.030    28.737     8.794
    62   6 C        2.929    -0.013    28.348     8.732
    63   6 C        2.979    -0.003    28.101     8.695
    64   6 C        3.827     0.059    19.574     6.295
    65   7 N        1.844    -0.258    27.563     7.781
    66   6 C        2.923    -0.031    28.783     8.798
    67   6 C        2.920    -0.048    29.197     8.861
    68   6 C        2.926     0.059    26.668     8.469
    69   6 C        2.920    -0.048    29.194     8.861
    70   6 C        2.927    -0.035    28.863     8.811
    71   6 C        2.973     0.005    27.911     8.666
    72   6 C        3.903     0.026    20.082     6.370
    73   6 C        3.761    -0.108    22.617     6.779
    74   6 C        3.762    -0.106    22.571     6.772
    75   6 C        3.762    -0.106    22.572     6.773
    76   6 C        2.925    -0.039    28.962     8.825
    77   6 C        2.921    -0.048    29.183     8.859
    78   6 C        2.921    -0.048    29.181     8.859
    79   6 C        2.927    -0.035    28.864     8.811
    80   1 H        0.925     0.039     2.466     2.456
    81   1 H        0.925     0.036     2.499     2.472
    82   1 H        0.925     0.034     2.529     2.487
    83   1 H        0.925     0.038     2.476     2.461
    84   1 H        0.925     0.037     2.491     2.468
    85   1 H        0.925     0.038     2.479     2.462
    86   1 H        0.925     0.036     2.499     2.472
    87   1 H        0.925     0.039     2.465     2.455
    88   1 H        0.925     0.035     2.521     2.483
    89   1 H        0.926     0.044     2.390     2.418
    90   1 H        0.926     0.035     2.511     2.478
    91   1 H        0.926     0.041     2.437     2.441
    92   1 H        0.926     0.037     2.487     2.466
    93   1 H        0.926     0.056     2.242     2.341
    94   1 H        0.926     0.063     2.162     2.299
    95   1 H        0.923     0.045     2.382     2.413
    96   1 H        0.926     0.054     2.273     2.357
    97   1 H        0.926     0.069     2.092     2.262
    98   1 H        0.926     0.060     2.200     2.320
    99   1 H        0.926     0.040     2.451     2.448
   100   1 H        0.926     0.038     2.481     2.463
   101   1 H        0.926     0.036     2.502     2.474
   102   1 H        0.926     0.047     2.361     2.403
   103   1 H        0.926     0.061     2.186     2.312
   104   1 H        0.926     0.038     2.474     2.459
   105   1 H        0.926     0.036     2.505     2.475
   106   1 H        0.926     0.034     2.531     2.488
   107   1 H        0.926     0.057     2.240     2.340
   108   1 H        0.926     0.060     2.194     2.316
   109   1 H        0.926     0.037     2.487     2.466
   110   1 H        0.926     0.034     2.527     2.486
   111   1 H        0.926     0.034     2.530     2.487
   112   1 H        0.926     0.074     2.042     2.235
   113   1 H        0.926     0.066     2.126     2.280
   114   1 H        0.926     0.033     2.539     2.492
   115   1 H        0.926     0.035     2.517     2.481
   116   1 H        0.926     0.038     2.478     2.462
   117   1 H        0.926     0.061     2.192     2.315
   118   1 H        0.926     0.071     2.069     2.249
   119   1 H        0.926     0.049     2.334     2.389
   120   1 H        0.923     0.037     2.492     2.469
   121   1 H        0.926     0.037     2.484     2.465
   122   1 H        0.926     0.039     2.463     2.454
   123   1 H        0.926     0.032     2.564     2.504
   124   1 H        0.926     0.034     2.525     2.485
   125   1 H        0.925     0.036     2.497     2.471
   126   1 H        0.925     0.038     2.477     2.461
   127   1 H        0.925     0.036     2.499     2.472
   128   1 H        0.925     0.039     2.463     2.454
   129   1 H        0.925     0.037     2.491     2.468
   130   1 H        0.925     0.034     2.529     2.487
   131   1 H        0.925     0.037     2.491     2.468
   132   1 H        0.925     0.034     2.531     2.488
   133   1 H        0.925     0.039     2.464     2.455
   134   1 H        0.926     0.041     2.432     2.439
   135   1 H        0.926     0.033     2.546     2.495
   136   1 H        0.926     0.031     2.567     2.505
   137   1 H        0.926     0.034     2.532     2.488

molecular dipole:
                 x           y           z       tot (Debye)
 q only:       -1.649       0.940      -0.254
   full:       -1.768       0.585       0.252       4.777

 projected vibrational frequencies (cm⁻¹)
eigval :       -0.00    -0.00    -0.00     0.00     0.00     0.00
eigval :        3.72     5.52     6.65    11.38    13.03    16.94
eigval :       18.68    21.68    24.21    24.60    26.06    26.83
eigval :       28.42    30.34    32.37    36.56    45.62    48.33
eigval :       50.14    55.19    64.33    64.65    68.80    71.58
eigval :       74.45    84.57    93.98    97.68   101.52   104.27
eigval :      106.74   113.65   124.15   128.42   141.65   143.79
eigval :      146.52   152.46   159.95   165.93   170.02   171.40
eigval :      174.91   177.92   180.20   189.74   197.62   210.66
eigval :      212.80   220.04   222.00   222.54   226.75   235.80
eigval :      238.44   239.80   243.43   251.70   264.34   270.56
eigval :      283.07   285.33   287.69   290.46   299.12   305.29
eigval :      313.53   315.54   316.09   316.71   327.64   340.77
eigval :      354.23   356.56   360.40   361.72   364.69   368.41
eigval :      370.18   371.79   375.19   377.60   382.08   383.64
eigval :      384.76   389.71   391.46   394.72   401.30   405.77
eigval :      406.94   410.91   416.37   423.85   434.83   435.23
eigval :      442.00   449.76   450.73   459.07   463.98   480.30
eigval :      485.32   491.64   497.46   509.48   514.17   521.90
eigval :      529.01   532.95   538.44   552.17   558.02   565.12
eigval :      581.02   585.33   585.54   586.18   587.49   597.35
eigval :      602.31   605.16   607.10   610.83   612.23   616.79
eigval :      625.82   654.78   655.96   657.63   659.46   660.13
eigval :      665.85   684.27   687.72   688.98   690.23   691.29
eigval :      697.00   710.14   715.41   716.96   718.71   721.97
eigval :      725.34   734.04   740.79   745.53   748.52   751.96
eigval :      758.06   766.08   802.08   813.71   817.50   818.46
eigval :      822.64   831.04   833.89   864.09   864.94   868.42
eigval :      870.79   871.56   872.38   872.66   876.38   881.79
eigval :      882.54   884.23   887.40   898.74   903.11   906.78
eigval :      909.63   911.93   915.14   916.42   920.00   920.64
eigval :      920.99   925.17   926.33   926.83   929.37   929.64
eigval :      931.43   931.60   932.21   933.81   933.87   937.35
eigval :      940.38   945.29   960.58   960.59   962.93   963.19
eigval :      963.55   963.58   971.66   972.59   974.36   975.21
eigval :      976.05   985.21  1011.32  1026.16  1029.93  1035.44
eigval :     1035.53  1035.54  1035.89  1048.86  1063.41  1075.99
eigval :     1077.86  1078.15  1080.96  1095.40  1103.44  1110.34
eigval :     1110.48  1115.02  1117.49  1122.10  1122.95  1124.80
eigval :     1125.80  1126.35  1144.12  1144.49  1147.03  1153.27
eigval :     1153.40  1153.95  1160.81  1162.08  1179.41  1180.39
eigval :     1180.98  1182.23  1187.90  1188.28  1189.76  1190.88
eigval :     1193.26  1195.35  1198.15  1199.65  1202.13  1209.28
eigval :     1217.03  1227.00  1227.66  1227.72  1228.72  1234.36
eigval :     1234.51  1246.80  1253.08  1258.93  1261.38  1265.81
eigval :     1266.35  1267.53  1270.80  1272.70  1275.27  1277.59
eigval :     1279.12  1281.64  1285.14  1285.62  1290.15  1292.36
eigval :     1311.09  1315.32  1319.95  1320.54  1320.65  1320.92
eigval :     1322.21  1323.93  1328.51  1331.46  1348.09  1364.19
eigval :     1369.24  1399.42  1403.10  1404.97  1406.09  1406.33
eigval :     1410.17  1416.15  1423.74  1424.16  1424.50  1424.77
eigval :     1425.82  1428.38  1429.89  1429.91  1431.90  1450.06
eigval :     1451.75  1451.98  1452.95  1485.00  1486.58  1486.94
eigval :     1491.76  1491.87  1494.28  1494.31  1502.20  1502.33
eigval :     1506.09  1506.20  1514.35  1514.52  1519.31  1519.48
eigval :     1523.53  1538.56  1541.58  1546.24  1553.80  1560.96
eigval :     1564.87  1569.20  1574.82  1581.84  1582.95  1583.46
eigval :     1584.08  1584.63  1585.14  1585.56  1585.64  1586.36
eigval :     1599.98  1600.88  1605.28  1614.10  2364.21  2838.02
eigval :     2869.49  3024.42  3024.44  3025.83  3025.93  3028.22
eigval :     3028.68  3031.50  3031.91  3033.06  3033.40  3036.89
eigval :     3037.71  3040.27  3040.78  3046.87  3047.59  3050.45
eigval :     3051.15  3068.25  3069.27  3071.12  3071.73  3072.27
eigval :     3074.39  3075.24  3075.77  3076.28  3077.75  3078.15
eigval :     3078.68  3080.81  3081.54  3081.89  3082.16  3083.10
eigval :     3083.65  3083.78  3084.10  3086.43  3087.14  3088.73
eigval :     3090.31  3091.06  3091.81  3092.02  3092.08  3092.17
eigval :     3095.08  3095.45  3095.84  3097.29  3099.55  3102.12
eigval :     3117.12  3120.09  3129.04

   temp. (K)  partition function   enthalpy   heat capacity  entropy
                                   cal/mol     cal/K/mol   cal/K/mol   J/K/mol
 298.15  VIB  0.165E+38            43302.816    256.853    275.924
         ROT  0.497E+09              888.752      2.981     42.773
         INT  0.822E+46            44191.568    259.833    318.697
         TR   0.336E+29             1481.254      4.968     46.749
         TOT                       45672.8222   264.8016   365.4455  1529.0238

       T/K    H(0)-H(T)+PV         H(T)/Eh          T*S/Eh         G(T)/Eh
   ------------------------------------------------------------------------
    298.15    0.727843E-01    0.114052E+01    0.173635E+00    0.966885E+00
   ------------------------------------------------------------------------

         :::::::::::::::::::::::::::::::::::::::::::::::::::::
         ::                  THERMODYNAMIC                  ::
         :::::::::::::::::::::::::::::::::::::::::::::::::::::
         :: total free energy        -207.142687089824 Eh   ::
         ::.................................................::
         :: total energy             -208.109572466373 Eh   ::
         :: zero point energy           1.067736027483 Eh   ::
         :: G(RRHO) w/o ZPVE           -0.100850650934 Eh   ::
         :: G(RRHO) contrib.            0.966885376549 Eh   ::
         :::::::::::::::::::::::::::::::::::::::::::::::::::::

           -------------------------------------------------
          | TOTAL ENERGY             -208.109572466373 Eh   |
          | TOTAL ENTHALPY           -206.969052163836 Eh   |
          | TOTAL FREE ENERGY        -207.142687089824 Eh   |
          | GRADIENT NORM               0.000081361373 Eh/α |
          | HOMO-LUMO GAP               0.524319387782 eV   |
           -------------------------------------------------

 * finished run on 2025/08/24 at 08:55:58.776
