   * xtb version 6.7.1 (edcfbbe) compiled by 'albert@albert-system' on 2024-07-22

   ID    Z sym.   atoms
    1    6 C      1-8, 10-20, 23-27, 30-41, 43, 44, 46, 49-64, 66-79
    2    7 N      9, 21, 22, 42, 45, 65
    3   15 P      28, 47
    4    8 O      29, 48
    5    1 H      80-137

          program call               : xtb data2507/gas/PO-TPA/PO-TPA_gas_T1_crest.xyz --gfn 2 --spinpol --tblite --uhf 2 --ohess vtight --parallel 40 --molden --ceasefiles --namespace data2507/gas/PO-TPA/PO-TPA_gas_T1_finalOpt
 * total energy  :  -208.0934483 Eh     change       -0.2850470E-08 Eh
 * total energy  :  -208.0934842 Eh     change       -0.3592118E-04 Eh
 * total energy  :  -208.0934942 Eh     change       -0.1005281E-04 Eh
 * total energy  :  -208.0934950 Eh     change       -0.7421788E-06 Eh
 * total energy  :  -208.0934980 Eh     change       -0.2978708E-05 Eh
 * total energy  :  -208.0934997 Eh     change       -0.1698243E-05 Eh
 * total energy  :  -208.0935007 Eh     change       -0.1052665E-05 Eh
 * total energy  :  -208.0935026 Eh     change       -0.1918464E-05 Eh
 * total energy  :  -208.0935028 Eh     change       -0.1670579E-06 Eh
 * total energy  :  -208.0935036 Eh     change       -0.8530205E-06 Eh
 * total energy  :  -208.0935102 Eh     change        0.1152429E-06 Eh
 * total energy  :  -208.0935096 Eh     change        0.5215096E-06 Eh
 * total energy  :  -208.0935090 Eh     change        0.6716884E-06 Eh
 * total energy  :  -208.0935078 Eh     change        0.1214121E-05 Eh
 * total energy  :  -208.0935071 Eh     change        0.6253203E-06 Eh
 * total energy  :  -208.0935060 Eh     change        0.1118842E-05 Eh
 * total energy  :  -208.0935095 Eh     change       -0.3525048E-05 Eh
 * total energy  :  -208.0935109 Eh     change       -0.1325587E-05 Eh
 * total energy  :  -208.0935110 Eh     change       -0.9476292E-07 Eh
   *** GEOMETRY OPTIMIZATION CONVERGED AFTER 32 ITERATIONS ***

 final structure:
================
137
 xtb: 6.7.1 (edcfbbe)
C           -9.85533332155159        6.16170631022097        1.78508104755131
C          -10.39394791589319        5.33298347691362        0.61588381198903
C          -10.08411231810616        6.08468610522673       -0.68658526400349
C          -11.91340350818681        5.19428796905795        0.78722696609829
C           -9.77520728035092        3.94680238844877        0.54656940406121
C          -10.16538392950098        3.06834427098885       -0.46332876681809
C           -9.63327686106867        1.80141792473231       -0.57110075150893
C           -8.68002191582683        1.35769286088512        0.34432250987575
N           -8.14126393727925        0.06977218250812        0.24814055453009
C           -6.79814890588944       -0.15469376087862        0.53223410748024
C           -6.38584332515376       -1.35711936326599        1.11316797147642
C           -5.05338694880741       -1.59251167676945        1.36508003520195
C           -4.08473246819270       -0.63551362913135        1.05776101442661
C           -2.66651467753317       -0.88854574883192        1.31409354405907
C           -1.86602248834211        0.08604554142817        1.86475793567680
C           -0.50304195855136       -0.11597522394141        2.13691149555832
C            0.07437130529834       -1.44310495340887        1.85388110637428
C           -0.75034829444883       -2.40005600759809        1.24428202378154
C           -2.08220178059420       -2.14431949250875        0.97994776801885
C           -2.83168848447967       -3.13515177707215        0.31398198532691
N           -3.40297852952066       -3.95632063740184       -0.25042153172408
N            1.31066682029609       -1.68988414502427        2.18147152538226
C            2.04447482385926       -0.79890862369731        2.99068356438902
C            3.52349578766752       -0.99193673403005        2.81573347490704
C            4.25965234870880       -1.79661877940481        3.67328580946896
C            5.61690696394348       -1.95272792500530        3.44737598232251
C            6.18202972200905       -1.30557697770816        2.35557891576415
P            7.98073915645604       -1.43710961808867        2.07127450367970
O            8.66600601413863       -2.23464251435300        3.09562772192729
C            8.54657036483492        0.29210260124756        1.98802927577984
C            9.72193936553887        0.58872127565906        2.66443629282676
C           10.22587319920177        1.87670395344748        2.64105939234665
C            9.54988949143369        2.86704018143938        1.94683461186345
C            8.37371388713943        2.56958474021186        1.27640520439992
C            7.87067845746835        1.28108051884435        1.28603609075142
C            8.16400166856809       -2.09111925109176        0.38307469862565
C            9.26689112135718       -2.90176163668607        0.15225009599466
C            9.49559797003903       -3.40957496542151       -1.11403210071332
C            8.62244732863650       -3.10489643048682       -2.14572232329404
C            7.51765077518127       -2.30096586605595       -1.91137019680977
C            7.28398139408243       -1.79046287979386       -0.64662416003091
N            5.48448444619563       -0.54890351951148        1.52442014351099
C            4.18829984808224       -0.38343725298476        1.74447905212151
C            3.44808030460819        0.50545367577529        0.84362678343882
N            3.98315495610046        0.78879093061215       -0.33660915955754
C            3.32942289710327        1.60151993048930       -1.15066587698786
P            4.04495346617848        1.97201057776947       -2.79138730466918
O            3.30319036759426        3.02969718667762       -3.48919231114241
C            5.79182168790487        2.37784240079647       -2.49045266771034
C            6.73206561419789        1.41075445911182       -2.16736536258469
C            8.05156943170516        1.77540252042593       -1.97462275386504
C            8.43064018572026        3.10246302250380       -2.10452050051321
C            7.49087828804933        4.06792297198858       -2.42954606621615
C            6.16961112238334        3.70627442825319       -2.62470597760648
C            4.05571433880973        0.37114777627885       -3.65988621529811
C            4.20064037928860       -0.84895848310979       -3.01362591632073
C            4.21119008009640       -2.01709445863445       -3.75587124117741
C            4.08287280214180       -1.96844283371297       -5.13511262538469
C            3.93329767062615       -0.75020794335493       -5.77827019017958
C            3.91732228505388        0.41963282996963       -5.04036141246235
C            2.10838702015071        2.18020946126490       -0.82737885383510
C            1.54626560926218        1.88769520559038        0.40219617409201
C            2.21950560844881        1.03374984859269        1.26376664858147
C            1.65468789457607        0.68173291282829        2.62095015938670
N            0.25502714759156        0.80856898704994        2.65687810074383
C           -4.50380704380823        0.57626304459406        0.50564680229200
C           -5.83334160538147        0.81308055680899        0.23871614601910
C           -8.96201062516281       -0.99438430577659       -0.14740557916352
C           -8.47182504808500       -2.00604090777903       -0.97212269934993
C           -9.28840931655591       -3.04876159129067       -1.35347344218721
C          -10.61859087532793       -3.12970600816053       -0.94339886866352
C          -11.47195456407212       -4.30297948128129       -1.39496523632116
C          -11.53797244536442       -4.31297907409472       -2.92892382714977
C          -12.90329188810006       -4.23368118695814       -0.85588202297133
C          -10.83321031904710       -5.60600266402822       -0.89373741253513
C          -11.09676759968255       -2.11118534611665       -0.12654974768710
C          -10.28817979553665       -1.06289815637970        0.26968751264414
C           -8.28416563808174        2.22401090321343        1.35983915163780
C           -8.82228654448569        3.49332848136714        1.45191481094973
H          -10.07327977421610        5.68388751785117        2.73744332143438
H           -8.78175753283619        6.31155655474658        1.69752378186484
H          -10.33130195878080        7.14012264590495        1.78442102688537
H          -10.50062074320548        5.57263214367986       -1.54945614558028
H           -9.00825716686073        6.16802065651635       -0.82592357269939
H          -10.50575156553916        7.08677904480206       -0.64933320472110
H          -12.36112388966248        4.66751657686481       -0.05081747109764
H          -12.14038779669927        4.64302426259797        1.69747834393941
H          -12.37329444719231        6.17773652477655        0.85580418074938
H          -10.89770903028700        3.37604520515627       -1.19408563548280
H           -9.94755317603333        1.14711675442049       -1.37100918034465
H           -7.12315374555553       -2.10213633141240        1.37179571553639
H           -4.76164239237657       -2.52017320980176        1.83363155252738
H           -2.27378522677773        1.05957984678678        2.09172737923602
H           -0.32114771317215       -3.36276474800846        1.01104455672755
H            1.77872639941022       -0.96742696968730        4.04917293989629
H            3.77503119333428       -2.28738742194189        4.50575142108088
H            6.24583229636431       -2.55251402506862        4.08704996424586
H           10.22160607944937       -0.19918482085597        3.20986441205600
H           11.14107931803472        2.10969668828832        3.16562500914624
H            9.93841095156318        3.87510416624613        1.93137663214048
H            7.84606897871852        3.34426558099241        0.73907811303723
H            6.95266962870222        1.04542569909506        0.77059103119929
H            9.92648049205133       -3.13231194575926        0.97667478989476
H           10.35205727426352       -4.04188547193634       -1.29735867921845
H            8.79974927844377       -3.49865087265375       -3.13605329619508
H            6.83804940029954       -2.07476672815429       -2.72109423542644
H            6.42263315954154       -1.17359391145439       -0.43880920254137
H            6.42936473216938        0.38156680200307       -2.07565023704899
H            8.78497721713330        1.02322176054266       -1.72202678423044
H            9.46270210709653        3.38366995606983       -1.95332667138515
H            7.78945774872383        5.10107673481106       -2.53397616512595
H            5.42022256842533        4.43766508468431       -2.89221241739293
H            4.29103761015164       -0.88037539995885       -1.93734284010143
H            4.31633648477557       -2.96973388630976       -3.25626869383051
H            4.09300026190344       -2.88370490158852       -5.70883509286289
H            3.82671732574123       -0.71437353782839       -6.85253214803892
H            3.78824310186302        1.38135964920960       -5.51614700244148
H            1.63470678618028        2.83864182443163       -1.53903529370894
H            0.59783712353920        2.31035462270195        0.70265878761482
H            2.09576665809774        1.34417584634687        3.37898302127015
H           -3.76872023817006        1.32291045022146        0.24377800634256
H           -6.13615816913234        1.74260523224136       -0.22034251294336
H           -7.44868464193032       -1.96732063955508       -1.31583600557540
H           -8.87147316430135       -3.81129859754522       -1.99301385145111
H          -12.15928052985501       -5.13787946934279       -3.27082930092914
H          -10.55088264299882       -4.42658644742684       -3.36791483780540
H          -11.96873869605763       -3.38250216667352       -3.29322462605682
H          -13.41035568305557       -3.33656703728812       -1.20371960680719
H          -13.46532222702215       -5.09521250267091       -1.21047865795221
H          -12.91384933833662       -4.25156201077033        0.23147966785938
H          -10.76541218955252       -5.59808475985164        0.19219371077754
H           -9.83294813406561       -5.73825030201214       -1.29612310138408
H          -11.43738335502115       -6.45884897626432       -1.19549544610055
H          -12.11501670745727       -2.12204579806998        0.22592526296147
H          -10.68368997563174       -0.29181312158573        0.91487946859347
H           -7.55577524367878        1.89408469588565        2.08632874804432
H           -8.48653909297133        4.12484456351439        2.25787204541959

 projected vibrational frequencies (cm⁻¹)
eigval :       -0.00    -0.00     0.00     0.00     0.00     0.00
eigval :        5.03     5.45     7.43    11.64    13.99    16.23
eigval :       19.68    21.82    23.29    24.55    25.55    27.30
eigval :       28.98    29.76    31.26    40.26    42.95    49.17
eigval :       51.50    56.72    62.76    64.75    68.70    74.14
eigval :       80.13    86.49    89.38    94.95    97.25   101.48
eigval :      103.31   108.83   116.07   132.40   139.04   147.70
eigval :      155.18   157.87   162.39   169.65   171.26   172.29
eigval :      176.47   177.38   181.50   192.14   200.55   203.13
eigval :      219.98   221.12   221.89   224.12   229.27   231.66
eigval :      234.48   242.16   249.92   254.72   263.12   277.40
eigval :      282.56   284.27   285.95   292.73   299.61   312.57
eigval :      314.67   315.65   316.30   328.27   340.10   341.94
eigval :      351.71   357.02   361.96   362.17   364.02   368.24
eigval :      369.39   372.51   375.23   381.65   382.52   383.78
eigval :      389.63   389.89   393.24   394.35   402.81   408.08
eigval :      408.92   418.57   424.15   428.27   432.05   436.40
eigval :      436.90   443.94   451.39   457.72   461.75   467.16
eigval :      490.55   493.45   501.65   506.32   515.63   519.68
eigval :      525.72   534.72   539.52   550.04   557.51   569.79
eigval :      584.83   585.27   585.88   586.34   589.28   595.94
eigval :      603.39   604.64   606.94   608.48   610.18   615.72
eigval :      622.05   637.42   655.01   656.64   658.70   659.06
eigval :      660.12   672.32   681.08   687.50   689.72   690.75
eigval :      692.08   701.60   709.57   713.68   715.51   717.70
eigval :      718.83   732.92   741.10   744.49   748.32   751.55
eigval :      757.71   762.08   801.02   812.92   816.36   817.13
eigval :      820.30   820.80   829.89   832.50   850.54   864.54
eigval :      866.27   868.56   871.01   873.08   876.15   879.93
eigval :      882.24   883.27   887.12   895.37   899.34   905.22
eigval :      910.39   911.30   914.18   915.40   917.98   920.49
eigval :      921.60   924.90   925.48   926.02   928.26   928.91
eigval :      929.96   931.63   931.85   932.05   933.78   934.53
eigval :      936.19   940.14   945.68   960.39   960.51   962.68
eigval :      962.90   963.42   963.53   971.62   972.94   974.88
eigval :      976.03   980.46  1011.16  1025.30  1032.12  1035.14
eigval :     1035.22  1035.28  1035.63  1056.40  1057.95  1075.38
eigval :     1077.35  1077.71  1080.68  1092.02  1104.35  1109.32
eigval :     1109.76  1114.28  1116.79  1121.83  1122.43  1122.85
eigval :     1125.26  1126.27  1143.55  1143.79  1145.31  1148.32
eigval :     1153.14  1154.41  1154.49  1160.55  1177.44  1179.10
eigval :     1179.83  1180.35  1181.43  1186.01  1187.31  1187.83
eigval :     1188.63  1192.35  1198.71  1199.11  1208.31  1208.75
eigval :     1213.57  1226.19  1227.22  1227.27  1230.72  1233.84
eigval :     1233.99  1246.27  1253.64  1260.43  1262.37  1263.56
eigval :     1265.04  1266.69  1270.34  1270.97  1274.94  1276.44
eigval :     1277.20  1279.99  1284.05  1287.98  1289.25  1292.98
eigval :     1303.21  1314.55  1317.37  1320.32  1320.64  1320.74
eigval :     1322.12  1323.63  1325.03  1329.54  1331.93  1370.98
eigval :     1394.69  1399.61  1401.77  1402.67  1405.57  1405.76
eigval :     1409.27  1416.02  1419.78  1422.50  1423.42  1423.97
eigval :     1425.43  1427.73  1428.76  1428.85  1430.22  1449.30
eigval :     1449.76  1450.85  1451.41  1451.95  1482.74  1483.78
eigval :     1484.27  1490.88  1491.01  1493.10  1493.47  1500.94
eigval :     1501.19  1503.99  1504.99  1505.20  1513.93  1514.05
eigval :     1518.63  1518.67  1520.60  1532.39  1539.31  1544.79
eigval :     1547.76  1551.64  1560.41  1561.23  1565.32  1581.50
eigval :     1582.03  1583.30  1583.79  1584.17  1584.77  1585.07
eigval :     1585.67  1586.49  1595.46  1601.95  2351.47  2813.42
eigval :     2876.94  3024.01  3024.31  3025.50  3025.88  3027.86
eigval :     3028.16  3030.99  3031.40  3032.67  3032.90  3036.08
eigval :     3036.54  3039.40  3039.78  3047.48  3049.37  3050.76
eigval :     3052.80  3069.02  3069.84  3071.00  3071.66  3071.81
eigval :     3074.34  3074.50  3075.12  3075.57  3076.02  3079.21
eigval :     3079.46  3079.93  3080.72  3081.22  3081.42  3082.03
eigval :     3082.29  3084.03  3084.10  3087.63  3087.74  3088.76
eigval :     3089.24  3089.67  3089.88  3091.43  3092.21  3093.04
eigval :     3093.15  3096.15  3096.27  3096.94  3099.00  3102.77
eigval :     3115.64  3116.16  3130.46

   temp. (K)  partition function   enthalpy   heat capacity  entropy
                                   cal/mol     cal/K/mol   cal/K/mol   J/K/mol
 298.15  VIB  0.916E+37            43287.264    257.293    275.292
         ROT  0.515E+09              888.752      2.981     42.845
         INT  0.472E+46            44176.016    260.274    318.137
         TR   0.336E+29             1481.254      4.968     46.749
         TOT                       45657.2704   265.2422   364.8859  1526.6824

       T/K    H(0)-H(T)+PV         H(T)/Eh          T*S/Eh         G(T)/Eh
   ------------------------------------------------------------------------
    298.15    0.727595E-01    0.113906E+01    0.173369E+00    0.965690E+00
   ------------------------------------------------------------------------

         :::::::::::::::::::::::::::::::::::::::::::::::::::::
         ::                  THERMODYNAMIC                  ::
         :::::::::::::::::::::::::::::::::::::::::::::::::::::
         :: total free energy        -207.127820476048 Eh   ::
         ::.................................................::
         :: total energy             -208.093510868973 Eh   ::
         :: zero point energy           1.066299948057 Eh   ::
         :: G(RRHO) w/o ZPVE           -0.100609555132 Eh   ::
         :: G(RRHO) contrib.            0.965690392925 Eh   ::
         :::::::::::::::::::::::::::::::::::::::::::::::::::::

           -------------------------------------------------
          | TOTAL ENERGY             -208.093510868973 Eh   |
          | TOTAL ENTHALPY           -206.954451429199 Eh   |
          | TOTAL FREE ENERGY        -207.127820476048 Eh   |
          | GRADIENT NORM               0.000172584197 Eh/α |
           -------------------------------------------------

 * finished run on 2025/08/24 at 10:28:59.341
