   * xtb version 6.7.1 (edcfbbe) compiled by 'albert@albert-system' on 2024-07-22

   ID    Z sym.   atoms
    1    6 C      1-8, 10-20, 23-27, 30-41, 43, 44, 46, 49-64, 66-79
    2    7 N      9, 21, 22, 42, 45, 65
    3   15 P      28, 47
    4    8 O      29, 48
    5    1 H      80-137

          program call               : xtb data2507/gas/PO-TPA/PO-TPA_gas_S0_crest.xyz --gfn 2 --ohess vtight --parallel 40 --molden --ceasefiles --namespace data2507/gas/PO-TPA/PO-TPA_gas_S0_finalOpt
          :  Hamiltonian                  GFN2-xTB          :
 * total energy  :  -208.1109708 Eh     change       -0.1924226E-07 Eh
 * total energy  :  -208.1108061 Eh     change        0.1647105E-03 Eh
 * total energy  :  -208.1109964 Eh     change       -0.1902806E-03 Eh
 * total energy  :  -208.1109989 Eh     change       -0.2536658E-05 Eh
 * total energy  :  -208.1110019 Eh     change       -0.2966939E-05 Eh
 * total energy  :  -208.1110061 Eh     change       -0.4255550E-05 Eh
 * total energy  :  -208.1110083 Eh     change       -0.2169931E-05 Eh
 * total energy  :  -208.1110111 Eh     change       -0.2863986E-05 Eh
 * total energy  :  -208.1110170 Eh     change       -0.5808173E-05 Eh
 * total energy  :  -208.1110254 Eh     change       -0.8479288E-05 Eh
 * total energy  :  -208.1112144 Eh     change       -0.1969089E-05 Eh
 * total energy  :  -208.1112163 Eh     change       -0.1886916E-05 Eh
 * total energy  :  -208.1112181 Eh     change       -0.1786968E-05 Eh
 * total energy  :  -208.1112197 Eh     change       -0.1619060E-05 Eh
 * total energy  :  -208.1112212 Eh     change       -0.1440635E-05 Eh
 * total energy  :  -208.1112226 Eh     change       -0.1432729E-05 Eh
 * total energy  :  -208.1112241 Eh     change       -0.1491651E-05 Eh
 * total energy  :  -208.1112257 Eh     change       -0.1640408E-05 Eh
 * total energy  :  -208.1112257 Eh     change       -0.6906760E-08 Eh
   *** GEOMETRY OPTIMIZATION CONVERGED AFTER 94 ITERATIONS ***

 final structure:
================
137
 xtb: 6.7.1 (edcfbbe)
C           -9.97382797666516        5.80356578699680        2.60347816345396
C          -10.44059588876220        5.15265848807800        1.29871730109569
C          -10.04797991429025        6.07573772570734        0.13621164226441
C          -11.96797505172656        5.00867250503719        1.35514908571738
C           -9.82014396703661        3.78380806566693        1.07240532554944
C          -10.14969793056250        3.05971696370268       -0.07207587826266
C           -9.60380897453430        1.82017396355342       -0.33045947104945
C           -8.69893113971131        1.25079041267001        0.56221522439351
N           -8.14209010922742       -0.01187431416355        0.30532908468661
C           -6.80525363478777       -0.26058370507667        0.56043263125558
C           -6.36484706823038       -1.55127198388065        0.87613112028975
C           -5.02998577268193       -1.80775251366897        1.08488757683932
C           -4.08276779502148       -0.78394605352937        1.01244799099505
C           -2.66045881557597       -1.04476496563279        1.21661427838363
C           -1.88019513491058       -0.21774208040424        1.95881503958449
C           -0.47576359302116       -0.44299465545415        2.11738169073717
C            0.09676844737441       -1.68883697565228        1.56492381633427
C           -0.73450949087239       -2.48809476143238        0.70798940258140
C           -2.05033795693545       -2.19254759988495        0.55919072583648
C           -2.82141859539127       -2.98617101155417       -0.32409391243078
N           -3.39961085169353       -3.63748022389894       -1.07001377071494
N            1.27454243221143       -2.09278515046529        1.86818702846790
C            2.04123053743080       -1.28839452978866        2.79344914374710
C            3.50296612422575       -1.52611639267657        2.53018788445712
C            4.20149710945066       -2.55592105655046        3.14320446124060
C            5.54201656869281       -2.73131284712147        2.84423508309882
C            6.12639954502414       -1.87702816930489        1.91755079909561
P            7.90707507708358       -2.03511214434625        1.55044669663627
O            8.56413880317848       -3.09269300065818        2.32854367568886
C            8.57702989724321       -0.37057202651826        1.86457638564978
C            9.79118967868394       -0.31109298676104        2.53483608358468
C           10.37351850565515        0.91498451020245        2.80121630315132
C            9.73685353957863        2.07953992113391        2.40350131564461
C            8.52182379905677        2.01787659987566        1.73934248262304
C            7.94050020452690        0.79453858293459        1.45852607951879
C            8.02449098521482       -2.26666852693108       -0.25103907582658
C            9.08810582862782       -3.03428168680208       -0.70537619950675
C            9.26900407178093       -3.22645607142012       -2.06328078017695
C            8.38726494132427       -2.65013551984299       -2.96328581516007
C            7.32147033245324       -1.89003161631107       -2.50731051453533
C            7.13593210909608       -1.69459752375929       -1.14995626030650
N            5.46158152680947       -0.90857358975708        1.31010325120888
C            4.18279661723051       -0.72448647288718        1.60594232861003
C            3.48809909163698        0.39124138554997        0.95583859444496
N            4.04733096163674        0.93041998508013       -0.12110457879004
C            3.45201846054740        1.96249225563204       -0.69606835480022
P            4.18718369611004        2.68373519491788       -2.20586225258483
O            3.52154266769581        3.93188349273313       -2.60019551322137
C            5.96273285591232        2.87719552370338       -1.86571279054958
C            6.82935545117696        1.79557464442883       -1.81424821892615
C            8.17568746579885        2.00691160178239       -1.58213207449226
C            8.65487397033493        3.29516416789890       -1.40241411603488
C            7.78838808406323        4.37558414852471       -1.45547533431155
C            6.44048288608881        4.16796473146976       -1.68909477972621
C            4.06946462205814        1.35638534528349       -3.44814952098660
C            4.12012767977745        0.00579946044355       -3.13115316818669
C            4.03079940095083       -0.93620964906223       -4.14124508567948
C            3.89698633449132       -0.53356325467836       -5.46075026084853
C            3.84207338985230        0.81482343993162       -5.77530489231120
C            3.92567192447892        1.75975208444309       -4.76863552361294
C            2.27258888022842        2.52145549740723       -0.22038633308064
C            1.67982024673025        1.95759929487766        0.89500563028027
C            2.28651761678588        0.86483180901875        1.49888391292760
C            1.68300948179863        0.20586323447491        2.72211262600792
N            0.25757292456751        0.43099207234564        2.71040659687588
C           -4.52858947684160        0.51101611853092        0.73766261720714
C           -5.85841720046819        0.76929558177665        0.50329527887195
C           -8.96135370642950       -1.00823143345210       -0.25043863533423
C           -8.48215471674538       -1.86116522852897       -1.24220711963916
C           -9.30125715871625       -2.83185824086782       -1.77874794254277
C          -10.62292533070543       -2.98983429122359       -1.36503104080259
C          -11.47913101385363       -4.07810601294895       -1.99137811819792
C          -11.57348183204036       -3.83292576128568       -3.50405865693783
C          -12.90053538159701       -4.11060286727793       -1.42338087087132
C          -10.82561446846752       -5.44168195259945       -1.72559995107175
C          -11.09138536838885       -2.12453232554693       -0.38316900531598
C          -10.27929130873949       -1.15192360594030        0.16955598235071
C           -8.37148613609089        1.95634256480623        1.71550729372006
C           -8.92140619583849        3.20101608974941        1.95847379507119
H          -10.25055897450181        5.19893779948223        3.46409747041384
H           -8.89669675698156        5.95352625093889        2.60317803474936
H          -10.44747899952611        6.77711974439071        2.71161452969887
H          -10.41018195700308        5.69345852704793       -0.81402846169099
H           -8.96531159796925        6.16618445604776        0.07691193023526
H          -10.46915859870415        7.06731310063898        0.28705614266448
H          -12.36397351024986        4.60999968307777        0.42537538955039
H          -12.25290890055583        4.33776377371454        2.16300813913573
H          -12.42858558031853        5.97800337056510        1.53303485158104
H          -10.84265774863888        3.47009820359268       -0.79065091369553
H           -9.87099099495490        1.28581616707320       -1.23042997300941
H           -7.08432537506114       -2.35133246067918        0.96144917991775
H           -4.72262695056390       -2.80889500143392        1.34833104504527
H           -2.29326946847898        0.65601269115394        2.43867109811028
H           -0.28307058493333       -3.33944923620534        0.22095812296085
H            1.79911452427115       -1.67191087815730        3.79855633192623
H            3.70102452750338       -3.20333347400902        3.84947049919431
H            6.14334175094395       -3.50099264509155        3.30303295841857
H           10.25896737679802       -1.23384329692454        2.84744100016607
H           11.31924241724252        0.96378258940911        3.32120663285086
H           10.18668448071581        3.03880192134805        2.61543759697169
H            8.02495209650083        2.92740651718060        1.43420957049605
H            6.99273781005980        0.74036158238906        0.94565316022957
H            9.75524660221868       -3.48112347004922        0.01793294848749
H           10.09509624935149       -3.82394984645417       -2.42051345242327
H            8.52743141610698       -2.79659939843664       -4.02453283238811
H            6.63501915810101       -1.44975089938846       -3.21699615163068
H            6.30613862485009       -1.11621048952418       -0.77219459091304
H            6.44909139911768        0.79917689590222       -1.96140345633875
H            8.85171247190584        1.16502219194282       -1.54091046821719
H            9.70763674377686        3.45653810366098       -1.22156424417646
H            8.16478721274093        5.37909158498764       -1.31832795332029
H            5.74633358387554        4.99423048108202       -1.74869614142690
H            4.21646692832580       -0.30097904732478       -2.09953471096093
H            4.06236074471510       -1.98898046277215       -3.89824259170342
H            3.82913703786146       -1.27369880212830       -6.24474625918273
H            3.73146012399594        1.12702677629255       -6.80343090621418
H            3.87113961638128        2.81705182509287       -4.98561498593987
H            1.85064834009971        3.37308851057410       -0.73133180010831
H            0.75835218467515        2.34835978274496        1.30116993184463
H            2.08032287751005        0.71848197911896        3.61059683928272
H           -3.80879191650265        1.31248435913319        0.66029799538378
H           -6.17619791700593        1.76959298573111        0.25025720086427
H           -7.46583002390857       -1.75717220092315       -1.59300307656597
H           -8.89292763653003       -3.47334554602486       -2.54444247497473
H          -12.19791225985812       -4.59341642073545       -3.96791002823538
H          -10.59421879548497       -3.86501778231519       -3.97315038429246
H          -12.01430748739368       -2.85764798106011       -3.70035225371435
H          -13.41829311546061       -3.17225388404408       -1.60857082534761
H          -13.46485075796834       -4.90580344306398       -1.90618114736065
H          -12.89080065820874       -4.30853887032977       -0.35402053785063
H          -10.73840688127438       -5.61450508079238       -0.65485217219437
H           -9.83214008353147       -5.49740385461488       -2.16140943434290
H          -11.43112986278554       -6.23684849635667       -2.15515249914014
H          -12.10418222377453       -2.19887462837011       -0.02283503723599
H          -10.66735658610961       -0.49756034089647        0.93673502073993
H           -7.68385538025256        1.52297878694025        2.42742589783844
H           -8.63702876048258        3.70851508415376        2.86551366655835

          :  Hamiltonian                  GFN2-xTB          :
         :: gradient norm              0.000062462728 Eh/a0 ::
         :: HOMO-LUMO gap              0.520478057138 eV    ::
         :: SCC energy              -211.736803146022 Eh    ::
         :: -> dispersion             -0.201790239971 Eh    ::
         :: repulsion energy           3.625577423414 Eh    ::

    * Orbital Energies and Occupations

         #    Occupation            Energy/Eh            Energy/eV
      -------------------------------------------------------------
         1        2.0000           -0.6917592             -18.8237
       ...           ...                  ...                  ...
       181        2.0000           -0.4093428             -11.1388
       182        2.0000           -0.4086536             -11.1200
       183        2.0000           -0.4075407             -11.0897
       184        2.0000           -0.4066662             -11.0660
       185        2.0000           -0.4057887             -11.0421
       186        2.0000           -0.4036763             -10.9846
       187        2.0000           -0.3983735             -10.8403
       188        2.0000           -0.3977246             -10.8226
       189        2.0000           -0.3954748             -10.7614
       190        2.0000           -0.3779294             -10.2840
       191        2.0000           -0.3738689             -10.1735
       192        2.0000           -0.3627757              -9.8716
       193        1.9999           -0.3569409              -9.7129 (HOMO)
       194        0.0001           -0.3378139              -9.1924 (LUMO)
       195                         -0.2866374              -7.7998
       196                         -0.2696414              -7.3373
       197                         -0.2684113              -7.3038
       198                         -0.2664728              -7.2511
       199                         -0.2491744              -6.7804
       200                         -0.2483227              -6.7572
       201                         -0.2480170              -6.7489
       202                         -0.2370133              -6.4495
       203                         -0.2358754              -6.4185
       204                         -0.2347541              -6.3880
       ...                                ...                  ...
       384                          1.2015561              32.6960
      -------------------------------------------------------------
                  HL-Gap            0.0191270 Eh            0.5205 eV

     #   Z          covCN         q      C6AA      α(0)
     1   6 C        3.761    -0.108    22.616     6.779
     2   6 C        3.903     0.026    20.082     6.370
     3   6 C        3.762    -0.106    22.574     6.773
     4   6 C        3.762    -0.106    22.573     6.773
     5   6 C        2.973     0.005    27.907     8.665
     6   6 C        2.927    -0.034    28.855     8.809
     7   6 C        2.921    -0.047    29.169     8.857
     8   6 C        2.926     0.059    26.669     8.469
     9   7 N        2.752    -0.063    22.464     7.039
    10   6 C        2.923     0.070    26.431     8.431
    11   6 C        2.921    -0.047    29.171     8.857
    12   6 C        2.922    -0.027    28.688     8.783
    13   6 C        2.977    -0.002    28.065     8.690
    14   6 C        2.970     0.020    27.561     8.611
    15   6 C        2.920    -0.053    29.313     8.879
    16   6 C        2.924     0.096    25.863     8.340
    17   6 C        2.926     0.099    25.806     8.331
    18   6 C        2.930    -0.028    28.705     8.787
    19   6 C        2.967     0.024    27.457     8.595
    20   6 C        1.917     0.118    28.188     8.574
    21   7 N        0.911    -0.225    25.924     7.364
    22   7 N        1.843    -0.246    27.274     7.740
    23   6 C        3.828     0.058    19.593     6.298
    24   6 C        2.979    -0.004    28.117     8.698
    25   6 C        2.929    -0.014    28.363     8.734
    26   6 C        2.993    -0.030    28.739     8.794
    27   6 C        2.905     0.097    25.850     8.337
    28  15 P        4.093     0.061   157.524    22.546
    29   8 O        0.808    -0.358    20.877     6.125
    30   6 C        2.922     0.017    27.641     8.622
    31   6 C        3.032    -0.022    28.518     8.759
    32   6 C        2.919    -0.029    28.715     8.787
    33   6 C        2.920    -0.026    28.645     8.777
    34   6 C        2.921    -0.026    28.658     8.779
    35   6 C        2.971    -0.030    28.741     8.794
    36   6 C        2.922     0.018    27.612     8.617
    37   6 C        3.034    -0.021    28.490     8.755
    38   6 C        2.919    -0.028    28.697     8.785
    39   6 C        2.920    -0.026    28.651     8.778
    40   6 C        2.920    -0.027    28.685     8.783
    41   6 C        2.973    -0.030    28.736     8.793
    42   7 N        1.930    -0.208    26.339     7.610
    43   6 C        2.970     0.087    26.071     8.375
    44   6 C        2.969     0.085    26.114     8.382
    45   7 N        1.913    -0.212    26.444     7.624
    46   6 C        2.905     0.095    25.888     8.343
    47  15 P        4.088     0.065   157.368    22.534
    48   8 O        0.808    -0.360    20.918     6.131
    49   6 C        2.922     0.019    27.576     8.612
    50   6 C        2.981    -0.024    28.599     8.772
    51   6 C        2.920    -0.023    28.589     8.768
    52   6 C        2.920    -0.024    28.595     8.769
    53   6 C        2.919    -0.028    28.698     8.785
    54   6 C        3.024    -0.021    28.507     8.758
    55   6 C        2.921     0.016    27.655     8.624
    56   6 C        2.971    -0.028    28.687     8.786
    57   6 C        2.920    -0.028    28.691     8.784
    58   6 C        2.920    -0.026    28.642     8.776
    59   6 C        2.919    -0.027    28.677     8.782
    60   6 C        3.033    -0.020    28.472     8.752
    61   6 C        3.008    -0.032    28.773     8.799
    62   6 C        2.928    -0.017    28.426     8.744
    63   6 C        2.977    -0.006    28.155     8.704
    64   6 C        3.827     0.056    19.622     6.303
    65   7 N        1.842    -0.258    27.561     7.780
    66   6 C        2.923    -0.032    28.790     8.799
    67   6 C        2.920    -0.049    29.208     8.863
    68   6 C        2.926     0.059    26.684     8.471
    69   6 C        2.920    -0.047    29.172     8.857
    70   6 C        2.927    -0.034    28.845     8.808
    71   6 C        2.973     0.005    27.900     8.664
    72   6 C        3.903     0.026    20.083     6.370
    73   6 C        3.762    -0.106    22.576     6.773
    74   6 C        3.761    -0.108    22.613     6.779
    75   6 C        3.762    -0.106    22.580     6.774
    76   6 C        2.925    -0.039    28.970     8.827
    77   6 C        2.921    -0.048    29.192     8.860
    78   6 C        2.921    -0.048    29.199     8.861
    79   6 C        2.925    -0.039    28.970     8.827
    80   1 H        0.925     0.036     2.500     2.473
    81   1 H        0.925     0.036     2.496     2.471
    82   1 H        0.925     0.038     2.476     2.461
    83   1 H        0.925     0.037     2.489     2.467
    84   1 H        0.925     0.034     2.526     2.485
    85   1 H        0.925     0.039     2.462     2.454
    86   1 H        0.925     0.037     2.491     2.468
    87   1 H        0.925     0.034     2.530     2.487
    88   1 H        0.925     0.039     2.464     2.455
    89   1 H        0.926     0.035     2.522     2.483
    90   1 H        0.926     0.033     2.546     2.495
    91   1 H        0.926     0.041     2.435     2.440
    92   1 H        0.926     0.037     2.495     2.470
    93   1 H        0.926     0.056     2.241     2.341
    94   1 H        0.926     0.063     2.162     2.299
    95   1 H        0.923     0.041     2.439     2.442
    96   1 H        0.926     0.048     2.344     2.394
    97   1 H        0.926     0.072     2.062     2.246
    98   1 H        0.926     0.062     2.180     2.309
    99   1 H        0.926     0.038     2.476     2.461
   100   1 H        0.926     0.035     2.512     2.478
   101   1 H        0.926     0.033     2.547     2.495
   102   1 H        0.926     0.069     2.101     2.267
   103   1 H        0.926     0.059     2.209     2.324
   104   1 H        0.926     0.038     2.481     2.463
   105   1 H        0.926     0.035     2.517     2.481
   106   1 H        0.926     0.035     2.512     2.479
   107   1 H        0.926     0.069     2.098     2.265
   108   1 H        0.926     0.059     2.211     2.325
   109   1 H        0.926     0.034     2.532     2.488
   110   1 H        0.926     0.036     2.507     2.476
   111   1 H        0.926     0.038     2.476     2.461
   112   1 H        0.926     0.061     2.192     2.315
   113   1 H        0.926     0.055     2.259     2.350
   114   1 H        0.926     0.037     2.495     2.470
   115   1 H        0.926     0.037     2.488     2.467
   116   1 H        0.926     0.039     2.463     2.454
   117   1 H        0.926     0.059     2.207     2.323
   118   1 H        0.926     0.071     2.071     2.251
   119   1 H        0.926     0.056     2.243     2.342
   120   1 H        0.923     0.044     2.401     2.423
   121   1 H        0.926     0.037     2.485     2.465
   122   1 H        0.926     0.039     2.464     2.455
   123   1 H        0.926     0.036     2.508     2.476
   124   1 H        0.926     0.038     2.481     2.463
   125   1 H        0.925     0.039     2.465     2.455
   126   1 H        0.925     0.038     2.477     2.461
   127   1 H        0.925     0.034     2.536     2.490
   128   1 H        0.925     0.036     2.505     2.475
   129   1 H        0.925     0.038     2.479     2.462
   130   1 H        0.925     0.036     2.503     2.474
   131   1 H        0.925     0.034     2.530     2.487
   132   1 H        0.925     0.039     2.466     2.456
   133   1 H        0.925     0.039     2.465     2.455
   134   1 H        0.926     0.041     2.441     2.443
   135   1 H        0.926     0.031     2.568     2.506
   136   1 H        0.926     0.032     2.563     2.503
   137   1 H        0.926     0.041     2.434     2.440

molecular dipole:
                 x           y           z       tot (Debye)
 q only:       -2.497       0.614      -0.233
   full:       -2.840       0.657       0.431       7.490

 projected vibrational frequencies (cm⁻¹)
eigval :       -0.00    -0.00    -0.00    -0.00     0.00     0.00
eigval :        4.57     5.13     7.33    11.89    13.91    15.51
eigval :       19.82    21.52    23.17    25.05    25.54    26.77
eigval :       29.03    29.67    30.77    39.59    43.34    49.33
eigval :       50.92    56.18    64.26    65.21    68.15    74.07
eigval :       77.80    83.48    86.79    94.67    96.10   101.33
eigval :      103.83   108.60   114.87   134.57   139.64   148.08
eigval :      149.05   157.62   159.16   169.80   170.64   172.03
eigval :      174.59   177.31   182.03   188.02   201.11   205.88
eigval :      215.89   220.48   221.76   224.23   226.72   234.71
eigval :      235.42   241.01   243.19   254.80   262.75   264.64
eigval :      283.10   283.68   285.65   292.42   298.94   307.20
eigval :      313.00   315.11   315.91   317.74   332.90   342.88
eigval :      351.56   357.52   361.71   362.28   364.60   368.39
eigval :      369.70   372.70   375.27   382.17   383.50   384.47
eigval :      389.22   390.53   391.25   392.06   399.26   404.50
eigval :      408.48   409.22   422.61   429.67   431.65   435.54
eigval :      438.56   444.17   450.47   458.31   462.46   466.52
eigval :      484.46   493.32   502.82   508.51   514.17   518.01
eigval :      526.84   532.73   538.45   552.02   557.79   569.85
eigval :      584.72   585.36   585.94   586.12   588.19   595.28
eigval :      604.49   605.41   607.14   608.22   611.18   619.15
eigval :      626.44   654.97   656.52   658.89   659.59   660.39
eigval :      666.57   683.03   687.79   688.92   690.75   691.93
eigval :      702.35   708.74   713.75   716.67   718.62   720.65
eigval :      723.60   736.74   741.20   745.05   748.80   752.24
eigval :      760.66   762.22   797.30   813.66   817.35   818.58
eigval :      825.95   829.48   833.17   864.03   865.50   868.08
eigval :      870.73   871.71   872.65   873.06   876.42   880.70
eigval :      882.53   883.75   887.60   899.25   903.25   905.95
eigval :      910.52   911.59   914.92   915.53   919.52   920.36
eigval :      921.22   925.56   926.68   927.88   929.19   929.22
eigval :      931.84   932.11   932.39   933.87   934.73   936.38
eigval :      940.81   946.58   960.59   960.70   962.85   963.12
eigval :      963.59   963.68   970.68   971.71   973.06   974.94
eigval :      976.14   986.95  1010.99  1026.17  1028.52  1035.36
eigval :     1035.56  1035.64  1035.77  1050.16  1064.78  1075.51
eigval :     1077.55  1077.83  1080.83  1094.95  1103.58  1109.46
eigval :     1110.14  1114.41  1116.80  1122.07  1122.79  1124.12
eigval :     1125.55  1126.35  1144.02  1144.44  1147.12  1152.94
eigval :     1153.26  1154.18  1156.53  1161.28  1179.50  1180.25
eigval :     1180.79  1181.96  1187.60  1188.12  1189.08  1189.88
eigval :     1192.47  1193.94  1197.21  1199.31  1202.23  1209.15
eigval :     1211.89  1224.06  1227.69  1227.80  1228.41  1234.29
eigval :     1234.35  1244.83  1251.97  1259.43  1261.46  1265.17
eigval :     1267.01  1267.31  1271.04  1271.39  1275.09  1276.51
eigval :     1277.70  1281.42  1284.42  1287.07  1291.81  1292.55
eigval :     1312.59  1316.01  1319.48  1319.71  1320.33  1320.62
eigval :     1322.13  1323.79  1328.38  1331.35  1349.07  1362.54
eigval :     1370.81  1399.31  1402.98  1403.65  1406.37  1406.40
eigval :     1410.11  1416.06  1423.78  1424.06  1424.57  1424.82
eigval :     1425.86  1428.88  1429.87  1429.88  1432.10  1449.80
eigval :     1450.97  1451.58  1452.05  1485.23  1486.47  1487.33
eigval :     1491.66  1491.72  1493.99  1494.16  1502.09  1502.22
eigval :     1506.00  1506.11  1514.62  1514.70  1519.39  1519.44
eigval :     1526.02  1540.40  1541.79  1546.28  1554.49  1561.23
eigval :     1564.96  1569.43  1577.24  1581.77  1582.38  1583.60
eigval :     1584.15  1584.54  1585.14  1585.46  1585.99  1586.94
eigval :     1600.04  1601.36  1605.82  1616.31  2364.98  2845.52
eigval :     2873.15  3024.08  3024.48  3025.53  3026.03  3027.95
eigval :     3028.22  3031.16  3031.68  3032.93  3033.17  3036.40
eigval :     3036.80  3039.85  3040.10  3047.74  3048.97  3051.34
eigval :     3052.67  3069.69  3070.40  3070.61  3071.44  3071.81
eigval :     3074.33  3075.11  3075.66  3076.01  3079.09  3079.42
eigval :     3080.36  3080.62  3081.56  3081.59  3082.26  3082.42
eigval :     3082.75  3083.93  3085.05  3085.34  3087.23  3089.11
eigval :     3089.65  3089.92  3091.20  3093.23  3093.55  3095.72
eigval :     3095.90  3096.16  3097.17  3099.18  3099.73  3101.36
eigval :     3116.15  3116.26  3132.28

   temp. (K)  partition function   enthalpy   heat capacity  entropy
                                   cal/mol     cal/K/mol   cal/K/mol   J/K/mol
 298.15  VIB  0.141E+38            43313.602    256.874    275.923
         ROT  0.516E+09              888.752      2.981     42.847
         INT  0.726E+46            44202.354    259.855    318.770
         TR   0.336E+29             1481.254      4.968     46.749
         TOT                       45683.6078   264.8235   365.5187  1529.3304

       T/K    H(0)-H(T)+PV         H(T)/Eh          T*S/Eh         G(T)/Eh
   ------------------------------------------------------------------------
    298.15    0.728015E-01    0.114053E+01    0.173670E+00    0.966860E+00
   ------------------------------------------------------------------------

         :::::::::::::::::::::::::::::::::::::::::::::::::::::
         ::                  THERMODYNAMIC                  ::
         :::::::::::::::::::::::::::::::::::::::::::::::::::::
         :: total free energy        -207.144366146931 Eh   ::
         ::.................................................::
         :: total energy             -208.111225722604 Eh   ::
         :: zero point energy           1.067727857671 Eh   ::
         :: G(RRHO) w/o ZPVE           -0.100868281998 Eh   ::
         :: G(RRHO) contrib.            0.966859575673 Eh   ::
         :::::::::::::::::::::::::::::::::::::::::::::::::::::

           -------------------------------------------------
          | TOTAL ENERGY             -208.111225722604 Eh   |
          | TOTAL ENTHALPY           -206.970696401819 Eh   |
          | TOTAL FREE ENERGY        -207.144366146931 Eh   |
          | GRADIENT NORM               0.000062504148 Eh/α |
          | HOMO-LUMO GAP               0.520473377652 eV   |
           -------------------------------------------------

 * finished run on 2025/08/24 at 09:30:31.497
