   * xtb version 6.7.1 (edcfbbe) compiled by 'albert@albert-system' on 2024-07-22

   ID    Z sym.   atoms
    1    6 C      1-8, 10-20, 23-27, 30-41, 43, 44, 46, 49-64, 66-79
    2    7 N      9, 21, 22, 42, 45, 65
    3   15 P      28, 47
    4    8 O      29, 48
    5    1 H      80-137

          program call               : xtb data2507/gas/PO-TPA/PO-TPA_gas_S0_finalOpt.xtbopt.xyz --gfn 2 --spinpol --tblite --uhf 2 --ohess vtight --parallel 40 --molden --ceasefiles --namespace data2507/gas/PO-TPA/PO-TPA_gas_T1_preOpt
 * total energy  :  -208.0858928 Eh     change        0.5954689E-08 Eh
 * total energy  :  -208.0906386 Eh     change       -0.4745811E-02 Eh
 * total energy  :  -208.0923656 Eh     change       -0.1726955E-02 Eh
 * total energy  :  -208.0923086 Eh     change        0.5692582E-04 Eh
 * total energy  :  -208.0928845 Eh     change       -0.5758093E-03 Eh
 * total energy  :  -208.0930087 Eh     change       -0.1242765E-03 Eh
 * total energy  :  -208.0931066 Eh     change       -0.9782887E-04 Eh
 * total energy  :  -208.0931653 Eh     change       -0.5877552E-04 Eh
 * total energy  :  -208.0932118 Eh     change       -0.4651511E-04 Eh
 * total energy  :  -208.0932389 Eh     change       -0.2703519E-04 Eh
 * total energy  :  -208.0934788 Eh     change       -0.7333995E-06 Eh
 * total energy  :  -208.0934793 Eh     change       -0.5559163E-06 Eh
 * total energy  :  -208.0934799 Eh     change       -0.5705481E-06 Eh
 * total energy  :  -208.0934805 Eh     change       -0.6043621E-06 Eh
 * total energy  :  -208.0934811 Eh     change       -0.5825123E-06 Eh
 * total energy  :  -208.0934817 Eh     change       -0.6144221E-06 Eh
 * total energy  :  -208.0934823 Eh     change       -0.6324716E-06 Eh
 * total energy  :  -208.0934831 Eh     change       -0.7971430E-06 Eh
 * total energy  :  -208.0934831 Eh     change       -0.7483749E-08 Eh
   *** GEOMETRY OPTIMIZATION CONVERGED AFTER 94 ITERATIONS ***

 final structure:
================
137
 xtb: 6.7.1 (edcfbbe)
C           -9.80991187702011        5.82003517203336        2.75759846945885
C          -10.36885508244438        5.18479097415420        1.48169093285036
C          -10.07483777233509        6.13024028484705        0.30817018075809
C          -11.88626601778422        5.02361386129185        1.65161175279405
C           -9.75737569512216        3.82497355205613        1.18820681483592
C          -10.16156085053820        3.11806661069031        0.05652503546420
C           -9.63626613958189        1.88252262374732       -0.25536742837535
C           -8.67636128867216        1.29664529298066        0.56868744274673
N           -8.14516007256480        0.03861689548330        0.26322065698945
C           -6.80176312413831       -0.23716074684086        0.49506897402044
C           -6.39388999281053       -1.52407641899535        0.85733915556092
C           -5.06116809332890       -1.80815936723930        1.04995567173619
C           -4.08822742455827       -0.81817885517933        0.90377581964879
C           -2.66973702456405       -1.12456351676342        1.09372561978778
C           -1.85636032977682       -0.28354570999263        1.81745152350317
C           -0.49390743667686       -0.54846698317789        2.03479518243083
C            0.06879392598727       -1.79634727490741        1.48588651828047
C           -0.76960947638431       -2.60760886081372        0.70721168756064
C           -2.10147810547263       -2.29529244402755        0.51400518228152
C           -2.87060586657981       -3.13007778134734       -0.32174249277534
N           -3.46047407299432       -3.81935889924333       -1.02617247151650
N            1.30580628719164       -2.11197725263406        1.74417109707071
C            2.05289568233650       -1.41213294806901        2.71317214051139
C            3.52849158020158       -1.57869375992295        2.48820853983258
C            4.25758767898534       -2.55983209896875        3.14462091843359
C            5.61067389118961       -2.68270690518418        2.87726366109597
C            6.17878044049282       -1.82321975508735        1.94518988380867
P            7.97268970007253       -1.91659884459585        1.61885367982405
O            8.65220460763515       -2.92890216518183        2.43647730899837
C            8.56662915365440       -0.21970497246670        1.91066698789808
C            9.75420523228169       -0.09668507358440        2.61889823993120
C           10.27802792594181        1.15740315779350        2.87621729825976
C            9.60932350542110        2.28634697283078        2.43126652118804
C            8.42102428966982        2.16117123737907        1.72872577560196
C            7.89837068745220        0.90960128366167        1.45708065076391
C            8.13064948159311       -2.19054966110474       -0.17323362912091
C            9.21614140832239       -2.95037101607786       -0.58702272537740
C            9.42424441167258       -3.17730493021643       -1.93566417890759
C            8.54761989958107       -2.64381729291041       -2.86651933627743
C            7.46024075007789       -1.89115846807517       -2.45069922006763
C            7.24743301500295       -1.66068418395245       -1.10292871789550
N            5.48802213401817       -0.89465852566672        1.30469687780145
C            4.19601205729150       -0.76206078660100        1.56780489517852
C            3.46608969891322        0.31188505799079        0.88722330163302
N            4.00685113841858        0.84473132571047       -0.20071258496963
C            3.36494564904702        1.82669545721931       -0.81224130326154
P            4.09029428440993        2.54805974021167       -2.32713671628639
O            3.37429018443134        3.75506010551907       -2.75891043304144
C            5.84704891058058        2.83217703706116       -1.95284045979232
C            6.76640721229204        1.79628289051165       -1.87961201657148
C            8.09480986021704        2.07614489040299       -1.61830277378136
C            8.50389796966341        3.38739943570388       -1.43189052627975
C            7.58506615740294        4.42227439729898       -1.50767151065505
C            6.25484974594458        4.14588552220610       -1.76983205685908
C            4.05981104479654        1.18924435878110       -3.53936755903642
C            4.17618845999160       -0.14929536861507       -3.18982984593129
C            4.15445423591304       -1.11699495181359       -4.17906575455383
C            4.02227770816342       -0.75158655131629       -5.50955865764725
C            3.90145537878542        0.58452169055682       -5.85641861263324
C            3.91777402283350        1.55502073036195       -4.87093298351392
C            2.14876162525744        2.33168197788864       -0.36905754359527
C            1.58018392975852        1.77853527218776        0.76404396935712
C            2.24279851481149        0.74776010029440        1.41481264723808
C            1.67365541713650        0.11576014997754        2.66421399916908
N            0.27499928361569        0.24428565035297        2.72700260886400
C           -4.50210125554809        0.47377057341230        0.57615521027845
C           -5.83197217843698        0.76097838372007        0.36492125553778
C           -8.97698266894911       -0.94497430642388       -0.28852583486453
C           -8.50392756738608       -1.80977533328036       -1.27448638951299
C           -9.32969516251540       -2.77749714527466       -1.80470710868104
C          -10.65283189786668       -2.92367421025027       -1.38989790367174
C          -11.51545179478354       -4.01208131854198       -2.00630360779140
C          -11.60176116150673       -3.78588583468032       -3.52246490714274
C          -12.93942710148325       -4.02586177579778       -1.44395420461525
C          -10.87322650341206       -5.37697362362042       -1.72020482660346
C          -11.11478817878382       -2.04899939843977       -0.41276912676113
C          -10.29658872738669       -1.07836041359480        0.13336788812232
C           -8.26785554687395        1.98987838830180        1.70491757017632
C           -8.79887137491564        3.23060765786499        2.00144998984934
H          -10.01866446246986        5.20158120377789        3.62749642447093
H           -8.73658212493192        5.97676647924138        2.67943826337935
H          -10.27944065052538        6.78887182497924        2.91490251839502
H          -10.50470447269076        5.75965123153498       -0.61814997156252
H           -9.00078921668781        6.23361683119763        0.16840146996470
H          -10.49308012013487        7.11450748481185        0.50732797891893
H          -12.34783931341394        4.63571815681603        0.74784653433821
H          -12.10246920252475        4.33656860001300        2.46720934365433
H          -12.34117913937523        5.98487151218497        1.88055619726238
H          -10.89971496076934        3.53933106559401       -0.60879440546597
H           -9.96125267783226        1.36379036895491       -1.14533368670467
H           -7.13451907253366       -2.29797347646032        0.99163626896792
H           -4.77183474375770       -2.80513561130275        1.34607208206244
H           -2.25341101604834        0.62968263358613        2.23458042474507
H           -0.35121754514660       -3.50830759736727        0.28402495418777
H            1.79310813356033       -1.79492841710513        3.71593917993279
H            3.77050376874662       -3.21217183083787        3.85589481072937
H            6.23405842404306       -3.41548523004088        3.36603687888611
H           10.24749508881598       -0.99279747967857        2.96761104746185
H           11.20280273156333        1.25560037420771        3.42595688208563
H           10.01299557924409        3.26738958495339        2.63618355039748
H            7.89898612214522        3.04299973839674        1.38661064049997
H            6.97122246712678        0.80671661376034        0.91501448722950
H            9.87847763172037       -3.36392629735360        0.16008028707486
H           10.26715262635827       -3.76915370005923       -2.26150418735503
H            8.70847558474083       -2.81842144112893       -3.92050597428787
H            6.77770944932060       -1.48533300508268       -3.18429756923357
H            6.39995120504294       -1.08845774493484       -0.75653882419277
H            6.44100277999671        0.78159594187791       -2.03388463192625
H            8.81172057687778        1.26987439753304       -1.55963381975067
H            9.54287810520019        3.60235450516523       -1.22848076154571
H            7.90696083570838        5.44390393117027       -1.36573690502493
H            5.52141082714974        4.93590205687110       -1.84753627381635
H            4.26988623264214       -0.42769771447077       -2.14995187811042
H            4.23705124674162       -2.16082044835409       -3.91110700169849
H            4.00689363560877       -1.51165714271488       -6.27702817233531
H            3.79197280232903        0.86721745982405       -6.89312986031088
H            3.81143657732818        2.60281574222057       -5.11335057413220
H            1.68444253871206        3.13784054517673       -0.91576258378330
H            0.63543219809277        2.13361885475516        1.15108172237518
H            2.11859228223673        0.59889403737501        3.54567605261730
H           -3.76308221602703        1.25010913872076        0.44317257980698
H           -6.13081881896953        1.75757787506246        0.07531121833202
H           -7.48647071648949       -1.71653143626185       -1.62454964458510
H           -8.92556591399775       -3.42743611473803       -2.56533074010187
H          -12.23138863377864       -4.54685160520768       -3.97841063402253
H          -10.62124848526345       -3.83335454530958       -3.98749801294675
H          -12.03300788858005       -2.80938908872668       -3.73344964776627
H          -13.44755072478893       -3.08445940914141       -1.64017961316136
H          -13.50911684545052       -4.82033186609597       -1.92157317809353
H          -12.93612866112465       -4.21392248012163       -0.37278641938296
H          -10.79302971036397       -5.53722825650071       -0.64697440694728
H           -9.87775253041809       -5.44489450461148       -2.14961875442970
H          -11.48214456364724       -6.17295873180946       -2.14334487380983
H          -12.12719572639054       -2.11598350575351       -0.04982186885186
H          -10.67905671246423       -0.42078023846925        0.90057433101970
H           -7.53513460352852        1.54664172402302        2.36357909503853
H           -8.45298147932095        3.72556260771671        2.89391746685896

 projected vibrational frequencies (cm⁻¹)
eigval :       -0.00    -0.00     0.00     0.00     0.00     0.00
eigval :        3.16     3.70     6.41    11.12    11.93    15.47
eigval :       18.33    21.03    21.81    23.09    24.70    25.95
eigval :       28.23    28.71    30.43    39.81    42.05    48.60
eigval :       50.81    55.63    62.48    64.40    68.51    72.89
eigval :       79.67    86.01    88.95    94.55    97.06   101.61
eigval :      103.17   108.56   115.96   131.51   138.77   147.34
eigval :      154.64   157.89   162.45   169.43   170.49   172.24
eigval :      176.37   176.70   181.08   191.70   199.99   203.08
eigval :      219.42   220.42   221.23   223.90   229.01   231.32
eigval :      234.07   241.96   249.46   254.44   263.40   277.19
eigval :      282.39   284.04   286.03   292.29   299.52   312.25
eigval :      313.94   315.08   316.11   327.94   339.62   341.81
eigval :      351.73   356.67   361.13   361.93   364.01   367.51
eigval :      368.88   371.92   374.86   381.15   381.98   383.17
eigval :      389.26   389.68   392.92   394.11   402.94   407.98
eigval :      408.78   418.70   423.64   428.02   431.67   436.39
eigval :      436.70   443.30   451.17   457.51   461.65   467.03
eigval :      490.22   493.63   501.62   506.32   515.64   519.29
eigval :      525.47   534.24   540.15   549.86   557.20   569.85
eigval :      584.70   585.19   585.86   586.05   588.67   595.82
eigval :      603.71   604.55   606.88   608.41   610.11   616.00
eigval :      621.91   637.51   654.76   656.46   658.50   659.28
eigval :      659.90   672.37   681.22   687.49   689.58   690.87
eigval :      692.23   701.66   709.91   713.94   715.59   717.83
eigval :      719.05   732.64   739.44   743.46   746.72   750.33
eigval :      757.61   761.96   800.77   812.25   815.54   816.19
eigval :      820.01   820.44   828.54   831.68   849.72   864.54
eigval :      864.86   867.45   869.62   871.61   875.73   878.82
eigval :      881.84   881.94   885.80   895.68   897.83   904.17
eigval :      908.89   910.20   912.63   913.98   916.54   919.89
eigval :      921.28   923.64   924.11   924.53   927.02   927.80
eigval :      928.95   930.14   930.75   932.70   932.99   933.60
eigval :      934.67   938.69   944.35   959.50   959.58   961.77
eigval :      962.00   962.34   962.49   971.66   972.94   974.88
eigval :      976.07   980.32  1011.51  1025.38  1032.12  1034.00
eigval :     1034.05  1034.16  1034.55  1056.63  1058.68  1075.03
eigval :     1076.96  1077.27  1080.38  1091.44  1103.48  1108.60
eigval :     1109.11  1113.35  1116.18  1121.24  1121.61  1122.27
eigval :     1124.96  1125.91  1142.66  1142.97  1144.41  1147.72
eigval :     1151.79  1152.87  1153.37  1160.00  1176.86  1177.54
eigval :     1177.63  1178.13  1179.21  1185.61  1186.27  1186.83
eigval :     1188.05  1190.37  1196.81  1197.25  1206.08  1208.47
eigval :     1212.56  1224.61  1226.61  1226.68  1229.65  1233.10
eigval :     1233.25  1246.28  1253.47  1259.99  1261.89  1263.26
eigval :     1264.05  1265.71  1269.03  1269.79  1273.92  1275.78
eigval :     1277.18  1278.68  1283.37  1288.29  1289.67  1293.39
eigval :     1303.38  1314.43  1317.29  1320.36  1320.44  1320.63
eigval :     1322.11  1323.58  1325.26  1329.40  1331.95  1370.97
eigval :     1394.07  1398.58  1400.84  1402.36  1403.50  1403.64
eigval :     1408.20  1415.93  1420.03  1422.53  1423.15  1423.69
eigval :     1425.10  1425.35  1425.49  1427.69  1430.41  1449.41
eigval :     1450.57  1451.01  1451.45  1452.18  1482.07  1483.05
eigval :     1484.82  1488.05  1488.08  1489.93  1490.44  1498.02
eigval :     1498.27  1502.11  1502.28  1505.11  1510.92  1511.11
eigval :     1515.24  1515.47  1521.47  1534.12  1539.53  1544.76
eigval :     1548.34  1551.68  1560.39  1561.33  1565.41  1581.49
eigval :     1582.01  1583.29  1583.76  1584.16  1584.77  1585.16
eigval :     1585.72  1586.60  1595.34  1602.33  2351.78  2812.72
eigval :     2875.25  3023.23  3024.11  3024.81  3025.60  3027.55
eigval :     3027.61  3030.96  3031.09  3031.87  3032.59  3035.93
eigval :     3036.17  3038.70  3039.41  3046.79  3049.21  3050.24
eigval :     3052.67  3068.19  3069.15  3070.46  3070.72  3071.56
eigval :     3073.42  3073.80  3075.13  3075.25  3075.43  3078.63
eigval :     3078.82  3079.04  3080.22  3080.47  3080.96  3081.07
eigval :     3081.72  3083.10  3084.26  3086.93  3087.05  3088.70
eigval :     3088.77  3089.73  3089.82  3091.34  3091.93  3092.26
eigval :     3092.99  3095.28  3095.59  3096.14  3098.23  3101.56
eigval :     3114.74  3115.24  3130.54

   temp. (K)  partition function   enthalpy   heat capacity  entropy
                                   cal/mol     cal/K/mol   cal/K/mol   J/K/mol
 298.15  VIB  0.545E+38            43351.384    257.273    277.071
         ROT  0.516E+09              888.752      2.981     42.849
         INT  0.281E+47            44240.136    260.254    319.920
         TR   0.336E+29             1481.254      4.968     46.749
         TOT                       45721.3900   265.2219   366.6683  1534.1402

       T/K    H(0)-H(T)+PV         H(T)/Eh          T*S/Eh         G(T)/Eh
   ------------------------------------------------------------------------
    298.15    0.728617E-01    0.113863E+01    0.174216E+00    0.964412E+00
   ------------------------------------------------------------------------

         :::::::::::::::::::::::::::::::::::::::::::::::::::::
         ::                  THERMODYNAMIC                  ::
         :::::::::::::::::::::::::::::::::::::::::::::::::::::
         :: total free energy        -207.129070761993 Eh   ::
         ::.................................................::
         :: total energy             -208.093483104317 Eh   ::
         :: zero point energy           1.065766611528 Eh   ::
         :: G(RRHO) w/o ZPVE           -0.101354269204 Eh   ::
         :: G(RRHO) contrib.            0.964412342324 Eh   ::
         :::::::::::::::::::::::::::::::::::::::::::::::::::::

           -------------------------------------------------
          | TOTAL ENERGY             -208.093483104317 Eh   |
          | TOTAL ENTHALPY           -206.954854820009 Eh   |
          | TOTAL FREE ENERGY        -207.129070761993 Eh   |
          | GRADIENT NORM               0.000086587205 Eh/α |
           -------------------------------------------------

 * finished run on 2025/08/24 at 09:31:20.713
