   * xtb version 6.7.1 (edcfbbe) compiled by 'albert@albert-system' on 2024-07-22

   ID    Z sym.   atoms
    1    6 C      1-9, 11-44
    2   14 Si     10
    3    1 H      45-76

          program call               : xtb data2507/toluene/TPSi-F/TPSi-F_toluene_S0_finalOpt.xtbopt.xyz --gfn 2 --uhf 2 --gbsa toluene --ohess vtight --parallel 40 --molden --ceasefiles --namespace data2507/toluene/TPSi-F/TPSi-F_toluene_T1_preOpt
      * Solvation model:               GBSA
        Solvent                        toluene
        Solvent mass                       9.2140E+01 g/mol
          :  Hamiltonian                  GFN2-xTB          :
 * total energy  :  -109.9764067 Eh     change       -0.4110137E-07 Eh
 * total energy  :  -109.9875467 Eh     change       -0.1113999E-01 Eh
 * total energy  :  -109.9900277 Eh     change       -0.2481006E-02 Eh
 * total energy  :  -109.9901016 Eh     change       -0.7396578E-04 Eh
 * total energy  :  -109.9901196 Eh     change       -0.1795357E-04 Eh
 * total energy  :  -109.9901222 Eh     change       -0.2669602E-05 Eh
 * total energy  :  -109.9901246 Eh     change       -0.2325813E-05 Eh
 * total energy  :  -109.9901265 Eh     change       -0.1891543E-05 Eh
 * total energy  :  -109.9901290 Eh     change       -0.2563476E-05 Eh
 * total energy  :  -109.9901318 Eh     change       -0.2805035E-05 Eh
 * total energy  :  -109.9901350 Eh     change       -0.4400613E-06 Eh
 * total energy  :  -109.9901356 Eh     change       -0.5781331E-06 Eh
 * total energy  :  -109.9901363 Eh     change       -0.7459030E-06 Eh
 * total energy  :  -109.9901368 Eh     change       -0.5108069E-06 Eh
 * total energy  :  -109.9901371 Eh     change       -0.2954791E-06 Eh
 * total energy  :  -109.9901374 Eh     change       -0.2836390E-06 Eh
 * total energy  :  -109.9901378 Eh     change       -0.3780053E-06 Eh
 * total energy  :  -109.9901381 Eh     change       -0.3684835E-06 Eh
 * total energy  :  -109.9901382 Eh     change       -0.1096950E-07 Eh
   *** GEOMETRY OPTIMIZATION CONVERGED AFTER 22 ITERATIONS ***

 final structure:
================
76
 xtb: 6.7.1 (edcfbbe)
C            4.81261022190016        4.10039619813747       -0.96192442549839
C            3.68087965661699        3.99428721420946       -0.16973996054421
C            3.13841758292548        2.75263003423359        0.10630070890613
C            3.71641596573654        1.59765704720749       -0.41046465468789
C            3.16124330597206        0.23298204497640       -0.04646655206149
C            1.64675215137788        0.20276029653437        0.00525755410807
C            0.89348154320833        0.90038517963100       -0.93441055935467
C           -0.48463731455409        0.81881774260960       -0.92800718298881
C           -1.16042794618445        0.03983368504832        0.00921131760908
Si          -3.05393882944718       -0.03139174632547        0.00806637836582
C           -3.65329487143438       -1.49424428682339        1.05642852191505
C           -4.04174253047278       -2.69756280042025        0.47570058217114
C           -4.46810585231608       -3.76098222217327        1.25205846525122
C           -4.51414134924467       -3.63843040552021        2.63088750836021
C           -4.13169768685344       -2.44739600685554        3.22648445090484
C           -3.70644411394991       -1.38880942570019        2.44417172089580
C           -3.64277600545993       -0.23148748990839       -1.78460890245196
C           -4.78907574161943        0.40365456883700       -2.25241451012065
C           -5.22087865328981        0.23087983026182       -3.55583968436406
C           -4.50928310186602       -0.58523169492772       -4.41953255292845
C           -3.36341641679928       -1.22266913383114       -3.97230941386292
C           -2.93729627316483       -1.04477164134141       -2.66830819212286
C           -3.76310124039784        1.56317265807115        0.75396844230029
C           -2.99597081263601        2.71735122119805        0.87791168562406
C           -3.53132915720631        3.87816980428335        1.40820222655807
C           -4.85147207278361        3.90537489372852        1.82600071661827
C           -5.62924851855292        2.76425305344962        1.71437309442416
C           -5.08693067881855        1.60716826804443        1.18455332162480
C           -0.39805702308315       -0.66554951691267        0.93417134337275
C            0.98268882860914       -0.59511506406133        0.92908144972993
C            3.82667094456507       -0.19107837914115        1.24895653262146
C            3.80796945740016        0.41274214239790        2.46709363144154
C            4.52678860037249       -0.16079920300983        3.53312974080251
C            5.27363187798451       -1.34658457196849        3.34374231318401
C            5.32256452486012       -1.97231585137994        2.13625827375072
C            4.59304127351591       -1.41255846738233        1.03324436678321
C            4.44840916149350       -1.81998527895126       -0.27512887756705
C            4.96957078739914       -2.95086770652418       -0.99037657747810
C            4.64600834510025       -3.10604659074766       -2.30275904354161
C            3.80850270350008       -2.18372169032717       -2.97319058330566
C            3.28293059546102       -1.06773896148500       -2.29593496883601
C            3.59865103477093       -0.87247885374339       -0.98750087150417
C            4.86100644898668        1.71173011107084       -1.18969820966133
C            5.40134557925074        2.95481455448319       -1.46934822646935
H            5.23529387810404        5.07068647471743       -1.17847331495652
H            3.21808712232758        4.88351968191792        0.23398185113830
H            2.25151048786722        2.67808890679859        0.71914736436667
H            1.39236383434134        1.51927898220429       -1.66704793708500
H           -1.05217901615886        1.36704783271193       -1.66719080797332
H           -4.01298528860196       -2.79892049051204       -0.59997320182126
H           -4.76731411038166       -4.68747722358655        0.78186794945176
H           -4.84851165208638       -4.46670550366592        3.23946033482230
H           -4.16688469007869       -2.34514294728981        4.30230987821991
H           -3.41362727548810       -0.46011961417314        2.91429464664891
H           -5.34676178522487        1.04627051224174       -1.58614128876215
H           -6.11399316112982        0.73341363551153       -3.90036853337240
H           -4.84489293703556       -0.72243632413224       -5.43777513387042
H           -2.80207132439457       -1.85895622563339       -4.64253318714493
H           -2.03908669310987       -1.54073264960738       -2.32683558173115
H           -1.96382640195991        2.70249609030023        0.55833988867453
H           -2.91856892829101        4.76454600564128        1.49669487215222
H           -5.27196161230721        4.81093227035692        2.23991317402922
H           -6.65969206946153        2.77796001727266        2.04151808550189
H           -5.69714878354243        0.71776250467260        1.10770569971449
H           -0.89447346706121       -1.28781492097780        1.66505355900673
H            1.55326658054796       -1.16220926523641        1.65154991790909
H            3.24507501265665        1.31993414740887        2.63192055578552
H            4.50997567550287        0.30888915848372        4.50376794235298
H            5.81600816892725       -1.75253471629122        4.18614731891126
H            5.89843055799049       -2.87279836760924        1.98821400834797
H            5.59975521643060       -3.65913938095558       -0.47498932464338
H            5.02803177758452       -3.95099474021597       -2.85846423581779
H            3.57477915815158       -2.33670631601393       -4.01482196104407
H            2.64596021876149       -0.37445391702871       -2.82573873016293
H            5.33050647302763        0.82095982160559       -1.58247335676685
H            6.28791428363107        3.02721040636606       -2.08297347432089

          :  Hamiltonian                  GFN2-xTB          :
         :: gradient norm              0.000059678514 Eh/a0 ::
         :: HOMO-LUMO gap              0.757839407988 eV    ::
         :: SCC energy              -112.111326767506 Eh    ::
         :: -> dispersion             -0.107313728783 Eh    ::
         :: -> Gsolv                  -0.045455933261 Eh    ::
         :: repulsion energy           2.121188611852 Eh    ::

    * Orbital Energies and Occupations

         #    Occupation            Energy/Eh            Energy/eV
      -------------------------------------------------------------
         1        2.0000           -0.7517097             -20.4551
       ...           ...                  ...                  ...
        93        2.0000           -0.4016882             -10.9305
        94        2.0000           -0.4009383             -10.9101
        95        2.0000           -0.4004905             -10.8979
        96        2.0000           -0.4002068             -10.8902
        97        2.0000           -0.3997742             -10.8784
        98        2.0000           -0.3982670             -10.8374
        99        2.0000           -0.3955272             -10.7628
       100        2.0000           -0.3898841             -10.6093
       101        1.9999           -0.3832466             -10.4287
       102        1.9998           -0.3820587             -10.3963
       103        1.9992           -0.3808992             -10.3648
       104        1.0010           -0.3675440             -10.0014
       105        1.0000           -0.2677177              -7.2850 (HOMO)
       106        0.0000           -0.2398677              -6.5271 (LUMO)
       107                         -0.2350272              -6.3954
       108                         -0.2340892              -6.3699
       109                         -0.2274857              -6.1902
       110                         -0.2260864              -6.1521
       111                         -0.2226575              -6.0588
       112                         -0.2199877              -5.9862
       113                         -0.2187781              -5.9533
       114                         -0.2183134              -5.9406
       115                         -0.2180285              -5.9329
       116                         -0.2159945              -5.8775
       ...                                ...                  ...
       213                          0.7345085              19.9870
      -------------------------------------------------------------
                  HL-Gap            0.0278501 Eh            0.7578 eV

     #   Z          covCN         q      C6AA      α(0)
     1   6 C        2.919    -0.033    28.828     8.805
     2   6 C        2.919    -0.031    28.775     8.797
     3   6 C        2.923    -0.034    28.845     8.807
     4   6 C        2.980     0.014    27.690     8.632
     5   6 C        3.936     0.008    20.373     6.414
     6   6 C        2.981     0.015    27.679     8.630
     7   6 C        2.920    -0.035    28.872     8.812
     8   6 C        2.937    -0.033    28.811     8.803
     9   6 C        2.862    -0.095    30.385     9.035
    10  14 Si       3.610     0.489    98.218    19.027
    11   6 C        2.862    -0.092    30.316     9.025
    12   6 C        2.935    -0.033    28.818     8.804
    13   6 C        2.917    -0.031    28.776     8.797
    14   6 C        2.920    -0.030    28.746     8.792
    15   6 C        2.917    -0.031    28.782     8.798
    16   6 C        2.938    -0.032    28.792     8.800
    17   6 C        2.862    -0.092    30.305     9.023
    18   6 C        2.935    -0.033    28.821     8.805
    19   6 C        2.917    -0.031    28.775     8.796
    20   6 C        2.920    -0.030    28.745     8.792
    21   6 C        2.917    -0.031    28.779     8.797
    22   6 C        2.938    -0.032    28.788     8.800
    23   6 C        2.862    -0.092    30.299     9.022
    24   6 C        2.935    -0.033    28.820     8.804
    25   6 C        2.917    -0.031    28.773     8.796
    26   6 C        2.920    -0.030    28.746     8.792
    27   6 C        2.917    -0.031    28.781     8.797
    28   6 C        2.938    -0.032    28.788     8.800
    29   6 C        2.934    -0.033    28.826     8.805
    30   6 C        2.921    -0.036    28.905     8.817
    31   6 C        3.048     0.006    27.844     8.654
    32   6 C        2.903    -0.035    28.875     8.811
    33   6 C        2.917    -0.038    28.949     8.823
    34   6 C        2.909    -0.029    28.729     8.789
    35   6 C        2.904    -0.039    28.975     8.826
    36   6 C        3.019    -0.001    28.024     8.684
    37   6 C        3.020    -0.001    28.023     8.683
    38   6 C        2.904    -0.039    28.976     8.826
    39   6 C        2.909    -0.029    28.729     8.789
    40   6 C        2.917    -0.038    28.955     8.824
    41   6 C        2.903    -0.035    28.879     8.811
    42   6 C        3.048     0.006    27.841     8.654
    43   6 C        2.923    -0.036    28.890     8.814
    44   6 C        2.919    -0.031    28.767     8.795
    45   1 H        0.926     0.032     2.560     2.502
    46   1 H        0.926     0.032     2.552     2.498
    47   1 H        0.926     0.031     2.566     2.505
    48   1 H        0.926     0.029     2.596     2.520
    49   1 H        0.925     0.024     2.677     2.558
    50   1 H        0.926     0.022     2.701     2.570
    51   1 H        0.926     0.028     2.622     2.532
    52   1 H        0.926     0.029     2.606     2.525
    53   1 H        0.925     0.028     2.619     2.531
    54   1 H        0.925     0.021     2.711     2.575
    55   1 H        0.926     0.023     2.683     2.561
    56   1 H        0.926     0.028     2.617     2.530
    57   1 H        0.926     0.029     2.605     2.524
    58   1 H        0.925     0.028     2.621     2.532
    59   1 H        0.925     0.021     2.720     2.579
    60   1 H        0.926     0.023     2.682     2.561
    61   1 H        0.926     0.028     2.614     2.529
    62   1 H        0.926     0.029     2.603     2.523
    63   1 H        0.925     0.028     2.618     2.530
    64   1 H        0.925     0.021     2.716     2.577
    65   1 H        0.926     0.023     2.682     2.561
    66   1 H        0.925     0.027     2.635     2.538
    67   1 H        0.926     0.029     2.595     2.519
    68   1 H        0.926     0.031     2.570     2.507
    69   1 H        0.926     0.031     2.570     2.507
    70   1 H        0.926     0.032     2.562     2.503
    71   1 H        0.926     0.032     2.562     2.503
    72   1 H        0.926     0.031     2.570     2.507
    73   1 H        0.926     0.031     2.571     2.507
    74   1 H        0.926     0.029     2.596     2.520
    75   1 H        0.926     0.029     2.604     2.523
    76   1 H        0.926     0.031     2.571     2.507

molecular dipole:
                 x           y           z       tot (Debye)
 q only:       -0.156       0.130      -0.022
   full:       -0.139       0.093      -0.015       0.427

 projected vibrational frequencies (cm⁻¹)
eigval :       -0.00    -0.00    -0.00    -0.00     0.00     0.00
eigval :        3.53    11.29    22.13    25.13    27.96    30.10
eigval :       31.90    37.44    39.82    44.22    46.43    48.73
eigval :       50.61    61.25    75.87    77.74   106.77   135.75
eigval :      144.59   147.90   159.52   179.28   186.67   198.55
eigval :      209.27   217.14   221.63   227.88   229.31   247.43
eigval :      280.84   299.02   310.50   319.32   331.32   357.71
eigval :      358.31   359.91   363.72   375.48   380.49   410.25
eigval :      411.55   416.14   421.76   432.54   451.22   455.88
eigval :      474.24   479.34   487.62   503.38   506.37   552.36
eigval :      579.16   587.60   589.03   589.61   590.35   597.51
eigval :      605.56   624.93   653.97   660.60   662.12   662.30
eigval :      663.77   670.61   676.28   682.80   684.36   697.68
eigval :      703.41   705.59   719.28   731.31   735.83   737.61
eigval :      739.05   754.44   783.19   791.34   799.45   868.77
eigval :      874.97   877.67   879.57   881.75   883.20   883.79
eigval :      885.85   895.77   897.74   900.10   900.74   905.66
eigval :      906.92   910.64   911.69   921.58   930.93   930.98
eigval :      931.74   932.87   933.63   934.66   936.07   936.72
eigval :      938.01   947.15   974.06   975.65   976.04   988.21
eigval :     1011.48  1017.33  1030.91  1079.48  1083.37  1084.08
eigval :     1084.42  1085.05  1086.48  1119.17  1120.22  1121.86
eigval :     1122.93  1133.36  1142.41  1142.84  1147.15  1148.51
eigval :     1151.03  1151.64  1158.62  1163.09  1179.93  1181.42
eigval :     1182.91  1183.16  1197.25  1199.71  1204.49  1205.39
eigval :     1208.24  1212.04  1230.17  1235.79  1253.09  1278.39
eigval :     1282.86  1286.07  1286.50  1287.77  1289.72  1300.42
eigval :     1308.81  1309.03  1309.80  1311.23  1319.90  1327.21
eigval :     1348.66  1350.13  1367.59  1388.81  1417.80  1418.49
eigval :     1419.97  1432.03  1462.66  1462.79  1462.95  1469.81
eigval :     1473.94  1499.30  1501.83  1533.85  1554.10  1561.17
eigval :     1574.76  1574.98  1575.60  1581.81  1583.45  1590.69
eigval :     1591.27  1592.65  1594.10  1634.68  3057.04  3057.08
eigval :     3058.10  3059.26  3059.72  3060.40  3060.68  3062.91
eigval :     3066.10  3066.46  3066.54  3066.83  3066.85  3067.46
eigval :     3068.20  3070.82  3071.78  3072.03  3073.18  3075.22
eigval :     3075.54  3076.21  3077.32  3079.44  3080.52  3080.90
eigval :     3081.46  3086.40  3088.14  3089.14  3098.45  3100.24

   temp. (K)  partition function   enthalpy   heat capacity  entropy
                                   cal/mol     cal/K/mol   cal/K/mol   J/K/mol
 298.15  VIB  0.196E+20            22327.347    134.644    142.138
         ROT  0.605E+08              888.752      2.981     38.589
         INT  0.119E+28            23216.099    137.625    180.727
         TR   0.134E+29             1481.254      4.968     44.921
         TOT                       24697.3529   142.5934   225.6480   944.1112

       T/K    H(0)-H(T)+PV         H(T)/Eh          T*S/Eh         G(T)/Eh
   ------------------------------------------------------------------------
    298.15    0.393577E-01    0.628068E+00    0.107213E+00    0.520855E+00
   ------------------------------------------------------------------------

         :::::::::::::::::::::::::::::::::::::::::::::::::::::
         ::                  THERMODYNAMIC                  ::
         :::::::::::::::::::::::::::::::::::::::::::::::::::::
         :: total free energy        -109.469282824633 Eh   ::
         ::.................................................::
         :: total energy             -109.990138152438 Eh   ::
         :: zero point energy           0.588710233930 Eh   ::
         :: G(RRHO) w/o ZPVE           -0.067854906125 Eh   ::
         :: G(RRHO) contrib.            0.520855327805 Eh   ::
         :::::::::::::::::::::::::::::::::::::::::::::::::::::

           -------------------------------------------------
          | TOTAL ENERGY             -109.990138152438 Eh   |
          | TOTAL ENTHALPY           -109.362070181435 Eh   |
          | TOTAL FREE ENERGY        -109.469282824633 Eh   |
          | GRADIENT NORM               0.000059657979 Eh/α |
          | HOMO-LUMO GAP               0.757838748657 eV   |
           -------------------------------------------------

 * finished run on 2025/09/11 at 04:55:13.419
