   * xtb version 6.7.1 (edcfbbe) compiled by 'albert@albert-system' on 2024-07-22

   ID    Z sym.   atoms
    1    6 C      1-9, 11-44
    2   14 Si     10
    3    1 H      45-76

          program call               : xtb data2507/toluene/TPSi-F/TPSi-F.xyz --gfn 2 --gbsa toluene --ohess vtight --parallel 40 --molden --ceasefiles --namespace data2507/toluene/TPSi-F/TPSi-F_toluene_S0_preOpt
      * Solvation model:               GBSA
        Solvent                        toluene
        Solvent mass                       9.2140E+01 g/mol
          :  Hamiltonian                  GFN2-xTB          :
 * total energy  :  -110.0867463 Eh     change       -0.1207788E-07 Eh
 * total energy  :  -110.0993791 Eh     change       -0.1263276E-01 Eh
 * total energy  :  -110.1021200 Eh     change       -0.2740933E-02 Eh
 * total energy  :  -110.1026517 Eh     change       -0.5316750E-03 Eh
 * total energy  :  -110.1028600 Eh     change       -0.2083535E-03 Eh
 * total energy  :  -110.1029154 Eh     change       -0.5541785E-04 Eh
 * total energy  :  -110.1029352 Eh     change       -0.1976059E-04 Eh
 * total energy  :  -110.1029440 Eh     change       -0.8839854E-05 Eh
 * total energy  :  -110.1029562 Eh     change       -0.1215250E-04 Eh
 * total energy  :  -110.1029668 Eh     change       -0.1063264E-04 Eh
 * total energy  :  -110.1029997 Eh     change       -0.6399692E-06 Eh
 * total energy  :  -110.1030004 Eh     change       -0.6987672E-06 Eh
 * total energy  :  -110.1030009 Eh     change       -0.4992635E-06 Eh
 * total energy  :  -110.1030014 Eh     change       -0.4237178E-06 Eh
 * total energy  :  -110.1030019 Eh     change       -0.5672510E-06 Eh
 * total energy  :  -110.1030025 Eh     change       -0.5890194E-06 Eh
 * total energy  :  -110.1030028 Eh     change       -0.2920199E-06 Eh
 * total energy  :  -110.1030030 Eh     change       -0.1345685E-06 Eh
 * total energy  :  -110.1030030 Eh     change       -0.4064304E-10 Eh
   *** GEOMETRY OPTIMIZATION CONVERGED AFTER 37 ITERATIONS ***

 final structure:
================
76
 xtb: 6.7.1 (edcfbbe)
C            4.84619542606113        4.01547832483947       -0.85387348779466
C            3.71844688919801        3.89355244319280       -0.05949329827338
C            3.17551178715151        2.64649587570414        0.19197331734844
C            3.74842296294614        1.50186235432851       -0.35194597078587
C            3.18202598754059        0.13469620519682       -0.01653104750254
C            1.66686041833590        0.12991865184444        0.03730320373586
C            0.93212368939906        0.85079085488324       -0.89864431825307
C           -0.44823698748160        0.80586821462597       -0.89398992402226
C           -1.14493707698731        0.03859898443281        0.03618155225390
Si          -3.03923173347490       -0.01840525335236        0.00764088814072
C           -3.68253057730353        1.73559576256525       -0.32499088490600
C           -4.78112666438660        1.96647428939737       -1.14707853470907
C           -5.25209517952825        3.24886858952887       -1.36839758306192
C           -4.62887838820531        4.32970561359275       -0.76702655514702
C           -3.53183346285725        4.11944173679420        0.05250404258112
C           -3.06640377961634        2.83480642419409        0.26842112597435
C           -3.69783658819691       -0.64379570032150        1.67309550876253
C           -3.68734056323921       -2.00524760879012        1.96657341934249
C           -4.14634407275857       -2.47865816377286        3.18265638905311
C           -4.62914018761569       -1.59326004032840        4.13265560839795
C           -4.65144216035175       -0.23631077734654        3.85616627447048
C           -4.18963916663154        0.23008508208782        2.63772613727235
C           -3.63156118178348       -1.19918869891215       -1.35385745186947
C           -4.93617751207733       -1.68670408441300       -1.34338126413936
C           -5.39153782284503       -2.53460715139175       -2.33698007854184
C           -4.54387389974167       -2.91426089233306       -3.36500116227292
C           -3.24159905319304       -2.44341364417023       -3.38860089195202
C           -2.79338526286825       -1.59448917656601       -2.39179221284092
C           -0.40119823775730       -0.68511562959825        0.96143716603359
C            0.98144095803310       -0.64704802849633        0.96213540977848
C            3.84022494141730       -0.33165482876801        1.26897191566051
C            3.82279324093091        0.26426460892359        2.51235156324678
C            4.51934896998834       -0.33879127893052        3.55149763437486
C            5.22514272868893       -1.51477446887585        3.34577536657981
C            5.25351364536058       -2.11422593403988        2.09672897872725
C            4.55895334529704       -1.51708237542598        1.05709228417993
C            4.40816955089704       -1.90799291282565       -0.33542427972291
C            4.90648433864660       -2.99778686920045       -1.03103255377608
C            4.59686438979635       -3.12608178434750       -2.37564047206131
C            3.80104605403913       -2.18563304978685       -3.01246479732964
C            3.29982590191395       -1.09125712769853       -2.31982542199655
C            3.61195772971593       -0.95291616663991       -0.98388466454173
C            4.88756475897702        1.63158284612934       -1.13601346781033
C            5.42941773604192        2.88009272893044       -1.38902953063340
H            5.26927691469040        4.98957731970804       -1.05183824866850
H            3.25872826603908        4.77376054615022        0.36685391432491
H            2.29142465212471        2.56200557932635        0.80754601020142
H            1.44574784808939        1.46143701156474       -1.62802907237773
H           -0.99975472111372        1.38177194120971       -1.62421405303875
H           -5.26975278561539        1.12869930312996       -1.62377821440310
H           -6.10676390293994        3.40715340145451       -2.01134859144520
H           -4.99483909040391        5.33223755496671       -0.93798840715866
H           -3.03939234626070        4.95949574216055        0.52254900397480
H           -2.20652677965491        2.67736980784638        0.90472134674637
H           -3.31743020351567       -2.70177772569735        1.22672217322546
H           -4.12962590715650       -3.53946869566995        3.39133475051606
H           -4.98936648407356       -1.96024345411426        5.08330650549015
H           -5.03071018881650        0.45864383706418        4.59250796266493
H           -4.21403988074392        1.28992167663452        2.42726663442297
H           -5.60057888330642       -1.39992470684280       -0.53986155017693
H           -6.40814270124077       -2.90189444864510       -2.31076825539758
H           -4.89659053885881       -3.57671447303022       -4.14284358967317
H           -2.57448792577855       -2.73991025182323       -4.18607428071273
H           -1.77425709451482       -1.23539997519535       -2.41401621094632
H           -0.91341329523640       -1.28754763915495        1.69795808585665
H            1.53199691008372       -1.22434551630709        1.69134744713151
H            3.27552130271371        1.17977148726296        2.68131343060750
H            4.51073947451241        0.11471801938557        4.53213644286543
H            5.76028138517959       -1.96681212154942        4.16861257511947
H            5.80667661659992       -3.02818818445126        1.93808185429803
H            5.52331106435281       -3.73355435678641       -0.53638902378085
H            4.97778095791355       -3.96882327240278       -2.93464283336827
H            3.56843920547357       -2.30461231117400       -4.06085849427128
H            2.68237146529785       -0.36232014189721       -2.82335864137161
H            5.35466690272693        0.75174834025343       -1.55431047877300
H            6.31272387195621        2.96374976176485       -2.00593012385588

          :  Hamiltonian                  GFN2-xTB          :
         :: gradient norm              0.000097205806 Eh/a0 ::
         :: HOMO-LUMO gap              3.427849728378 eV    ::
         :: SCC energy              -112.245685073084 Eh    ::
         :: -> dispersion             -0.107538990657 Eh    ::
         :: -> Gsolv                  -0.045282083209 Eh    ::
         :: repulsion energy           2.142682122682 Eh    ::

    * Orbital Energies and Occupations

         #    Occupation            Energy/Eh            Energy/eV
      -------------------------------------------------------------
         1        2.0000           -0.7512172             -20.4417
       ...           ...                  ...                  ...
        92        2.0000           -0.4028735             -10.9627
        93        2.0000           -0.4010690             -10.9136
        94        2.0000           -0.4006948             -10.9035
        95        2.0000           -0.4002764             -10.8921
        96        2.0000           -0.3997894             -10.8788
        97        2.0000           -0.3995434             -10.8721
        98        2.0000           -0.3962502             -10.7825
        99        2.0000           -0.3947345             -10.7413
       100        2.0000           -0.3899309             -10.6106
       101        2.0000           -0.3831006             -10.4247
       102        2.0000           -0.3818579             -10.3909
       103        2.0000           -0.3807946             -10.3619
       104        2.0000           -0.3780414             -10.2870 (HOMO)
       105                         -0.2520703              -6.8592 (LUMO)
       106                         -0.2395040              -6.5172
       107                         -0.2350872              -6.3970
       108                         -0.2336651              -6.3584
       109                         -0.2282497              -6.2110
       110                         -0.2274611              -6.1895
       111                         -0.2225228              -6.0552
       112                         -0.2206194              -6.0034
       113                         -0.2189950              -5.9592
       114                         -0.2184505              -5.9443
       115                         -0.2179354              -5.9303
       ...                                ...                  ...
       213                          0.7282660              19.8171
      -------------------------------------------------------------
                  HL-Gap            0.1259712 Eh            3.4278 eV

     #   Z          covCN         q      C6AA      α(0)
     1   6 C        2.919    -0.034    28.836     8.806
     2   6 C        2.919    -0.031    28.780     8.797
     3   6 C        2.924    -0.034    28.850     8.808
     4   6 C        2.979     0.017    27.629     8.622
     5   6 C        3.946     0.007    20.384     6.416
     6   6 C        2.980     0.017    27.628     8.622
     7   6 C        2.921    -0.035    28.882     8.813
     8   6 C        2.937    -0.033    28.819     8.804
     9   6 C        2.862    -0.096    30.404     9.038
    10  14 Si       3.610     0.489    98.228    19.028
    11   6 C        2.862    -0.092    30.311     9.024
    12   6 C        2.935    -0.033    28.822     8.805
    13   6 C        2.917    -0.031    28.776     8.797
    14   6 C        2.920    -0.030    28.748     8.793
    15   6 C        2.917    -0.031    28.783     8.798
    16   6 C        2.938    -0.032    28.788     8.800
    17   6 C        2.862    -0.092    30.313     9.025
    18   6 C        2.938    -0.032    28.790     8.800
    19   6 C        2.917    -0.031    28.783     8.798
    20   6 C        2.920    -0.030    28.747     8.792
    21   6 C        2.917    -0.031    28.777     8.797
    22   6 C        2.935    -0.033    28.820     8.804
    23   6 C        2.862    -0.092    30.315     9.025
    24   6 C        2.938    -0.032    28.792     8.800
    25   6 C        2.917    -0.032    28.786     8.798
    26   6 C        2.920    -0.030    28.748     8.792
    27   6 C        2.917    -0.031    28.774     8.796
    28   6 C        2.935    -0.033    28.817     8.804
    29   6 C        2.935    -0.034    28.839     8.807
    30   6 C        2.921    -0.037    28.925     8.820
    31   6 C        3.056     0.004    27.885     8.660
    32   6 C        2.914    -0.034    28.858     8.809
    33   6 C        2.922    -0.034    28.835     8.806
    34   6 C        2.921    -0.034    28.846     8.807
    35   6 C        2.914    -0.035    28.880     8.812
    36   6 C        3.035    -0.000    28.003     8.680
    37   6 C        3.034    -0.000    28.001     8.680
    38   6 C        2.914    -0.035    28.879     8.812
    39   6 C        2.921    -0.034    28.846     8.808
    40   6 C        2.922    -0.034    28.836     8.806
    41   6 C        2.914    -0.035    28.860     8.809
    42   6 C        3.057     0.004    27.884     8.660
    43   6 C        2.923    -0.036    28.902     8.816
    44   6 C        2.920    -0.031    28.776     8.797
    45   1 H        0.926     0.031     2.570     2.507
    46   1 H        0.926     0.032     2.562     2.503
    47   1 H        0.926     0.031     2.572     2.508
    48   1 H        0.926     0.029     2.607     2.525
    49   1 H        0.925     0.023     2.693     2.566
    50   1 H        0.926     0.023     2.693     2.566
    51   1 H        0.926     0.027     2.623     2.533
    52   1 H        0.926     0.029     2.608     2.525
    53   1 H        0.925     0.028     2.619     2.531
    54   1 H        0.925     0.021     2.715     2.577
    55   1 H        0.925     0.021     2.723     2.580
    56   1 H        0.925     0.027     2.624     2.533
    57   1 H        0.926     0.029     2.607     2.525
    58   1 H        0.926     0.028     2.619     2.531
    59   1 H        0.926     0.023     2.693     2.566
    60   1 H        0.925     0.021     2.719     2.579
    61   1 H        0.925     0.027     2.622     2.532
    62   1 H        0.926     0.028     2.608     2.525
    63   1 H        0.926     0.027     2.623     2.533
    64   1 H        0.926     0.022     2.698     2.568
    65   1 H        0.926     0.023     2.690     2.565
    66   1 H        0.926     0.026     2.642     2.542
    67   1 H        0.926     0.030     2.580     2.512
    68   1 H        0.926     0.032     2.563     2.504
    69   1 H        0.926     0.032     2.565     2.504
    70   1 H        0.926     0.032     2.553     2.499
    71   1 H        0.926     0.032     2.553     2.499
    72   1 H        0.926     0.032     2.564     2.504
    73   1 H        0.926     0.032     2.562     2.503
    74   1 H        0.926     0.031     2.578     2.511
    75   1 H        0.926     0.029     2.606     2.525
    76   1 H        0.926     0.031     2.577     2.510

molecular dipole:
                 x           y           z       tot (Debye)
 q only:       -0.033       0.068      -0.011
   full:       -0.019       0.038      -0.008       0.110

 projected vibrational frequencies (cm⁻¹)
eigval :       -0.00     0.00     0.00     0.00     0.00     0.00
eigval :       -2.05    11.44    20.25    25.51    27.61    31.45
eigval :       34.75    36.53    37.27    42.59    45.81    48.12
eigval :       51.25    61.73    75.77    88.31   133.77   138.24
eigval :      148.75   150.26   160.22   180.79   187.60   202.06
eigval :      210.11   216.67   225.55   230.48   246.55   275.35
eigval :      285.67   307.19   314.29   333.29   356.52   357.49
eigval :      358.81   362.57   376.40   386.64   413.46   414.43
eigval :      419.24   424.12   443.41   452.73   461.88   475.68
eigval :      479.57   501.64   507.84   523.71   539.28   587.47
eigval :      588.52   588.65   589.57   589.66   599.86   606.29
eigval :      616.73   646.21   662.51   662.80   662.84   670.01
eigval :      672.13   681.51   691.34   703.68   705.87   723.70
eigval :      728.15   733.90   734.35   736.08   754.29   757.19
eigval :      767.01   782.20   801.95   873.89   876.93   879.61
eigval :      880.66   881.77   882.09   883.86   896.93   903.52
eigval :      904.42   905.31   906.72   907.35   907.69   917.75
eigval :      922.21   923.85   926.13   928.90   929.87   931.23
eigval :      932.01   932.32   934.07   934.18   934.78   935.95
eigval :      937.16   974.59   975.97   976.25   993.99  1006.77
eigval :     1016.94  1075.47  1081.25  1083.38  1084.12  1084.41
eigval :     1086.66  1106.94  1118.68  1119.52  1120.85  1125.24
eigval :     1143.06  1143.66  1147.64  1148.95  1149.43  1154.33
eigval :     1173.75  1175.84  1180.67  1180.75  1181.19  1181.38
eigval :     1183.93  1202.68  1204.16  1205.09  1205.85  1207.87
eigval :     1212.48  1228.17  1240.84  1243.13  1262.33  1281.56
eigval :     1284.30  1285.90  1286.73  1286.92  1289.33  1308.75
eigval :     1308.78  1309.55  1310.16  1318.59  1325.12  1364.21
eigval :     1388.58  1417.42  1418.02  1419.56  1426.57  1429.75
eigval :     1433.60  1460.42  1462.76  1462.92  1463.35  1470.64
eigval :     1473.53  1479.00  1560.21  1574.66  1574.97  1575.53
eigval :     1583.89  1587.21  1591.35  1591.55  1591.78  1592.76
eigval :     1593.57  1597.77  1602.40  1603.05  3056.44  3057.12
eigval :     3057.76  3059.32  3059.51  3059.98  3060.76  3065.62
eigval :     3065.99  3066.52  3066.78  3067.27  3068.30  3068.79
eigval :     3069.40  3070.63  3071.45  3072.44  3073.18  3074.75
eigval :     3075.85  3077.20  3079.01  3080.15  3080.68  3081.78
eigval :     3081.97  3082.49  3083.57  3088.84  3089.19  3091.26

   temp. (K)  partition function   enthalpy   heat capacity  entropy
                                   cal/mol     cal/K/mol   cal/K/mol   J/K/mol
 298.15  VIB  0.164E+20            21859.737    132.070    139.617
         ROT  0.602E+08              888.752      2.981     38.580
         INT  0.987E+27            22748.490    135.051    178.197
         TR   0.134E+29             1481.254      4.968     44.921
         TOT                       24229.7437   140.0194   223.1180   933.5257

       T/K    H(0)-H(T)+PV         H(T)/Eh          T*S/Eh         G(T)/Eh
   ------------------------------------------------------------------------
    298.15    0.386126E-01    0.632023E+00    0.106011E+00    0.526013E+00
   ------------------------------------------------------------------------

         :::::::::::::::::::::::::::::::::::::::::::::::::::::
         ::                  THERMODYNAMIC                  ::
         :::::::::::::::::::::::::::::::::::::::::::::::::::::
         :: total free energy        -109.576990028112 Eh   ::
         ::.................................................::
         :: total energy             -110.103002949474 Eh   ::
         :: zero point energy           0.593410921520 Eh   ::
         :: G(RRHO) w/o ZPVE           -0.067398000158 Eh   ::
         :: G(RRHO) contrib.            0.526012921362 Eh   ::
         :::::::::::::::::::::::::::::::::::::::::::::::::::::

           -------------------------------------------------
          | TOTAL ENERGY             -110.103002949474 Eh   |
          | TOTAL ENTHALPY           -109.470979473572 Eh   |
          | TOTAL FREE ENERGY        -109.576990028112 Eh   |
          | GRADIENT NORM               0.000097180962 Eh/α |
          | HOMO-LUMO GAP               3.427849800810 eV   |
           -------------------------------------------------

 * finished run on 2025/09/11 at 04:49:08.060
