   * xtb version 6.7.1 (edcfbbe) compiled by 'albert@albert-system' on 2024-07-22

   ID    Z sym.   atoms
    1    6 C      1-9, 11-44
    2   14 Si     10
    3    1 H      45-76

          program call               : xtb data2507/toluene/TPSi-F/TPSi-F_toluene_S0_crest.xyz --gfn 2 --gbsa toluene --ohess vtight --parallel 40 --molden --ceasefiles --namespace data2507/toluene/TPSi-F/TPSi-F_toluene_S0_finalOpt
      * Solvation model:               GBSA
        Solvent                        toluene
        Solvent mass                       9.2140E+01 g/mol
          :  Hamiltonian                  GFN2-xTB          :
 * total energy  :  -110.1030055 Eh     change       -0.1671040E-08 Eh
 * total energy  :  -110.1030380 Eh     change       -0.3251773E-04 Eh
 * total energy  :  -110.1030505 Eh     change       -0.1249129E-04 Eh
 * total energy  :  -110.1030542 Eh     change       -0.3742440E-05 Eh
 * total energy  :  -110.1030566 Eh     change       -0.2329240E-05 Eh
 * total energy  :  -110.1030595 Eh     change       -0.2919434E-05 Eh
 * total energy  :  -110.1030627 Eh     change       -0.3250806E-05 Eh
 * total energy  :  -110.1030656 Eh     change       -0.2882119E-05 Eh
 * total energy  :  -110.1030676 Eh     change       -0.1948297E-05 Eh
 * total energy  :  -110.1030690 Eh     change       -0.1465784E-05 Eh
 * total energy  :  -110.1030775 Eh     change       -0.6880716E-06 Eh
 * total energy  :  -110.1030777 Eh     change       -0.2792699E-06 Eh
 * total energy  :  -110.1030777 Eh     change        0.3822592E-07 Eh
 * total energy  :  -110.1030779 Eh     change       -0.1549710E-06 Eh
 * total energy  :  -110.1030780 Eh     change       -0.1888264E-06 Eh
 * total energy  :  -110.1030783 Eh     change       -0.2626169E-06 Eh
 * total energy  :  -110.1030785 Eh     change       -0.1784681E-06 Eh
 * total energy  :  -110.1030786 Eh     change       -0.1520125E-06 Eh
 * total energy  :  -110.1030787 Eh     change       -0.9690069E-07 Eh
   *** GEOMETRY OPTIMIZATION CONVERGED AFTER 27 ITERATIONS ***

 final structure:
================
76
 xtb: 6.7.1 (edcfbbe)
C            4.75340144258889        4.09884885650732       -0.96441659602137
C            3.63109483180232        3.97017906548849       -0.16338566491969
C            3.11504155980369        2.71764125094682        0.11594913670480
C            3.70940466582582        1.57405713134587       -0.40679197147900
C            3.17084264064723        0.20295830323913       -0.04240869514833
C            1.65626110632336        0.17001651381076        0.01194469312051
C            0.90836818921951        0.85521038695698       -0.94026142151789
C           -0.47077824563612        0.78349035326431       -0.93483878929122
C           -1.15306281100003        0.02658615311833        0.01436106901852
Si          -3.04720132572647       -0.03209369080458        0.01267737563571
C           -3.65483436730256       -1.49195507535264        1.06054221387104
C           -4.04490758369752       -2.69479386350019        0.47992010546637
C           -4.47620461471446       -3.75636986896092        1.25606759871935
C           -4.52547225951635       -3.63253680372197        2.63466606821737
C           -4.14158527378925       -2.44194840910620        3.23018508694777
C           -3.71151387721892       -1.38520036777345        2.44800300005409
C           -3.63480245207413       -0.22976000236805       -1.78070222497559
C           -4.77574834257541        0.41322748094611       -2.25076621912024
C           -5.20614887588471        0.24353419940250       -3.55507301207542
C           -4.49839295280433       -0.57726228910138       -4.41747620938533
C           -3.35787694983807       -1.22263694572901       -3.96798745979142
C           -2.93335439097689       -1.04794805688777       -2.66303229241292
C           -3.74902521496717        1.56638901578864        0.75612589354745
C           -2.97662773062828        2.71757351929615        0.87584023487090
C           -3.50572860266973        3.88218465096642        1.40403086875296
C           -4.82512034928875        3.91648878251350        1.82375103611106
C           -5.60830372395736        2.77868418143769        1.71610729785932
C           -5.07204429364177        1.61780333371612        1.18847318384640
C           -0.39592837398098       -0.66596640024555        0.95249388646480
C            0.98581964621954       -0.60270667617168        0.95114665119327
C            3.83911952715103       -0.22175656305996        1.25220552373308
C            3.80676584643229        0.39847399093116        2.48331440880907
C            4.51820925565681       -0.16589291710531        3.53401388546037
C            5.25419198039313       -1.32707159089958        3.35132230875263
C            5.29691930592645       -1.95108396630297        2.11476641019897
C            4.58681669290916       -1.39313946600646        1.06391784255275
C            4.44336913930749       -1.81719626531952       -0.31966241328703
C            4.96551810413315       -2.91014808128324       -0.99243024136655
C            4.65553107850324       -3.07556960634705       -2.33289776685873
C            3.83612378613520       -2.16844900726888       -2.98793118429413
C            3.31110537828596       -1.07089674073290       -2.31831969555416
C            3.62351091973562       -0.89551519486806       -0.98677801919790
C            4.84343667361535        1.71088920639812       -1.19698369139954
C            5.35859855579853        2.96480500286782       -1.47757204954947
H            5.15539236551354        5.07714593259507       -1.18438235487548
H            3.15486730058315        4.84937841330684        0.24661673095920
H            2.23537951399166        2.62773520192361        0.73711377629117
H            1.41051807442586        1.45792342142719       -1.68409383089422
H           -1.03244967673977        1.32182144359198       -1.68569272674294
H           -4.01364660179303       -2.79719513741140       -0.59559802515842
H           -4.77671557333153       -4.68247299411274        0.78590568914366
H           -4.86355642482693       -4.45943762006991        3.24307149808047
H           -4.17928472464315       -2.33862621620009        4.30583920843329
H           -3.41771615450608       -0.45677535611643        2.91808012809176
H           -5.33036968749932        1.05958794434380       -1.58551835612896
H           -6.09511015839840        0.75222960520748       -3.90133669473356
H           -4.83275434414846       -0.71186127930925       -5.43648439207962
H           -2.79940207557688       -1.86254025181933       -4.63718133909562
H           -2.03927332717180       -1.55013677075846       -2.31984475637745
H           -1.94506666665102        2.69700743380937        0.55444203206299
H           -2.88888147219505        4.76605678927806        1.48937211986696
H           -5.24091994958993        4.82502440143157        2.23589618954586
H           -6.63825561004444        2.79814521945374        2.04457963966943
H           -5.68643901796273        0.73097519765168        1.11457136959140
H           -0.89660513130169       -1.27124745797666        1.69471483175576
H            1.54753888711731       -1.15779542839943        1.68905044725008
H            3.23648711413195        1.30310039378925        2.63386681753931
H            4.49806932048674        0.30671025473420        4.50543103474295
H            5.80137952074642       -1.74838579327405        4.18246630243618
H            5.87296479118424       -2.85381764685920        1.97419524625937
H            5.60084139601234       -3.61989930486137       -0.48343712531899
H            5.05463873708789       -3.92148639962667       -2.87410982436436
H            3.60314803943941       -2.31635728533484       -4.03256539971491
H            2.67417397712889       -0.36910514593313       -2.83591385670226
H            5.32733982997981        0.83245810829588       -1.59879178474502
H            6.23820426402669        3.05379120729951       -2.09899424415128

          :  Hamiltonian                  GFN2-xTB          :
         :: gradient norm              0.000028593356 Eh/a0 ::
         :: HOMO-LUMO gap              3.432457993079 eV    ::
         :: SCC energy              -112.245732873683 Eh    ::
         :: -> dispersion             -0.107559606170 Eh    ::
         :: -> Gsolv                  -0.045312907107 Eh    ::
         :: repulsion energy           2.142654133619 Eh    ::

    * Orbital Energies and Occupations

         #    Occupation            Energy/Eh            Energy/eV
      -------------------------------------------------------------
         1        2.0000           -0.7512324             -20.4421
       ...           ...                  ...                  ...
        92        2.0000           -0.4029584             -10.9651
        93        2.0000           -0.4010695             -10.9137
        94        2.0000           -0.4006663             -10.9027
        95        2.0000           -0.4002488             -10.8913
        96        2.0000           -0.3998797             -10.8813
        97        2.0000           -0.3994871             -10.8706
        98        2.0000           -0.3962412             -10.7823
        99        2.0000           -0.3949292             -10.7466
       100        2.0000           -0.3897476             -10.6056
       101        2.0000           -0.3829079             -10.4195
       102        2.0000           -0.3817927             -10.3891
       103        2.0000           -0.3809490             -10.3661
       104        2.0000           -0.3781858             -10.2910 (HOMO)
       105                         -0.2520453              -6.8585 (LUMO)
       106                         -0.2394936              -6.5170
       107                         -0.2349783              -6.3941
       108                         -0.2338640              -6.3638
       109                         -0.2282434              -6.2108
       110                         -0.2274389              -6.1889
       111                         -0.2226168              -6.0577
       112                         -0.2207246              -6.0062
       113                         -0.2189417              -5.9577
       114                         -0.2185117              -5.9460
       115                         -0.2178862              -5.9290
       ...                                ...                  ...
       213                          0.7282913              19.8178
      -------------------------------------------------------------
                  HL-Gap            0.1261405 Eh            3.4325 eV

     #   Z          covCN         q      C6AA      α(0)
     1   6 C        2.919    -0.034    28.836     8.806
     2   6 C        2.919    -0.031    28.781     8.797
     3   6 C        2.924    -0.034    28.850     8.808
     4   6 C        2.979     0.017    27.627     8.622
     5   6 C        3.946     0.007    20.384     6.416
     6   6 C        2.980     0.017    27.628     8.622
     7   6 C        2.921    -0.035    28.882     8.813
     8   6 C        2.938    -0.033    28.819     8.804
     9   6 C        2.862    -0.096    30.405     9.038
    10  14 Si       3.610     0.489    98.226    19.028
    11   6 C        2.862    -0.093    30.318     9.025
    12   6 C        2.935    -0.033    28.818     8.804
    13   6 C        2.917    -0.031    28.777     8.797
    14   6 C        2.920    -0.030    28.748     8.793
    15   6 C        2.917    -0.031    28.784     8.798
    16   6 C        2.938    -0.032    28.793     8.800
    17   6 C        2.862    -0.092    30.310     9.024
    18   6 C        2.935    -0.033    28.823     8.805
    19   6 C        2.917    -0.031    28.777     8.797
    20   6 C        2.920    -0.030    28.747     8.792
    21   6 C        2.917    -0.031    28.782     8.797
    22   6 C        2.938    -0.032    28.789     8.800
    23   6 C        2.862    -0.092    30.310     9.024
    24   6 C        2.935    -0.033    28.820     8.804
    25   6 C        2.917    -0.031    28.775     8.797
    26   6 C        2.920    -0.030    28.748     8.793
    27   6 C        2.917    -0.031    28.784     8.798
    28   6 C        2.938    -0.032    28.789     8.800
    29   6 C        2.935    -0.034    28.836     8.807
    30   6 C        2.921    -0.037    28.924     8.819
    31   6 C        3.056     0.004    27.885     8.660
    32   6 C        2.914    -0.034    28.858     8.809
    33   6 C        2.922    -0.034    28.835     8.806
    34   6 C        2.921    -0.034    28.846     8.808
    35   6 C        2.914    -0.035    28.880     8.812
    36   6 C        3.035    -0.000    28.004     8.680
    37   6 C        3.034    -0.000    28.002     8.680
    38   6 C        2.914    -0.035    28.880     8.812
    39   6 C        2.921    -0.034    28.847     8.808
    40   6 C        2.922    -0.034    28.837     8.806
    41   6 C        2.914    -0.035    28.862     8.810
    42   6 C        3.056     0.004    27.885     8.660
    43   6 C        2.923    -0.036    28.902     8.816
    44   6 C        2.920    -0.031    28.776     8.797
    45   1 H        0.926     0.031     2.570     2.507
    46   1 H        0.926     0.032     2.561     2.503
    47   1 H        0.926     0.031     2.571     2.508
    48   1 H        0.926     0.029     2.607     2.525
    49   1 H        0.925     0.023     2.693     2.566
    50   1 H        0.926     0.022     2.703     2.571
    51   1 H        0.925     0.027     2.624     2.533
    52   1 H        0.926     0.028     2.608     2.525
    53   1 H        0.925     0.028     2.621     2.532
    54   1 H        0.925     0.021     2.715     2.577
    55   1 H        0.926     0.023     2.687     2.564
    56   1 H        0.926     0.028     2.620     2.531
    57   1 H        0.926     0.029     2.608     2.525
    58   1 H        0.925     0.027     2.623     2.533
    59   1 H        0.925     0.021     2.721     2.580
    60   1 H        0.926     0.023     2.689     2.564
    61   1 H        0.926     0.028     2.619     2.531
    62   1 H        0.926     0.029     2.607     2.525
    63   1 H        0.925     0.027     2.623     2.533
    64   1 H        0.925     0.021     2.721     2.580
    65   1 H        0.926     0.023     2.694     2.567
    66   1 H        0.926     0.026     2.643     2.542
    67   1 H        0.926     0.031     2.576     2.510
    68   1 H        0.926     0.032     2.562     2.503
    69   1 H        0.926     0.032     2.565     2.504
    70   1 H        0.926     0.032     2.554     2.499
    71   1 H        0.926     0.032     2.554     2.499
    72   1 H        0.926     0.032     2.564     2.504
    73   1 H        0.926     0.032     2.562     2.503
    74   1 H        0.926     0.031     2.575     2.509
    75   1 H        0.926     0.029     2.607     2.525
    76   1 H        0.926     0.031     2.577     2.510

molecular dipole:
                 x           y           z       tot (Debye)
 q only:       -0.035       0.076      -0.015
   full:       -0.023       0.044      -0.011       0.128

 projected vibrational frequencies (cm⁻¹)
eigval :       -0.00    -0.00    -0.00     0.00     0.00     0.00
eigval :        4.52    13.21    22.89    28.30    29.55    31.78
eigval :       33.97    35.82    42.14    43.59    46.70    49.30
eigval :       53.26    63.19    75.44    88.57   132.90   138.44
eigval :      149.10   150.00   159.98   180.68   189.49   201.87
eigval :      209.79   217.37   226.02   229.76   246.74   275.91
eigval :      286.10   308.21   314.53   333.50   357.33   358.08
eigval :      359.79   365.14   376.75   388.56   413.92   414.47
eigval :      420.49   424.12   444.05   453.76   461.68   475.12
eigval :      479.98   501.64   508.81   524.18   538.79   587.41
eigval :      588.48   589.08   589.68   590.11   600.07   606.47
eigval :      616.96   646.54   662.26   663.16   663.67   670.22
eigval :      672.55   681.99   691.74   703.72   705.82   723.69
eigval :      728.57   734.95   736.81   737.86   754.18   757.84
eigval :      767.70   782.85   802.02   875.51   877.77   880.21
eigval :      881.91   882.08   882.91   884.91   897.33   902.42
eigval :      905.28   906.73   907.53   908.59   910.71   917.85
eigval :      922.72   924.11   925.23   929.99   931.06   932.60
eigval :      932.85   933.20   934.22   935.46   935.82   936.26
eigval :      937.04   974.59   975.94   976.26   993.93  1006.80
eigval :     1017.13  1075.70  1081.40  1083.20  1083.94  1084.45
eigval :     1086.98  1106.58  1119.31  1119.93  1121.61  1125.75
eigval :     1142.73  1143.21  1147.59  1148.59  1149.30  1154.36
eigval :     1172.48  1174.28  1180.92  1182.19  1183.15  1183.89
eigval :     1184.10  1203.15  1204.12  1204.51  1204.96  1207.62
eigval :     1212.16  1228.37  1240.59  1243.61  1262.15  1281.34
eigval :     1283.77  1286.13  1286.47  1287.24  1289.49  1308.79
eigval :     1308.92  1309.65  1310.23  1318.61  1325.15  1363.94
eigval :     1388.66  1417.99  1418.65  1420.30  1426.07  1429.58
eigval :     1433.84  1460.32  1462.74  1462.90  1463.23  1470.29
eigval :     1473.73  1479.01  1560.29  1574.92  1575.12  1575.86
eigval :     1583.82  1587.29  1591.38  1591.59  1591.79  1592.69
eigval :     1593.61  1597.83  1602.41  1603.01  3056.37  3056.98
eigval :     3057.18  3059.06  3059.41  3059.74  3060.49  3065.64
eigval :     3065.94  3066.23  3066.52  3067.77  3068.31  3068.98
eigval :     3069.90  3070.35  3071.45  3071.82  3072.65  3075.00
eigval :     3075.78  3077.54  3078.48  3080.50  3080.78  3081.45
eigval :     3082.17  3082.73  3083.56  3089.03  3089.80  3091.35

   temp. (K)  partition function   enthalpy   heat capacity  entropy
                                   cal/mol     cal/K/mol   cal/K/mol   J/K/mol
 298.15  VIB  0.398E+19            21814.549    132.250    138.385
         ROT  0.602E+08              888.752      2.981     38.581
         INT  0.240E+27            22703.301    135.231    176.966
         TR   0.134E+29             1481.254      4.968     44.921
         TOT                       24184.5553   140.1989   221.8865   928.3730

       T/K    H(0)-H(T)+PV         H(T)/Eh          T*S/Eh         G(T)/Eh
   ------------------------------------------------------------------------
    298.15    0.385405E-01    0.632120E+00    0.105425E+00    0.526694E+00
   ------------------------------------------------------------------------

         :::::::::::::::::::::::::::::::::::::::::::::::::::::
         ::                  THERMODYNAMIC                  ::
         :::::::::::::::::::::::::::::::::::::::::::::::::::::
         :: total free energy        -109.576384630497 Eh   ::
         ::.................................................::
         :: total energy             -110.103078734551 Eh   ::
         :: zero point energy           0.593578989587 Eh   ::
         :: G(RRHO) w/o ZPVE           -0.066884885533 Eh   ::
         :: G(RRHO) contrib.            0.526694104055 Eh   ::
         :::::::::::::::::::::::::::::::::::::::::::::::::::::

           -------------------------------------------------
          | TOTAL ENERGY             -110.103078734551 Eh   |
          | TOTAL ENTHALPY           -109.470959202940 Eh   |
          | TOTAL FREE ENERGY        -109.576384630497 Eh   |
          | GRADIENT NORM               0.000028573731 Eh/α |
          | HOMO-LUMO GAP               3.432457667735 eV   |
           -------------------------------------------------

 * finished run on 2025/09/11 at 04:55:07.913
