   * xtb version 6.7.1 (edcfbbe) compiled by 'albert@albert-system' on 2024-07-22

   ID    Z sym.   atoms
    1    6 C      1-9, 11-44
    2   14 Si     10
    3    1 H      45-76

          program call               : xtb data2507/toluene/TPSi-F/TPSi-F_toluene_T1_crest.xyz --gfn 2 --uhf 2 --gbsa toluene --ohess vtight --parallel 40 --molden --ceasefiles --namespace data2507/toluene/TPSi-F/TPSi-F_toluene_T1_finalOpt
      * Solvation model:               GBSA
        Solvent                        toluene
        Solvent mass                       9.2140E+01 g/mol
          :  Hamiltonian                  GFN2-xTB          :
 * total energy  :  -109.9900675 Eh     change       -0.1334811E-08 Eh
 * total energy  :  -109.9901019 Eh     change       -0.3442602E-04 Eh
 * total energy  :  -109.9901167 Eh     change       -0.1478894E-04 Eh
 * total energy  :  -109.9901215 Eh     change       -0.4765796E-05 Eh
 * total energy  :  -109.9901254 Eh     change       -0.3952079E-05 Eh
 * total energy  :  -109.9901296 Eh     change       -0.4187474E-05 Eh
 * total energy  :  -109.9901348 Eh     change       -0.5142068E-05 Eh
 * total energy  :  -109.9901393 Eh     change       -0.4548092E-05 Eh
 * total energy  :  -109.9901418 Eh     change       -0.2517971E-05 Eh
 * total energy  :  -109.9901437 Eh     change       -0.1843577E-05 Eh
 * total energy  :  -109.9901479 Eh     change       -0.4698698E-06 Eh
 * total energy  :  -109.9901483 Eh     change       -0.4043252E-06 Eh
 * total energy  :  -109.9901488 Eh     change       -0.5667879E-06 Eh
 * total energy  :  -109.9901498 Eh     change       -0.9734676E-06 Eh
 * total energy  :  -109.9901511 Eh     change       -0.1331271E-05 Eh
 * total energy  :  -109.9901523 Eh     change       -0.1141789E-05 Eh
 * total energy  :  -109.9901530 Eh     change       -0.6829576E-06 Eh
 * total energy  :  -109.9901535 Eh     change       -0.5525921E-06 Eh
 * total energy  :  -109.9901535 Eh     change       -0.7848087E-08 Eh
   *** GEOMETRY OPTIMIZATION CONVERGED AFTER 22 ITERATIONS ***

 final structure:
================
76
 xtb: 6.7.1 (edcfbbe)
C            4.83115534306196        4.11662092776238       -0.83287777558901
C            3.69647008836191        3.99108317061961       -0.04783163090947
C            3.14750997120042        2.74396585384550        0.18786678330209
C            3.72201085520967        1.60304054047522       -0.36283594929880
C            3.16142325084326        0.22958155282779       -0.04296390893108
C            1.64713342359504        0.20416179430342        0.01484997160580
C            0.89293638722156        0.93542776980452       -0.89812556769454
C           -0.48539912717627        0.85835088380378       -0.88943804301311
C           -1.16061915667036        0.05069460684288        0.02362366819603
Si          -3.05418592524835       -0.02080626469854        0.02159064098558
C           -3.64798542056444       -1.52193687101350        1.01750142007215
C           -4.04049464619880       -2.70138341620562        0.39216749745043
C           -4.45822380519236       -3.79609978884056        1.12863617469037
C           -4.49123807249253       -3.72956097036241        2.51168301929315
C           -4.10515676945303       -2.56286821869654        3.15143832964474
C           -3.68868326736447       -1.47265461818980        2.40876612571850
C           -3.64052859685624       -0.16377945812591       -1.77748448501520
C           -4.79426202708247        0.47386170279446       -2.22307143606156
C           -5.22271707202776        0.34419122949522       -3.53260434297708
C           -4.50038925732287       -0.43079430825702       -4.42481022039036
C           -3.34741589047806       -1.07053033228654       -3.99967853450009
C           -2.92470481789103       -0.93579496329069       -2.68940849265742
C           -3.76778779179589        1.54859178432854        0.81535393243333
C           -3.00976355145758        2.70693246046949        0.95582083383593
C           -3.54976924402470        3.85112588678443        1.51662443217950
C           -4.86541116548447        3.85718350359137        1.94928720142705
C           -5.63391377915461        2.71147719486806        1.82190989720303
C           -5.08708261853814        1.57111626775153        1.26127643435361
C           -0.39742877837228       -0.68730285986150        0.92208064938190
C            0.98352763341956       -0.62128798824807        0.91444802993951
C            3.83083323213927       -0.24232437088845        1.23369192632594
C            3.82041727005451        0.31891134991788        2.47212113966591
C            4.54021410805910       -0.29531400846952        3.51458471050989
C            5.27930897256769       -1.47806263063462        3.28095080214640
C            5.32039183552072       -2.06136260386840        2.05210554271987
C            4.58967652656759       -1.45961705012436        0.97226837618600
C            4.43703129104803       -1.82069132884557       -0.34879577551065
C            4.94896028876024       -2.92853623669161       -1.10558262403255
C            4.61842702287089       -3.03633490345969       -2.42099889112919
C            3.78215010336309       -2.08737089846043       -3.05477353512421
C            3.26594918713714       -0.99285236397037       -2.33657560864714
C            3.58900908132535       -0.84471882355553       -1.02378972408507
C            4.86905149617902        1.73618713473140       -1.13551711111095
C            5.41595760936420        2.98481386811943       -1.37462375781442
H            5.25911032274356        5.09119798394778       -1.01744934072417
H            3.23627477798330        4.86947681639330        0.38176831583125
H            2.25853194344746        2.65457497668773        0.79572051007184
H            1.39141324827449        1.57610718209397       -1.61206075083156
H           -1.05350619065875        1.43197418830194       -1.60866152582667
H           -4.02115627869266       -2.75903775522629       -0.68692357219568
H           -4.76019500087627       -4.70345718000972        0.62411673125177
H           -4.81779694161742       -4.58276109806624        3.08928348770735
H           -4.13016054347078       -2.50473311540301        4.23078854095628
H           -3.39235269599029       -0.56346641610105        2.91346196476994
H           -5.36054033758725        1.08436898810806       -1.53422718212017
H           -6.12161798762400        0.84816978764139       -3.85949657784176
H           -4.83321344143798       -0.53453842370405       -5.44791362990389
H           -2.77784557065654       -1.67508401918715       -4.69195369020782
H           -2.02109336857498       -1.43343871241205       -2.36508161623334
H           -1.98111602256467        2.70862225766839        0.62491013760090
H           -2.94427284538934        4.74121545223381        1.61708584453142
H           -5.28956521333163        4.75004514078478        2.38646228303712
H           -6.66060873660178        2.70833754947927        2.16088390323190
H           -5.69018001362811        0.67807733129319        1.17154077827814
H           -0.89328196587295       -1.33206095035371        1.63358100489969
H            1.55462330803668       -1.21412755161445        1.61554117995502
H            3.26302599122526        1.22269821462524        2.67084187799623
H            4.52965994778818        0.14009285659725        4.50114407070516
H            5.82249724240918       -1.91638721947532        4.10646482663127
H            5.89073042485537       -2.95918897960057        1.87051608484055
H            5.57805919711640       -3.65742981898189       -0.61841045617512
H            4.99379934410464       -3.86301200197649       -3.00784884181932
H            3.54210486858903       -2.20328299552969       -4.09973429101815
H            2.63001535045035       -0.27830776758856       -2.83863114234179
H            5.33543582407904        0.85587401455703       -1.55474034631344
H            6.30448169105009        3.07223613972558       -1.98343289981918

          :  Hamiltonian                  GFN2-xTB          :
         :: gradient norm              0.000059390027 Eh/a0 ::
         :: HOMO-LUMO gap              0.757922567278 eV    ::
         :: SCC energy              -112.111330934555 Eh    ::
         :: -> dispersion             -0.107315548795 Eh    ::
         :: -> Gsolv                  -0.045464886988 Eh    ::
         :: repulsion energy           2.121177415990 Eh    ::

    * Orbital Energies and Occupations

         #    Occupation            Energy/Eh            Energy/eV
      -------------------------------------------------------------
         1        2.0000           -0.7516964             -20.4547
       ...           ...                  ...                  ...
        93        2.0000           -0.4016908             -10.9306
        94        2.0000           -0.4009327             -10.9099
        95        2.0000           -0.4004855             -10.8978
        96        2.0000           -0.4002168             -10.8905
        97        2.0000           -0.3997901             -10.8788
        98        2.0000           -0.3982612             -10.8372
        99        2.0000           -0.3955319             -10.7630
       100        2.0000           -0.3898636             -10.6087
       101        1.9999           -0.3832280             -10.4282
       102        1.9998           -0.3820367             -10.3957
       103        1.9993           -0.3809212             -10.3654
       104        1.0010           -0.3675448             -10.0014
       105        1.0000           -0.2677188              -7.2850 (HOMO)
       106        0.0000           -0.2398657              -6.5271 (LUMO)
       107                         -0.2349956              -6.3946
       108                         -0.2341590              -6.3718
       109                         -0.2274620              -6.1896
       110                         -0.2260630              -6.1515
       111                         -0.2226603              -6.0589
       112                         -0.2199781              -5.9859
       113                         -0.2187813              -5.9533
       114                         -0.2183206              -5.9408
       115                         -0.2180244              -5.9327
       116                         -0.2159877              -5.8773
       ...                                ...                  ...
       213                          0.7344840              19.9863
      -------------------------------------------------------------
                  HL-Gap            0.0278531 Eh            0.7579 eV

     #   Z          covCN         q      C6AA      α(0)
     1   6 C        2.919    -0.033    28.828     8.805
     2   6 C        2.919    -0.031    28.775     8.797
     3   6 C        2.923    -0.034    28.846     8.808
     4   6 C        2.980     0.014    27.689     8.632
     5   6 C        3.936     0.008    20.373     6.414
     6   6 C        2.981     0.015    27.679     8.630
     7   6 C        2.920    -0.035    28.873     8.812
     8   6 C        2.937    -0.033    28.812     8.803
     9   6 C        2.862    -0.095    30.386     9.035
    10  14 Si       3.610     0.489    98.219    19.027
    11   6 C        2.862    -0.092    30.317     9.025
    12   6 C        2.935    -0.033    28.818     8.804
    13   6 C        2.917    -0.031    28.776     8.797
    14   6 C        2.920    -0.030    28.746     8.792
    15   6 C        2.917    -0.031    28.783     8.798
    16   6 C        2.938    -0.032    28.793     8.800
    17   6 C        2.862    -0.092    30.307     9.024
    18   6 C        2.935    -0.033    28.821     8.804
    19   6 C        2.917    -0.031    28.775     8.797
    20   6 C        2.920    -0.030    28.745     8.792
    21   6 C        2.917    -0.031    28.779     8.797
    22   6 C        2.938    -0.032    28.788     8.800
    23   6 C        2.862    -0.092    30.294     9.022
    24   6 C        2.935    -0.033    28.819     8.804
    25   6 C        2.917    -0.031    28.772     8.796
    26   6 C        2.920    -0.030    28.745     8.792
    27   6 C        2.917    -0.031    28.780     8.797
    28   6 C        2.938    -0.032    28.788     8.800
    29   6 C        2.934    -0.033    28.827     8.805
    30   6 C        2.921    -0.036    28.906     8.817
    31   6 C        3.048     0.006    27.843     8.654
    32   6 C        2.903    -0.035    28.874     8.811
    33   6 C        2.917    -0.038    28.949     8.823
    34   6 C        2.909    -0.029    28.729     8.789
    35   6 C        2.904    -0.039    28.975     8.826
    36   6 C        3.019    -0.001    28.023     8.683
    37   6 C        3.019    -0.001    28.023     8.683
    38   6 C        2.904    -0.039    28.976     8.826
    39   6 C        2.909    -0.029    28.729     8.789
    40   6 C        2.917    -0.038    28.955     8.824
    41   6 C        2.903    -0.035    28.880     8.812
    42   6 C        3.048     0.006    27.841     8.654
    43   6 C        2.923    -0.036    28.889     8.814
    44   6 C        2.919    -0.031    28.767     8.795
    45   1 H        0.926     0.032     2.560     2.502
    46   1 H        0.926     0.032     2.552     2.498
    47   1 H        0.926     0.032     2.564     2.504
    48   1 H        0.926     0.029     2.596     2.519
    49   1 H        0.925     0.024     2.677     2.559
    50   1 H        0.926     0.022     2.702     2.571
    51   1 H        0.925     0.027     2.622     2.532
    52   1 H        0.926     0.029     2.607     2.525
    53   1 H        0.926     0.028     2.619     2.531
    54   1 H        0.925     0.022     2.709     2.574
    55   1 H        0.926     0.023     2.685     2.562
    56   1 H        0.926     0.028     2.617     2.530
    57   1 H        0.926     0.029     2.605     2.524
    58   1 H        0.925     0.028     2.622     2.532
    59   1 H        0.925     0.021     2.721     2.580
    60   1 H        0.926     0.024     2.679     2.559
    61   1 H        0.926     0.028     2.613     2.528
    62   1 H        0.926     0.029     2.602     2.523
    63   1 H        0.926     0.028     2.617     2.530
    64   1 H        0.925     0.021     2.715     2.577
    65   1 H        0.926     0.023     2.682     2.561
    66   1 H        0.925     0.027     2.636     2.539
    67   1 H        0.926     0.029     2.596     2.520
    68   1 H        0.926     0.031     2.569     2.507
    69   1 H        0.926     0.031     2.570     2.507
    70   1 H        0.926     0.032     2.562     2.503
    71   1 H        0.926     0.032     2.562     2.503
    72   1 H        0.926     0.031     2.570     2.507
    73   1 H        0.926     0.031     2.571     2.508
    74   1 H        0.926     0.029     2.596     2.520
    75   1 H        0.926     0.029     2.604     2.524
    76   1 H        0.926     0.031     2.570     2.507

molecular dipole:
                 x           y           z       tot (Debye)
 q only:       -0.157       0.139      -0.011
   full:       -0.138       0.098      -0.009       0.432

 projected vibrational frequencies (cm⁻¹)
eigval :       -0.00    -0.00     0.00     0.00     0.00     0.00
eigval :       -5.91    10.11    14.74    23.62    27.23    30.31
eigval :       32.32    37.31    39.84    41.47    44.68    49.61
eigval :       52.54    61.88    77.06    79.47   108.21   136.32
eigval :      145.42   148.34   158.74   179.46   186.32   198.88
eigval :      209.21   217.52   222.10   227.94   229.40   248.17
eigval :      281.58   298.96   310.95   319.95   331.40   356.99
eigval :      358.12   359.64   363.94   375.65   381.20   409.90
eigval :      411.50   415.83   420.05   432.51   451.31   455.87
eigval :      474.43   478.96   487.57   503.33   506.52   552.70
eigval :      579.27   587.79   588.91   589.78   590.15   597.59
eigval :      605.62   625.09   654.20   661.10   661.63   662.59
eigval :      662.88   670.69   676.12   683.16   684.49   697.73
eigval :      703.80   705.09   719.66   731.08   734.27   736.81
eigval :      738.51   754.34   784.01   792.06   800.20   868.24
eigval :      874.82   875.45   878.77   879.38   882.04   883.37
eigval :      883.70   899.29   900.65   903.28   903.73   905.76
eigval :      906.04   908.85   911.65   922.30   927.47   930.25
eigval :      931.18   931.41   933.18   934.10   935.34   936.15
eigval :      936.93   947.16   974.02   975.53   976.28   988.22
eigval :     1011.69  1017.18  1030.74  1079.86  1083.20  1084.01
eigval :     1084.42  1084.98  1086.28  1119.29  1120.54  1121.69
eigval :     1122.88  1132.63  1142.29  1143.11  1146.84  1148.85
eigval :     1151.23  1151.92  1160.45  1164.24  1180.43  1180.71
eigval :     1182.10  1182.81  1196.81  1199.90  1204.72  1206.32
eigval :     1208.66  1212.24  1229.78  1235.99  1252.98  1278.78
eigval :     1282.38  1285.66  1286.78  1287.54  1289.45  1300.50
eigval :     1308.61  1308.96  1309.62  1311.36  1319.99  1327.93
eigval :     1348.82  1350.11  1368.89  1388.97  1417.40  1418.24
eigval :     1419.54  1432.10  1462.25  1462.53  1463.05  1469.53
eigval :     1474.23  1499.48  1501.97  1533.94  1554.20  1561.15
eigval :     1574.29  1574.88  1575.23  1581.89  1583.48  1590.53
eigval :     1591.17  1592.53  1594.09  1634.73  3057.30  3057.80
eigval :     3058.72  3059.70  3060.37  3060.63  3061.20  3063.10
eigval :     3066.43  3066.61  3066.79  3067.10  3067.21  3067.60
eigval :     3067.83  3071.34  3071.90  3072.52  3073.71  3075.17
eigval :     3075.78  3076.91  3077.86  3079.13  3080.82  3081.02
eigval :     3081.64  3086.43  3087.96  3089.30  3098.09  3099.99

   temp. (K)  partition function   enthalpy   heat capacity  entropy
                                   cal/mol     cal/K/mol   cal/K/mol   J/K/mol
 298.15  VIB  0.203E+20            22332.375    134.595    142.005
         ROT  0.605E+08              888.752      2.981     38.588
         INT  0.123E+28            23221.127    137.576    180.593
         TR   0.134E+29             1481.254      4.968     44.921
         TOT                       24702.3810   142.5442   225.5139   943.5501

       T/K    H(0)-H(T)+PV         H(T)/Eh          T*S/Eh         G(T)/Eh
   ------------------------------------------------------------------------
    298.15    0.393657E-01    0.628073E+00    0.107149E+00    0.520924E+00
   ------------------------------------------------------------------------

         :::::::::::::::::::::::::::::::::::::::::::::::::::::
         ::                  THERMODYNAMIC                  ::
         :::::::::::::::::::::::::::::::::::::::::::::::::::::
         :: total free energy        -109.469229361430 Eh   ::
         ::.................................................::
         :: total energy             -109.990153514158 Eh   ::
         :: zero point energy           0.588707331956 Eh   ::
         :: G(RRHO) w/o ZPVE           -0.067783179228 Eh   ::
         :: G(RRHO) contrib.            0.520924152728 Eh   ::
         :::::::::::::::::::::::::::::::::::::::::::::::::::::

           -------------------------------------------------
          | TOTAL ENERGY             -109.990153514158 Eh   |
          | TOTAL ENTHALPY           -109.362080432336 Eh   |
          | TOTAL FREE ENERGY        -109.469229361430 Eh   |
          | GRADIENT NORM               0.000059402554 Eh/α |
          | HOMO-LUMO GAP               0.757921483977 eV   |
           -------------------------------------------------

 * finished run on 2025/09/11 at 05:01:39.629
