   * xtb version 6.7.1 (edcfbbe) compiled by 'albert@albert-system' on 2024-07-22

   ID    Z sym.   atoms
    1    6 C      1-6, 8-13, 15-26, 28-33, 35-42
    2    7 N      7, 27
    3    8 O      14, 34
    4    1 H      43-66

          program call               : xtb data2507/gas/DPE/DPE_gas_S0_crest.xyz --gfn 2 --ohess vtight --parallel 40 --molden --ceasefiles --namespace data2507/gas/DPE/DPE_gas_S0_finalOpt
          :  Hamiltonian                  GFN2-xTB          :
 * total energy  :  -107.5759766 Eh     change       -0.5712664E-08 Eh
 * total energy  :  -107.5759775 Eh     change       -0.9106956E-06 Eh
 * total energy  :  -107.5759789 Eh     change       -0.1329708E-05 Eh
 * total energy  :  -107.5759812 Eh     change       -0.2322685E-05 Eh
 * total energy  :  -107.5759822 Eh     change       -0.1005078E-05 Eh
 * total energy  :  -107.5759829 Eh     change       -0.7250662E-06 Eh
 * total energy  :  -107.5759840 Eh     change       -0.1114118E-05 Eh
 * total energy  :  -107.5759849 Eh     change       -0.8768888E-06 Eh
 * total energy  :  -107.5759853 Eh     change       -0.4072608E-06 Eh
 * total energy  :  -107.5759350 Eh     change        0.5033442E-04 Eh
 * total energy  :  -107.5759666 Eh     change       -0.3160300E-04 Eh
 * total energy  :  -107.5759824 Eh     change       -0.1578139E-04 Eh
 * total energy  :  -107.5759858 Eh     change       -0.3412303E-05 Eh
 * total energy  :  -107.5759862 Eh     change       -0.4356779E-06 Eh
 * total energy  :  -107.5759863 Eh     change       -0.1373210E-06 Eh
 * total energy  :  -107.5759865 Eh     change       -0.1696445E-06 Eh
 * total energy  :  -107.5759865 Eh     change       -0.8710501E-08 Eh
   *** GEOMETRY OPTIMIZATION CONVERGED AFTER 17 ITERATIONS ***

 final structure:
================
66
 xtb: 6.7.1 (edcfbbe)
C            0.60410211686959       -0.04084260537801        0.01744451229102
C           -0.60420649012171       -0.04187122426370        0.01691795344904
C           -2.01333772920947       -0.03681529068818        0.01379583192582
C           -2.71531498624302       -0.01542839864692       -1.19443536747654
C           -4.09387603331635       -0.00688222049775       -1.19705245824051
C           -4.79760759168953       -0.01436730535943        0.00510905102314
N           -6.20901012022438        0.00187450532348       -0.00028054863753
C           -6.93395603508201       -1.07901639215410        0.50510043619527
C           -6.31688753851953       -2.22666037747541        0.98636559169005
C           -7.06761506584039       -3.28332382759662        1.47959268655138
C           -8.44552161100705       -3.21519342867878        1.49049256744986
C           -9.07791536583305       -2.08791831213517        0.98621458061247
C           -8.33464155801705       -1.03298851315778        0.49172996297943
O           -9.03199788819188        0.03443667011055       -0.01809492520022
C           -8.30398757268445        1.08668984905675       -0.51639130585821
C           -9.01642594512845        2.15954765769236       -1.01776072145061
C           -8.35184636480320        3.27298332006192       -1.51132852772427
C           -6.97296399771542        3.30936098780648       -1.48259287296514
C           -6.25317451852613        2.23463324966806       -0.98239539099608
C           -6.90259075361337        1.10035497726280       -0.51201688414852
C           -4.10172985626041       -0.03558228815885        1.21159501749146
C           -2.72308646660166       -0.04943460755130        1.21750817865809
C            2.01322676156351       -0.03589654810810        0.01512452051918
C            2.71636937764897       -0.05014222293275       -1.19251851249546
C            4.09492353093687       -0.03801260612018       -1.19422338662948
C            4.79755410275400       -0.01697437397013        0.00839007971881
N            6.20898368154717       -0.00506210424376        0.00485642915932
C            6.91034123615198        1.09190166111639        0.50908402490506
C            6.26865457355689        2.22694263354791        0.98810857302026
C            6.99632988571941        3.30024258332207        1.47994343114283
C            8.37541067720470        3.26173550243379        1.49153291639017
C            9.03202447484792        2.14737125832503        0.98951604039769
C            8.31171046984892        1.07585712927653        0.49669810831435
O            9.03212077208210        0.02246807903465       -0.01030185950686
C            8.32707010106790       -1.04443803409277       -0.51039084033631
C            9.06262097812819       -2.10142123292283       -1.01199265097931
C            8.42230568786357       -3.22816590146740       -1.50743061821571
C            7.04444869783011       -3.29371335514116       -1.48048385468525
C            6.30147574198311       -2.23498447076230       -0.98005157336751
C            6.92623495751265       -1.08783951148523       -0.50756134094912
C            4.10048751727009       -0.00698636998354        1.21437324498569
C            2.72183592400201       -0.01369571150606        1.21937643384187
H           -2.16824025121013       -0.01146296772855       -2.12558509796865
H           -4.63883044531406        0.00333029996698       -2.12970042601614
H           -5.24071366991822       -2.29990431367935        0.96900158224654
H           -6.56088162005223       -4.16063951666763        1.85140840718560
H           -9.03414882642666       -4.03225204604839        1.87671809534801
H          -10.15310504559412       -2.00992545020866        0.96279780986772
H          -10.09336232621759        2.10629055370491       -1.00834859193668
H           -8.91647944003133        4.10422646083610       -1.90309444585676
H           -6.44134155050055        4.17554265253834       -1.84567949948480
H           -5.17590130615802        2.28313430456577       -0.95127637822745
H           -4.65241776405956       -0.03647771876693        2.14090343646709
H           -2.18206664331678       -0.06201594039645        2.15211631632175
H            2.17011834470110       -0.06284167798468       -2.12406746530685
H            4.64049013514149       -0.04076934895565       -2.12654612340185
H            5.19117135789992        2.27733028994717        0.97021718347511
H            6.47062095930095        4.16701952954343        1.85019283733116
H            8.94620979791923        4.09192131898191        1.87657821955878
H           10.10867914426859        2.09234203176834        0.96666792496439
H           10.13817199396587       -2.02540309465215       -1.00120847343544
H            9.00491835869619       -4.04687628171086       -1.89926796521608
H            6.53172357212856       -4.17047345240591       -1.84537913446631
H            5.22541506121538       -2.30617346913935       -0.95027318402728
H            4.65050265555614        0.00316228198445        2.14400653635873
H            2.18000296324631       -0.00831066735450        2.15357840267103

          :  Hamiltonian                  GFN2-xTB          :
         :: gradient norm              0.000127054164 Eh/a0 ::
         :: HOMO-LUMO gap              1.813394274859 eV    ::
         :: SCC energy              -109.539348063250 Eh    ::
         :: -> dispersion             -0.086880983179 Eh    ::
         :: repulsion energy           1.963361547311 Eh    ::

    * Orbital Energies and Occupations

         #    Occupation            Energy/Eh            Energy/eV
      -------------------------------------------------------------
         1        2.0000           -0.7251056             -19.7311
       ...           ...                  ...                  ...
        87        2.0000           -0.4220426             -11.4844
        88        2.0000           -0.4184116             -11.3856
        89        2.0000           -0.4182728             -11.3818
        90        2.0000           -0.4133792             -11.2486
        91        2.0000           -0.4133746             -11.2485
        92        2.0000           -0.4104854             -11.1699
        93        2.0000           -0.4102153             -11.1625
        94        2.0000           -0.4101714             -11.1613
        95        2.0000           -0.3908077             -10.6344
        96        2.0000           -0.3879705             -10.5572
        97        2.0000           -0.3841167             -10.4523
        98        2.0000           -0.3410824              -9.2813
        99        2.0000           -0.3396093              -9.2412 (HOMO)
       100                         -0.2729682              -7.4278 (LUMO)
       101                         -0.2379030              -6.4737
       102                         -0.2378971              -6.4735
       103                         -0.2356030              -6.4111
       104                         -0.2355904              -6.4107
       105                         -0.2293959              -6.2422
       106                         -0.2271360              -6.1807
       107                         -0.2271308              -6.1805
       108                         -0.2126206              -5.7857
       109                         -0.2106150              -5.7311
       110                         -0.1939699              -5.2782
       ...                                ...                  ...
       192                          1.4251764              38.7810
      -------------------------------------------------------------
                  HL-Gap            0.0666410 Eh            1.8134 eV

     #   Z          covCN         q      C6AA      α(0)
     1   6 C        1.982    -0.040    32.137     9.155
     2   6 C        1.982    -0.040    32.137     9.155
     3   6 C        2.971     0.036    27.190     8.553
     4   6 C        2.927    -0.029    28.730     8.790
     5   6 C        2.920    -0.040    28.986     8.829
     6   6 C        2.921     0.065    26.539     8.448
     7   7 N        2.751    -0.073    22.653     7.069
     8   6 C        2.922     0.043    27.040     8.527
     9   6 C        2.924    -0.060    29.503     8.907
    10   6 C        2.919    -0.039    28.971     8.827
    11   6 C        2.919    -0.041    29.014     8.833
    12   6 C        2.920    -0.057    29.405     8.892
    13   6 C        2.884     0.124    25.274     8.242
    14   8 O        1.709    -0.257    18.250     5.768
    15   6 C        2.884     0.124    25.273     8.242
    16   6 C        2.920    -0.057    29.405     8.892
    17   6 C        2.919    -0.041    29.013     8.833
    18   6 C        2.919    -0.039    28.971     8.827
    19   6 C        2.924    -0.060    29.502     8.907
    20   6 C        2.922     0.043    27.041     8.528
    21   6 C        2.920    -0.040    28.987     8.829
    22   6 C        2.927    -0.029    28.730     8.790
    23   6 C        2.971     0.036    27.191     8.553
    24   6 C        2.927    -0.029    28.730     8.790
    25   6 C        2.920    -0.040    28.986     8.829
    26   6 C        2.921     0.065    26.539     8.448
    27   7 N        2.751    -0.073    22.652     7.069
    28   6 C        2.922     0.043    27.040     8.528
    29   6 C        2.924    -0.060    29.503     8.907
    30   6 C        2.919    -0.039    28.971     8.827
    31   6 C        2.919    -0.041    29.013     8.833
    32   6 C        2.920    -0.057    29.405     8.892
    33   6 C        2.884     0.124    25.274     8.242
    34   8 O        1.709    -0.257    18.250     5.768
    35   6 C        2.884     0.124    25.274     8.242
    36   6 C        2.920    -0.057    29.405     8.892
    37   6 C        2.919    -0.041    29.013     8.833
    38   6 C        2.919    -0.039    28.971     8.827
    39   6 C        2.924    -0.060    29.502     8.907
    40   6 C        2.922     0.043    27.041     8.528
    41   6 C        2.920    -0.040    28.987     8.829
    42   6 C        2.927    -0.029    28.730     8.790
    43   1 H        0.926     0.039     2.466     2.455
    44   1 H        0.926     0.040     2.450     2.448
    45   1 H        0.926     0.033     2.538     2.491
    46   1 H        0.926     0.035     2.521     2.483
    47   1 H        0.926     0.037     2.491     2.468
    48   1 H        0.926     0.049     2.327     2.386
    49   1 H        0.926     0.049     2.327     2.386
    50   1 H        0.926     0.037     2.490     2.468
    51   1 H        0.926     0.035     2.521     2.483
    52   1 H        0.926     0.033     2.539     2.492
    53   1 H        0.926     0.040     2.450     2.448
    54   1 H        0.926     0.039     2.465     2.455
    55   1 H        0.926     0.039     2.466     2.455
    56   1 H        0.926     0.040     2.450     2.448
    57   1 H        0.926     0.033     2.538     2.491
    58   1 H        0.926     0.035     2.521     2.483
    59   1 H        0.926     0.037     2.490     2.468
    60   1 H        0.926     0.049     2.327     2.386
    61   1 H        0.926     0.049     2.327     2.386
    62   1 H        0.926     0.037     2.490     2.468
    63   1 H        0.926     0.035     2.521     2.483
    64   1 H        0.926     0.033     2.538     2.491
    65   1 H        0.926     0.040     2.450     2.447
    66   1 H        0.926     0.039     2.465     2.455

molecular dipole:
                 x           y           z       tot (Debye)
 q only:        0.001      -0.010       0.006
   full:        0.001      -0.011       0.005       0.030

 projected vibrational frequencies (cm⁻¹)
eigval :       -0.00    -0.00    -0.00     0.00     0.00     0.00
eigval :        4.66     9.16    12.74    25.80    26.88    37.06
eigval :       47.86    52.34    56.41    56.83    67.91    92.94
eigval :      108.57   115.22   116.97   119.71   190.16   193.86
eigval :      195.04   208.91   245.02   250.37   255.27   268.73
eigval :      271.79   272.37   300.28   361.89   364.42   373.46
eigval :      374.48   377.14   391.74   395.42   403.12   420.19
eigval :      429.18   430.40   430.89   432.34   441.83   442.37
eigval :      458.00   468.04   495.75   504.39   510.32   510.45
eigval :      522.11   522.21   538.76   548.87   552.83   587.24
eigval :      588.04   597.08   613.16   615.64   624.08   658.28
eigval :      659.99   661.13   661.14   663.73   682.03   682.97
eigval :      687.58   726.11   778.22   778.29   778.44   778.50
eigval :      794.04   803.96   811.63   816.62   853.64   854.65
eigval :      854.67   862.09   862.13   864.19   864.26   870.69
eigval :      871.04   895.80   895.86   896.99   897.04   912.51
eigval :      912.65   914.20   914.25   916.02   916.14   917.82
eigval :      922.32   922.47   929.26   929.65   934.76  1012.98
eigval :     1022.75  1090.24  1090.25  1091.41  1091.46  1108.09
eigval :     1108.11  1120.82  1120.95  1127.64  1130.12  1159.58
eigval :     1171.53  1171.55  1175.87  1175.89  1181.41  1183.50
eigval :     1189.75  1195.13  1201.13  1201.18  1221.62  1227.22
eigval :     1243.24  1243.28  1260.26  1262.27  1262.31  1263.10
eigval :     1297.38  1306.11  1309.14  1311.19  1311.26  1315.20
eigval :     1340.98  1341.06  1347.76  1357.10  1367.45  1401.17
eigval :     1404.70  1424.36  1424.51  1443.05  1443.52  1469.81
eigval :     1489.85  1490.17  1497.36  1506.71  1508.47  1545.18
eigval :     1548.52  1567.20  1567.20  1581.14  1581.18  1581.42
eigval :     1589.48  1590.75  1593.68  1604.24  1604.27  2316.75
eigval :     3081.76  3082.04  3083.21  3083.62  3087.86  3087.98
eigval :     3087.99  3088.13  3093.41  3093.97  3094.14  3095.08
eigval :     3097.97  3098.06  3098.08  3098.21  3104.70  3104.81
eigval :     3105.37  3105.48  3112.33  3112.46  3112.95  3113.10

   temp. (K)  partition function   enthalpy   heat capacity  entropy
                                   cal/mol     cal/K/mol   cal/K/mol   J/K/mol
 298.15  VIB  0.626E+16            19135.383    121.099    120.042
         ROT  0.459E+08              888.752      2.981     38.042
         INT  0.288E+24            20024.135    124.080    158.084
         TR   0.122E+29             1481.254      4.968     44.728
         TOT                       21505.3889   129.0481   202.8120   848.5654

       T/K    H(0)-H(T)+PV         H(T)/Eh          T*S/Eh         G(T)/Eh
   ------------------------------------------------------------------------
    298.15    0.342710E-01    0.529871E+00    0.963625E-01    0.433508E+00
   ------------------------------------------------------------------------

         :::::::::::::::::::::::::::::::::::::::::::::::::::::
         ::                  THERMODYNAMIC                  ::
         :::::::::::::::::::::::::::::::::::::::::::::::::::::
         :: total free energy        -107.142478261488 Eh   ::
         ::.................................................::
         :: total energy             -107.575986515934 Eh   ::
         :: zero point energy           0.495599758459 Eh   ::
         :: G(RRHO) w/o ZPVE           -0.062091504013 Eh   ::
         :: G(RRHO) contrib.            0.433508254446 Eh   ::
         :::::::::::::::::::::::::::::::::::::::::::::::::::::

           -------------------------------------------------
          | TOTAL ENERGY             -107.575986515934 Eh   |
          | TOTAL ENTHALPY           -107.046115738758 Eh   |
          | TOTAL FREE ENERGY        -107.142478261488 Eh   |
          | GRADIENT NORM               0.000126993249 Eh/α |
          | HOMO-LUMO GAP               1.813394302454 eV   |
           -------------------------------------------------

 * finished run on 2025/09/13 at 22:47:58.300
