   * xtb version 6.7.1 (edcfbbe) compiled by 'albert@albert-system' on 2024-07-22

   ID    Z sym.   atoms
    1    6 C      1-6, 8-13, 15-26, 28-33, 35-42
    2    7 N      7, 27
    3    8 O      14, 34
    4    1 H      43-66

          program call               : xtb data2507/gas/DPE/DPE_gas_S0_finalOpt.xtbopt.xyz --gfn 2 --spinpol --tblite --uhf 2 --ohess vtight --parallel 40 --molden --ceasefiles --namespace data2507/gas/DPE/DPE_gas_T1_preOpt
 * total energy  :  -107.4904457 Eh     change        0.3124072E-08 Eh
 * total energy  :  -107.4958453 Eh     change       -0.5399577E-02 Eh
 * total energy  :  -107.4974862 Eh     change       -0.1640843E-02 Eh
 * total energy  :  -107.4976056 Eh     change       -0.1194510E-03 Eh
 * total energy  :  -107.4976371 Eh     change       -0.3152739E-04 Eh
 * total energy  :  -107.4976543 Eh     change       -0.1714087E-04 Eh
 * total energy  :  -107.4976619 Eh     change       -0.7575433E-05 Eh
 * total energy  :  -107.4976747 Eh     change       -0.1287268E-04 Eh
 * total energy  :  -107.4976828 Eh     change       -0.8115180E-05 Eh
 * total energy  :  -107.4976923 Eh     change       -0.9433949E-05 Eh
 * total energy  :  -107.4977923 Eh     change       -0.7205014E-06 Eh
 * total energy  :  -107.4977930 Eh     change       -0.7017787E-06 Eh
 * total energy  :  -107.4977936 Eh     change       -0.6397100E-06 Eh
 * total energy  :  -107.4977943 Eh     change       -0.6508838E-06 Eh
 * total energy  :  -107.4977949 Eh     change       -0.6403689E-06 Eh
 * total energy  :  -107.4977955 Eh     change       -0.5858856E-06 Eh
 * total energy  :  -107.4977961 Eh     change       -0.6177919E-06 Eh
 * total energy  :  -107.4977967 Eh     change       -0.5908012E-06 Eh
 * total energy  :  -107.4977968 Eh     change       -0.6332301E-07 Eh
   *** GEOMETRY OPTIMIZATION CONVERGED AFTER 68 ITERATIONS ***

 final structure:
================
66
 xtb: 6.7.1 (edcfbbe)
C            0.61788190178821       -0.00193608542895        0.00176136867119
C           -0.61781198271051       -0.00091978713476        0.00143817929493
C           -1.98351916217996        0.00042560483036        0.00086404743676
C           -2.72235610272521        0.02391045450832       -1.22187696355742
C           -4.08517254835028        0.03931980120794       -1.21551778612556
C           -4.79679043607568        0.00366616854057       -0.00050612413108
N           -6.20481858578547        0.00547852826331       -0.00123821082022
C           -6.91568588859680       -1.05502356915565        0.55003993525080
C           -6.28202433592819       -2.18422227866842        1.06508582818013
C           -7.01802993495529       -3.22188711911658        1.60895027562905
C           -8.39956274030114       -3.16220738264625        1.63893605322842
C           -9.04920938017513       -2.06465304576900        1.09682760424852
C           -8.31963562339530       -1.02364925136937        0.54987556649828
O           -9.02774198930629        0.00900756536728       -0.00316205609513
C           -8.31630982657906        1.03993385481128       -0.55515674661878
C           -9.04252838243443        2.08278608643993       -1.10305208032172
C           -8.38939766096444        3.17875349072142       -1.64418457867092
C           -7.00776314603064        3.23499326902742       -1.61226936650733
C           -6.27510185953512        2.19545694233485       -1.06746787372400
C           -6.91228875618416        1.06779927702418       -0.55339126983351
C           -4.08644392336914       -0.03372008180549        1.21519355595248
C           -2.72359463181283       -0.02148312139813        1.22287882333228
C            1.98358463947091       -0.00284442636957        0.00191997448361
C            2.72309140604211       -0.02432988594224       -1.22046062166843
C            4.08589687220072       -0.03882395875294       -1.21339854295113
C            4.79683900398272       -0.00420056734720        0.00204122218797
N            6.20486836745863       -0.00466810192906        0.00206150307098
C            6.91437770931492        1.05597579056575        0.55481653281429
C            6.27929585439242        2.18393902516236        1.07080268030899
C            7.01397696361671        3.22183378111500        1.61603889702458
C            8.39555724991856        3.16360975246660        1.64648873077728
C            9.04659474098528        2.06729814249094        1.10352701356007
C            8.31835715960558        1.02607002152711        0.55522167703213
O            9.02778091023993       -0.00529992972777        0.00146289381777
C            8.31766431958809       -1.03634419038441       -0.55201172599036
C            9.04519233656920       -2.07786820469580       -1.10069358047469
C            8.39342084389610       -3.17387203819454       -1.64339872323106
C            7.01182829888895       -3.23149790235449       -1.61230488498881
C            6.27785393856129       -2.19329522853737       -1.06670663197311
C            6.91367222404777       -1.06562221634929       -0.55098959769404
C            4.08582315961841        0.03096993657299        1.21741833552971
C            2.72299688804651        0.01776683302230        1.22436731609663
H           -2.17588304652843        0.02305152307923       -2.15325532927260
H           -4.63931449870214        0.04735922242784       -2.14397255071340
H           -5.20657370423572       -2.24948690178167        1.02699811751103
H           -6.50241776152584       -4.08315816861937        2.00473824095057
H           -8.97466126283705       -3.96842714111895        2.06593763481271
H          -10.12524961514633       -1.99795230471188        1.08065047749952
H          -10.11875266930533        2.01876268412328       -1.08838305081671
H           -8.96189104274950        3.98642899217797       -2.07193499176873
H           -6.48945686220135        4.09500796621685       -2.00726949165135
H           -5.19954503086246        2.25803545644004       -1.02789242168068
H           -4.64150096920961       -0.04047142274796        2.14311165174960
H           -2.17803629609873       -0.02191384663075        2.15479430709819
H            2.17710048520408       -0.02261344454015       -2.15211280780076
H            4.64054838790786       -0.04528337962273       -2.14155412583210
H            5.20379198681583        2.24809229361669        1.03237463326685
H            6.49728272703011        4.08213415883089        2.01251957279854
H            8.96962329704978        3.97001650694063        2.07452498912998
H           10.12271304216036        2.00176368554410        1.08771933922555
H           10.12134646588181       -2.01280359783553       -1.08539448951826
H            8.96693419087804       -3.98050837554234       -2.07174295783563
H            6.49457678023075       -4.09156224187655       -2.00857068918558
H            5.20233749475331       -2.25695988555053       -1.02778905890222
H            4.64040173782686        0.03685330025869        2.14562166294114
H            2.17693173481982        0.01652559683544        2.15597712600305

 projected vibrational frequencies (cm⁻¹)
eigval :       -0.00    -0.00    -0.00     0.00     0.00     0.00
eigval :        9.05    12.35    13.16    25.31    29.76    39.89
eigval :       58.45    62.56    66.42    68.15    84.27    92.82
eigval :      105.34   117.26   119.56   126.16   185.58   194.41
eigval :      196.55   201.43   242.19   248.45   256.33   273.35
eigval :      274.58   276.95   298.26   331.87   360.78   371.84
eigval :      372.06   375.42   376.38   386.30   394.73   419.79
eigval :      420.64   422.08   434.05   435.14   443.56   448.84
eigval :      457.19   458.07   465.08   476.21   504.36   504.44
eigval :      526.98   527.07   530.34   537.79   538.59   582.46
eigval :      582.63   596.02   605.50   608.38   619.31   637.91
eigval :      640.43   657.90   664.13   666.26   667.55   667.56
eigval :      680.59   715.24   776.11   776.20   778.28   778.31
eigval :      786.87   787.87   793.13   801.27   815.58   825.71
eigval :      835.78   855.50   855.52   865.03   865.04   865.53
eigval :      865.68   896.99   897.07   897.10   897.20   897.48
eigval :      902.32   905.30   905.39   911.86   912.21   913.46
eigval :      913.48   918.06   918.08   919.50   919.67   979.90
eigval :      983.28  1086.79  1086.80  1087.32  1088.14  1111.40
eigval :     1111.41  1118.54  1120.04  1124.21  1127.73  1153.10
eigval :     1158.30  1170.44  1174.37  1174.39  1175.51  1183.89
eigval :     1191.01  1202.81  1207.03  1207.05  1221.27  1232.45
eigval :     1235.10  1236.52  1242.92  1247.62  1255.83  1256.13
eigval :     1301.96  1302.58  1305.29  1311.51  1315.34  1315.59
eigval :     1326.48  1327.97  1344.10  1347.71  1375.52  1378.34
eigval :     1383.86  1417.63  1417.65  1422.49  1441.66  1442.33
eigval :     1456.20  1456.35  1473.11  1473.61  1483.51  1483.70
eigval :     1496.22  1533.77  1554.06  1554.08  1562.14  1562.15
eigval :     1576.21  1579.14  1583.97  1589.39  1599.87  2136.65
eigval :     3065.37  3065.47  3067.05  3067.22  3086.47  3087.27
eigval :     3088.09  3088.89  3092.44  3092.46  3092.53  3092.56
eigval :     3102.02  3102.04  3102.16  3102.35  3112.41  3112.43
eigval :     3112.90  3112.95  3114.24  3114.26  3114.28  3115.04

   temp. (K)  partition function   enthalpy   heat capacity  entropy
                                   cal/mol     cal/K/mol   cal/K/mol   J/K/mol
 298.15  VIB  0.107E+16            19229.445    123.234    119.236
         ROT  0.229E+08              888.752      2.981     36.661
         INT  0.245E+23            20118.198    126.215    155.897
         TR   0.122E+29             1481.254      4.968     44.728
         TOT                       21599.4516   131.1828   200.6251   839.4156

       T/K    H(0)-H(T)+PV         H(T)/Eh          T*S/Eh         G(T)/Eh
   ------------------------------------------------------------------------
    298.15    0.344209E-01    0.526799E+00    0.953235E-01    0.431476E+00
   ------------------------------------------------------------------------

         :::::::::::::::::::::::::::::::::::::::::::::::::::::
         ::                  THERMODYNAMIC                  ::
         :::::::::::::::::::::::::::::::::::::::::::::::::::::
         :: total free energy        -107.066321130927 Eh   ::
         ::.................................................::
         :: total energy             -107.497796762413 Eh   ::
         :: zero point energy           0.492378195364 Eh   ::
         :: G(RRHO) w/o ZPVE           -0.060902563878 Eh   ::
         :: G(RRHO) contrib.            0.431475631486 Eh   ::
         :::::::::::::::::::::::::::::::::::::::::::::::::::::

           -------------------------------------------------
          | TOTAL ENERGY             -107.497796762413 Eh   |
          | TOTAL ENTHALPY           -106.970997649868 Eh   |
          | TOTAL FREE ENERGY        -107.066321130927 Eh   |
          | GRADIENT NORM               0.000077366118 Eh/α |
           -------------------------------------------------

 * finished run on 2025/09/13 at 22:48:06.927
