   * xtb version 6.7.1 (edcfbbe) compiled by 'albert@albert-system' on 2024-07-22

   ID    Z sym.   atoms
    1    6 C      1-6, 8-13, 15-26, 28-33, 35-42
    2    7 N      7, 27
    3    8 O      14, 34
    4    1 H      43-66

          program call               : xtb data2507/gas/DPE/DPE_gas_T1_crest.xyz --gfn 2 --spinpol --tblite --uhf 2 --ohess vtight --parallel 40 --molden --ceasefiles --namespace data2507/gas/DPE/DPE_gas_T1_finalOpt
 * total energy  :  -107.4978218 Eh     change       -0.2050986E-07 Eh
 * total energy  :  -107.4978300 Eh     change       -0.8145040E-05 Eh
 * total energy  :  -107.4978326 Eh     change       -0.2583994E-05 Eh
 * total energy  :  -107.4978337 Eh     change       -0.1173706E-05 Eh
 * total energy  :  -107.4978357 Eh     change       -0.2002086E-05 Eh
 * total energy  :  -107.4978382 Eh     change       -0.2506731E-05 Eh
 * total energy  :  -107.4978401 Eh     change       -0.1855967E-05 Eh
 * total energy  :  -107.4978415 Eh     change       -0.1369428E-05 Eh
 * total energy  :  -107.4978423 Eh     change       -0.8426981E-06 Eh
 * total energy  :  -107.4978429 Eh     change       -0.6130672E-06 Eh
 * total energy  :  -107.4978433 Eh     change       -0.3644970E-06 Eh
 * total energy  :  -107.4978436 Eh     change       -0.3268511E-06 Eh
 * total energy  :  -107.4978441 Eh     change       -0.4576985E-06 Eh
 * total energy  :  -107.4978445 Eh     change       -0.4178444E-06 Eh
 * total energy  :  -107.4978448 Eh     change       -0.2637856E-06 Eh
 * total energy  :  -107.4978449 Eh     change       -0.1987996E-06 Eh
 * total energy  :  -107.4978451 Eh     change       -0.1489730E-06 Eh
 * total energy  :  -107.4978452 Eh     change       -0.1087281E-06 Eh
 * total energy  :  -107.4978453 Eh     change       -0.6798820E-07 Eh
   *** GEOMETRY OPTIMIZATION CONVERGED AFTER 19 ITERATIONS ***

 final structure:
================
66
 xtb: 6.7.1 (edcfbbe)
C            0.61799272278305       -0.00728494433809       -0.02360578035725
C           -0.61771212459962       -0.00881510011994       -0.02434028233369
C           -1.98332375613388       -0.00796256446603       -0.02037861799830
C           -2.71807287243977        0.62885199964470        1.02669171106281
C           -4.08080658783983        0.63515152366507        1.02165692459529
C           -4.79751543667704       -0.00506445073939       -0.00847432630725
N           -6.20499400328488       -0.00324528908836       -0.00211026447792
C           -6.91300141924424        1.19378651420145       -0.03084625994240
C           -6.27744615278397        2.42966506670498       -0.13523136092054
C           -7.01045933610140        3.60293117657340       -0.15402827797704
C           -8.39137486950512        3.56923117894225       -0.08370969467175
C           -9.04353678543344        2.34805962170009       -0.02149373710819
C           -8.31684161512148        1.17044081729751       -0.00396985414540
O           -9.02838866132168        0.00139890659090        0.01567993897902
C           -8.32045164085479       -1.16995780673928        0.02617339509348
C           -9.05079071125126       -2.34514683707267        0.05299909238430
C           -8.40197705587553       -3.56848330233759        0.10704206181678
C           -7.02040416018583       -3.60678508790837        0.15977984799733
C           -6.28376197682908       -2.43596480319579        0.13161056112276
C           -6.91645667604928       -1.19798137360197        0.03531845773583
C           -4.09082690401514       -0.64647381441914       -1.04470352789709
C           -2.72804888447698       -0.64294699955747       -1.06134176538330
C            1.98362650882157       -0.00514654572864       -0.02052255885035
C            2.72809702365341       -0.64199959370383       -1.06050581499358
C            4.09090078538684       -0.64462088819348       -1.04463087831613
C            4.79766821329966        0.00024457708351       -0.01067598297060
N            6.20521419949593        0.00270841478694       -0.00515627258087
C            6.91280114377787        1.19975116149813       -0.03968410169566
C            6.27670491919024        2.43491232072800       -0.14893347606530
C            7.00933116941986        3.60831448964415       -0.17335488300595
C            8.39030780215704        3.57532801423092       -0.10370984283663
C            9.04295352415772        2.35466100760601       -0.03666659612109
C            8.31667396665499        1.17688446629445       -0.01372173007125
O            9.02852931540857        0.00808434286329        0.01030662831626
C            8.32088663423421       -1.16338290884202        0.02783017499707
C            9.05136441978120       -2.33832870796426        0.06061717703472
C            8.40270307760974       -3.56140727309327        0.12200415618853
C            7.02117428622374       -3.59963830852858        0.17584835422647
C            6.28436981135600       -2.42908780482029        0.14154430329036
C            6.91691413012031       -1.19163043724993        0.03813265217860
C            4.08126689373283        0.64264073082704        1.01822872517752
C            2.71851799945759        0.63482048625432        1.02447413852324
H           -2.16823232095112        1.09665402964379        1.82975084057009
H           -4.63096010516968        1.10519365993146        1.82509439515540
H           -5.20278559945406        2.46609926248001       -0.21257233945704
H           -6.49290315068242        4.54665499456789       -0.23029329181081
H           -8.96407059309911        4.48299664732905       -0.09324704901842
H          -10.11951368723402        2.28448797573338        0.00677881630388
H          -10.12682429871066       -2.27796091024227        0.03847910328642
H           -8.97756545478488       -4.48032465967942        0.12395093086520
H           -6.50509102170870       -4.55223676419097        0.22954220659097
H           -5.20834425266984       -2.47598301226071        0.19542540161013
H           -4.64867327757866       -1.11525691306435       -1.84356543858037
H           -2.18615631667957       -1.11177546609830       -1.86920116031831
H            2.18598898134931       -1.11332540509917       -1.86676295000771
H            4.64867910128044       -1.11539725399475       -1.84236934548459
H            5.20195439018943        2.47051596553276       -0.22557604791502
H            6.49146799400639        4.55155543616008       -0.25343589608260
H            8.96269265949205        4.48923957061385       -0.11748194173032
H           10.11897693434949        2.29162993002330       -0.00876914865393
H           10.12737783213210       -2.27118586579558        0.04488660974562
H            8.97841888006939       -4.47306486087937        0.14375382325908
H            6.50605162673670       -4.54475199046234        0.25134077136975
H            5.20897623357143       -2.46874624748793        0.20605180365166
H            4.63167263484955        1.11550168978613        1.81983813061198
H            2.16886222389830        1.10405353302431        1.82682698724587

 projected vibrational frequencies (cm⁻¹)
eigval :       -0.00    -0.00    -0.00     0.00     0.00     0.00
eigval :        8.82    12.46    13.46    24.97    29.71    39.79
eigval :       58.93    64.45    65.38    71.86    84.73    92.42
eigval :      103.20   119.51   123.53   124.79   186.06   195.03
eigval :      197.78   202.09   241.76   249.18   256.84   273.42
eigval :      274.58   277.73   298.36   331.82   361.02   370.76
eigval :      372.76   374.58   381.18   383.46   394.82   420.01
eigval :      420.82   422.29   434.61   435.71   443.43   452.46
eigval :      453.27   459.90   465.20   476.20   504.36   504.45
eigval :      527.05   527.15   530.19   537.82   538.76   582.10
eigval :      582.70   596.02   605.47   608.24   619.35   637.83
eigval :      640.35   657.77   664.27   666.26   667.56   667.57
eigval :      680.47   715.00   775.98   776.27   778.29   778.41
eigval :      787.25   788.27   793.46   801.11   819.44   821.89
eigval :      836.71   855.56   855.60   864.98   865.03   865.55
eigval :      865.68   896.81   896.88   896.92   897.07   897.74
eigval :      902.27   905.83   905.96   912.14   912.28   913.38
eigval :      913.43   918.56   918.65   920.35   920.50   980.07
eigval :      983.59  1086.93  1086.97  1087.52  1088.22  1111.26
eigval :     1111.32  1118.70  1120.10  1124.41  1127.91  1153.00
eigval :     1158.30  1170.25  1174.11  1174.13  1175.43  1183.91
eigval :     1191.07  1202.68  1207.12  1207.16  1220.44  1231.90
eigval :     1234.92  1236.31  1242.98  1247.72  1255.70  1255.92
eigval :     1301.50  1302.39  1304.97  1311.46  1315.22  1315.68
eigval :     1326.41  1327.98  1344.14  1347.46  1376.21  1379.06
eigval :     1383.80  1417.23  1417.26  1422.37  1441.36  1441.99
eigval :     1456.14  1456.36  1473.68  1474.03  1482.83  1484.08
eigval :     1497.34  1533.54  1553.77  1553.82  1561.79  1561.87
eigval :     1576.54  1578.79  1583.58  1589.14  1599.78  2136.35
eigval :     3065.29  3065.36  3066.84  3067.00  3086.33  3087.25
eigval :     3087.55  3088.78  3092.29  3092.31  3092.38  3092.42
eigval :     3101.89  3101.92  3102.04  3102.22  3112.25  3112.29
eigval :     3112.82  3112.87  3114.15  3114.21  3114.23  3114.97

   temp. (K)  partition function   enthalpy   heat capacity  entropy
                                   cal/mol     cal/K/mol   cal/K/mol   J/K/mol
 298.15  VIB  0.981E+15            19212.785    123.257    119.068
         ROT  0.459E+08              888.752      2.981     38.038
         INT  0.450E+23            20101.537    126.238    157.106
         TR   0.122E+29             1481.254      4.968     44.728
         TOT                       21582.7912   131.2058   201.8337   844.4722

       T/K    H(0)-H(T)+PV         H(T)/Eh          T*S/Eh         G(T)/Eh
   ------------------------------------------------------------------------
    298.15    0.343944E-01    0.526806E+00    0.958977E-01    0.430908E+00
   ------------------------------------------------------------------------

         :::::::::::::::::::::::::::::::::::::::::::::::::::::
         ::                  THERMODYNAMIC                  ::
         :::::::::::::::::::::::::::::::::::::::::::::::::::::
         :: total free energy        -107.066936983437 Eh   ::
         ::.................................................::
         :: total energy             -107.497845297045 Eh   ::
         :: zero point energy           0.492411655154 Eh   ::
         :: G(RRHO) w/o ZPVE           -0.061503341546 Eh   ::
         :: G(RRHO) contrib.            0.430908313608 Eh   ::
         :::::::::::::::::::::::::::::::::::::::::::::::::::::

           -------------------------------------------------
          | TOTAL ENERGY             -107.497845297045 Eh   |
          | TOTAL ENTHALPY           -106.971039274884 Eh   |
          | TOTAL FREE ENERGY        -107.066936983437 Eh   |
          | GRADIENT NORM               0.000062832091 Eh/α |
           -------------------------------------------------

 * finished run on 2025/09/13 at 22:51:39.945
