   * xtb version 6.7.1 (edcfbbe) compiled by 'albert@albert-system' on 2024-07-22

   ID    Z sym.   atoms
    1    6 C      1-6, 8-13, 15-26, 28-33, 35-42
    2    7 N      7, 27
    3    8 O      14, 34
    4    1 H      43-66

          program call               : xtb data2507/gas/DPE/DPE.xyz --gfn 2 --ohess vtight --parallel 40 --molden --ceasefiles --namespace data2507/gas/DPE/DPE_gas_S0_preOpt
          :  Hamiltonian                  GFN2-xTB          :
 * total energy  :  -107.5591303 Eh     change       -0.7059057E-08 Eh
 * total energy  :  -107.5685249 Eh     change       -0.9394652E-02 Eh
 * total energy  :  -107.5714431 Eh     change       -0.2918162E-02 Eh
 * total energy  :  -107.5723365 Eh     change       -0.8934153E-03 Eh
 * total energy  :  -107.5728918 Eh     change       -0.5552657E-03 Eh
 * total energy  :  -107.5732324 Eh     change       -0.3406863E-03 Eh
 * total energy  :  -107.5734353 Eh     change       -0.2028887E-03 Eh
 * total energy  :  -107.5735548 Eh     change       -0.1194849E-03 Eh
 * total energy  :  -107.5736442 Eh     change       -0.8940969E-04 Eh
 * total energy  :  -107.5736866 Eh     change       -0.4237627E-04 Eh
 * total energy  :  -107.5748518 Eh     change       -0.3499315E-06 Eh
 * total energy  :  -107.5748520 Eh     change       -0.1261982E-06 Eh
 * total energy  :  -107.5748521 Eh     change       -0.1450433E-06 Eh
 * total energy  :  -107.5748522 Eh     change       -0.1174239E-06 Eh
 * total energy  :  -107.5748524 Eh     change       -0.1562873E-06 Eh
 * total energy  :  -107.5748526 Eh     change       -0.1904613E-06 Eh
 * total energy  :  -107.5748527 Eh     change       -0.1706070E-06 Eh
 * total energy  :  -107.5748529 Eh     change       -0.1292538E-06 Eh
 * total energy  :  -107.5748530 Eh     change       -0.8827055E-07 Eh
   *** GEOMETRY OPTIMIZATION CONVERGED AFTER 51 ITERATIONS ***

 final structure:
================
66
 xtb: 6.7.1 (edcfbbe)
C            0.60394152563001       -0.00090049381502        0.00042074620915
C           -0.60376685019360       -0.00206709199929        0.00030548725342
C           -2.01623026577330       -0.00194092803973        0.00058215669604
C           -2.72028397412299       -0.89632310477214        0.80895640366766
C           -4.09958565448422       -0.89190345958748        0.81142528775876
C           -4.79929074716623       -0.00170267666266        0.00082164729689
N           -6.21113518286514       -0.00170078126319        0.00079605256935
C           -6.92039579392714        1.11382561408114        0.45010309779031
C           -6.28726780152028        2.24065556649252        0.95890515996953
C           -7.02266480052186        3.33174537228281        1.39730520487334
C           -8.40112057226867        3.31098681931104        1.34434092100673
C           -9.04956624900913        2.18127454207105        0.86644140455201
C           -8.32158427659122        1.09056431540911        0.43032327011547
O           -9.03434184534523       -0.00144044902114       -0.00003667049121
C           -8.32152877786187       -1.09366267267706       -0.42977453096062
C           -9.04946759307101       -2.18432357661190       -0.86608728887707
C           -8.40096542281865       -3.31425654507785       -1.34338656318564
C           -7.02248624295730       -3.33526358611374       -1.39559414064311
C           -6.28713780614906       -2.24421050392901       -0.95702722581765
C           -6.92033267188988       -1.11717003997520       -0.44876736755355
C           -4.09957553142413        0.88843386531105       -0.80985316261141
C           -2.72028356255147        0.89258007300085       -0.80765863321925
C            2.01641134554573       -0.00056484637657        0.00039469538393
C            2.72017228556496        0.92242296284021        0.77623178212313
C            4.09947414929733        0.91890340964018        0.77840224132301
C            4.79937968414869        0.00072023806740       -0.00014933937996
N            6.21127923912998        0.00156541658964       -0.00065560533078
C            6.92130748504151       -1.09571962833452        0.49027895003222
C            6.28888490965778       -2.20311986270070        1.04087133918154
C            7.02503083287861       -3.27633443997991        1.52023357544963
C            8.40348044396408       -3.25640591728217        1.46692279409849
C            9.05119162824511       -2.14502648849923        0.94685349960841
C            8.32248339886335       -1.07212600756899        0.46973317708147
O            9.03440750940404        0.00338048161016       -0.00166248759584
C            8.32076978517873        1.07805137366626       -0.47237163593003
C            9.04776301622788        2.15197411067563       -0.94981233733570
C            8.39826295195148        3.26260377185574       -1.46925152512282
C            7.01975483594803        3.28074246421775       -1.52164611648274
C            6.28532745526987        2.20649204477076       -1.04196833726920
C            6.91955041965950        1.09983735016436       -0.49194640213674
C            4.10000345351918       -0.91818047958067       -0.77832360409239
C            2.72070159681173       -0.92297172755756       -0.77563652543663
H           -2.17596092162297       -1.58522852289714        1.43784317398194
H           -4.64674087389159       -1.57664194791161        1.44272576309606
H           -5.21046345239052        2.26440786792406        1.02057351095857
H           -6.50352071035640        4.19564863571784        1.78321561692329
H           -8.97784652440972        4.15843767670657        1.67972100108345
H          -10.12572109650849        2.12474452714348        0.82865452173308
H          -10.12563266088558       -2.12757615514647       -0.82893783616473
H           -8.97765210908088       -4.16168051267413       -1.67889928681022
H           -6.50327144918269       -4.19933575916847       -1.78103099933954
H           -5.21031062551662       -2.26817621320859       -1.01815239218185
H           -4.64673878873809        1.57323925801047       -1.44107268365194
H           -2.17592494464582        1.58133267448312       -1.43668041511909
H            2.17559058666272        1.63296472632286        1.38033273579811
H            4.64649379938770        1.62605361598328        1.38461341676022
H            5.21207062137899       -2.22536313975833        1.10298198125655
H            6.50647679451599       -4.12553388805103        1.93823848464374
H            8.98079454328755       -4.09011578199502        1.83421558047537
H           10.12731592121907       -2.08920448024277        0.90719502038847
H           10.12398559987745        2.09753763091128       -0.91090976514914
H            8.97424292262166        4.09713272276217       -1.83677841941660
H            6.49980927240634        4.12933294708925       -1.93915867651828
H            5.20844697162954        2.22735877579542       -1.10338049547331
H            4.64743726620649       -1.62480751293091       -1.38477217696117
H            2.17655152860949       -1.63397562949219       -1.37957805488408

          :  Hamiltonian                  GFN2-xTB          :
         :: gradient norm              0.000062985080 Eh/a0 ::
         :: HOMO-LUMO gap              2.218817976652 eV    ::
         :: SCC energy              -109.538164499237 Eh    ::
         :: -> dispersion             -0.086824878317 Eh    ::
         :: repulsion energy           1.963311534846 Eh    ::

    * Orbital Energies and Occupations

         #    Occupation            Energy/Eh            Energy/eV
      -------------------------------------------------------------
         1        2.0000           -0.7248639             -19.7245
       ...           ...                  ...                  ...
        87        2.0000           -0.4247948             -11.5593
        88        2.0000           -0.4184606             -11.3869
        89        2.0000           -0.4183135             -11.3829
        90        2.0000           -0.4132049             -11.2439
        91        2.0000           -0.4131844             -11.2433
        92        2.0000           -0.4100379             -11.1577
        93        2.0000           -0.4099942             -11.1565
        94        2.0000           -0.3975583             -10.8181
        95        2.0000           -0.3956017             -10.7649
        96        2.0000           -0.3873732             -10.5410
        97        2.0000           -0.3866597             -10.5215
        98        2.0000           -0.3402153              -9.2577
        99        2.0000           -0.3400625              -9.2536 (HOMO)
       100                         -0.2585225              -7.0348 (LUMO)
       101                         -0.2529227              -6.8824
       102                         -0.2382776              -6.4839
       103                         -0.2382644              -6.4835
       104                         -0.2354682              -6.4074
       105                         -0.2354465              -6.4068
       106                         -0.2269752              -6.1763
       107                         -0.2269560              -6.1758
       108                         -0.2123297              -5.7778
       109                         -0.2120039              -5.7689
       110                         -0.1936823              -5.2704
       ...                                ...                  ...
       192                          1.4215752              38.6830
      -------------------------------------------------------------
                  HL-Gap            0.0815400 Eh            2.2188 eV

     #   Z          covCN         q      C6AA      α(0)
     1   6 C        1.982    -0.039    32.096     9.149
     2   6 C        1.982    -0.039    32.096     9.149
     3   6 C        2.971     0.036    27.183     8.552
     4   6 C        2.927    -0.029    28.735     8.791
     5   6 C        2.920    -0.040    28.985     8.829
     6   6 C        2.921     0.065    26.540     8.448
     7   7 N        2.751    -0.073    22.662     7.070
     8   6 C        2.922     0.043    27.041     8.528
     9   6 C        2.924    -0.061    29.506     8.908
    10   6 C        2.919    -0.039    28.973     8.827
    11   6 C        2.919    -0.041    29.016     8.833
    12   6 C        2.920    -0.057    29.406     8.893
    13   6 C        2.884     0.124    25.275     8.242
    14   8 O        1.709    -0.257    18.253     5.768
    15   6 C        2.884     0.124    25.275     8.242
    16   6 C        2.920    -0.057    29.406     8.893
    17   6 C        2.919    -0.041    29.016     8.833
    18   6 C        2.919    -0.039    28.973     8.827
    19   6 C        2.924    -0.061    29.506     8.908
    20   6 C        2.922     0.043    27.041     8.528
    21   6 C        2.920    -0.040    28.985     8.829
    22   6 C        2.927    -0.029    28.735     8.791
    23   6 C        2.971     0.036    27.183     8.552
    24   6 C        2.927    -0.029    28.735     8.791
    25   6 C        2.920    -0.040    28.984     8.829
    26   6 C        2.921     0.065    26.540     8.448
    27   7 N        2.751    -0.073    22.663     7.070
    28   6 C        2.922     0.043    27.040     8.528
    29   6 C        2.924    -0.061    29.506     8.908
    30   6 C        2.919    -0.039    28.973     8.827
    31   6 C        2.919    -0.041    29.016     8.833
    32   6 C        2.920    -0.057    29.406     8.893
    33   6 C        2.884     0.124    25.275     8.242
    34   8 O        1.709    -0.257    18.254     5.768
    35   6 C        2.884     0.124    25.275     8.242
    36   6 C        2.920    -0.057    29.406     8.893
    37   6 C        2.919    -0.041    29.016     8.833
    38   6 C        2.919    -0.039    28.973     8.827
    39   6 C        2.924    -0.061    29.506     8.908
    40   6 C        2.922     0.043    27.040     8.528
    41   6 C        2.920    -0.040    28.984     8.829
    42   6 C        2.927    -0.029    28.735     8.791
    43   1 H        0.926     0.039     2.462     2.454
    44   1 H        0.926     0.040     2.445     2.445
    45   1 H        0.926     0.033     2.542     2.493
    46   1 H        0.926     0.034     2.523     2.484
    47   1 H        0.926     0.037     2.492     2.469
    48   1 H        0.926     0.049     2.328     2.386
    49   1 H        0.926     0.049     2.328     2.386
    50   1 H        0.926     0.037     2.492     2.469
    51   1 H        0.926     0.034     2.523     2.484
    52   1 H        0.926     0.033     2.542     2.493
    53   1 H        0.926     0.040     2.445     2.445
    54   1 H        0.926     0.039     2.462     2.454
    55   1 H        0.926     0.039     2.462     2.454
    56   1 H        0.926     0.040     2.445     2.445
    57   1 H        0.926     0.033     2.542     2.493
    58   1 H        0.926     0.034     2.523     2.484
    59   1 H        0.926     0.037     2.492     2.469
    60   1 H        0.926     0.049     2.329     2.386
    61   1 H        0.926     0.049     2.329     2.386
    62   1 H        0.926     0.037     2.492     2.469
    63   1 H        0.926     0.034     2.523     2.484
    64   1 H        0.926     0.033     2.542     2.493
    65   1 H        0.926     0.040     2.445     2.445
    66   1 H        0.926     0.039     2.462     2.454

molecular dipole:
                 x           y           z       tot (Debye)
 q only:       -0.002      -0.000       0.000
   full:       -0.002      -0.000       0.000       0.006

 projected vibrational frequencies (cm⁻¹)
eigval :       -0.00     0.00     0.00     0.00     0.00     0.00
eigval :       -6.06    10.01    11.06    25.73    26.72    42.54
eigval :       44.43    49.21    52.58    53.79    64.52    92.85
eigval :      111.01   115.25   116.64   121.05   189.95   191.72
eigval :      193.86   234.25   241.93   245.02   250.44   255.21
eigval :      271.95   272.63   300.39   361.07   365.51   372.75
eigval :      374.77   377.04   395.54   395.61   397.40   420.02
eigval :      429.17   430.73   431.04   431.29   441.80   442.12
eigval :      460.67   461.76   501.60   502.41   510.47   510.58
eigval :      522.09   522.10   538.69   550.67   552.22   587.62
eigval :      587.94   596.94   614.09   614.18   624.03   658.31
eigval :      660.06   661.04   661.06   663.54   682.84   684.81
eigval :      685.45   725.64   778.20   778.22   778.38   778.48
eigval :      793.90   803.83   814.47   814.87   853.36   854.58
eigval :      854.64   862.29   862.37   864.09   864.15   872.26
eigval :      872.36   895.75   895.78   896.92   896.94   912.56
eigval :      912.57   914.15   914.16   916.13   916.16   917.64
eigval :      922.28   922.33   929.53   929.89   935.08  1013.51
eigval :     1023.77  1090.26  1090.28  1091.43  1091.49  1108.03
eigval :     1108.05  1120.80  1120.99  1128.80  1129.06  1163.76
eigval :     1171.58  1171.98  1175.90  1175.91  1181.75  1183.33
eigval :     1190.04  1194.72  1201.07  1201.12  1221.61  1227.22
eigval :     1243.30  1243.30  1261.74  1262.09  1262.42  1262.46
eigval :     1296.43  1305.86  1306.20  1311.03  1311.16  1315.39
eigval :     1341.08  1341.18  1345.37  1357.26  1364.65  1401.40
eigval :     1401.95  1424.41  1424.44  1443.08  1443.49  1471.66
eigval :     1490.23  1490.52  1495.64  1507.03  1508.27  1549.19
eigval :     1549.58  1567.15  1567.17  1581.23  1581.24  1586.41
eigval :     1589.30  1591.05  1592.67  1604.35  1604.47  2321.86
eigval :     3082.18  3082.21  3083.55  3083.83  3087.72  3087.73
eigval :     3087.83  3087.86  3093.88  3093.91  3094.44  3095.11
eigval :     3097.86  3097.89  3097.97  3098.01  3104.52  3104.56
eigval :     3105.21  3105.23  3112.27  3112.28  3112.87  3112.90

   temp. (K)  partition function   enthalpy   heat capacity  entropy
                                   cal/mol     cal/K/mol   cal/K/mol   J/K/mol
 298.15  VIB  0.582E+16            19148.833    120.931    119.913
         ROT  0.230E+08              888.752      2.981     36.665
         INT  0.134E+24            20037.585    123.912    156.578
         TR   0.122E+29             1481.254      4.968     44.728
         TOT                       21518.8391   128.8798   201.3058   842.2636

       T/K    H(0)-H(T)+PV         H(T)/Eh          T*S/Eh         G(T)/Eh
   ------------------------------------------------------------------------
    298.15    0.342925E-01    0.529891E+00    0.956469E-01    0.434244E+00
   ------------------------------------------------------------------------

         :::::::::::::::::::::::::::::::::::::::::::::::::::::
         ::                  THERMODYNAMIC                  ::
         :::::::::::::::::::::::::::::::::::::::::::::::::::::
         :: total free energy        -107.140608676183 Eh   ::
         ::.................................................::
         :: total energy             -107.574852964259 Eh   ::
         :: zero point energy           0.495598734737 Eh   ::
         :: G(RRHO) w/o ZPVE           -0.061354446662 Eh   ::
         :: G(RRHO) contrib.            0.434244288076 Eh   ::
         :::::::::::::::::::::::::::::::::::::::::::::::::::::

           -------------------------------------------------
          | TOTAL ENERGY             -107.574852964259 Eh   |
          | TOTAL ENTHALPY           -107.044961776541 Eh   |
          | TOTAL FREE ENERGY        -107.140608676183 Eh   |
          | GRADIENT NORM               0.000062805761 Eh/α |
          | HOMO-LUMO GAP               2.218817296354 eV   |
           -------------------------------------------------

 * finished run on 2025/09/13 at 22:44:48.396
