   * xtb version 6.7.1 (edcfbbe) compiled by 'albert@albert-system' on 2024-07-22

   ID    Z sym.   atoms
    1    6 C      1-8, 10-20, 23-27, 30-41, 43, 44, 46, 49-64, 66-79
    2    7 N      9, 21, 22, 42, 45, 65
    3   15 P      28, 47
    4    8 O      29, 48
    5    1 H      80-137

          program call               : xtb data2507/toluene/PO-TPA/PO-TPA_toluene_S0_finalOpt.xtbopt.xyz --gfn 2 --uhf 2 --gbsa toluene --ohess vtight --parallel 40 --molden --ceasefiles --namespace data2507/toluene/PO-TPA/PO-TPA_toluene_T1_preOpt
      * Solvation model:               GBSA
        Solvent                        toluene
        Solvent mass                       9.2140E+01 g/mol
          :  Hamiltonian                  GFN2-xTB          :
 * total energy  :  -208.1732785 Eh     change       -0.3113456E-08 Eh
 * total energy  :  -208.1764423 Eh     change       -0.3163851E-02 Eh
 * total energy  :  -208.1774628 Eh     change       -0.1020513E-02 Eh
 * total energy  :  -208.1774296 Eh     change        0.3329161E-04 Eh
 * total energy  :  -208.1777901 Eh     change       -0.3605031E-03 Eh
 * total energy  :  -208.1778631 Eh     change       -0.7304531E-04 Eh
 * total energy  :  -208.1779359 Eh     change       -0.7279349E-04 Eh
 * total energy  :  -208.1779789 Eh     change       -0.4300926E-04 Eh
 * total energy  :  -208.1780185 Eh     change       -0.3956686E-04 Eh
 * total energy  :  -208.1780418 Eh     change       -0.2327963E-04 Eh
 * total energy  :  -208.1782259 Eh     change       -0.1648910E-06 Eh
 * total energy  :  -208.1782260 Eh     change       -0.1155936E-06 Eh
 * total energy  :  -208.1782261 Eh     change       -0.1197409E-06 Eh
 * total energy  :  -208.1782263 Eh     change       -0.1481674E-06 Eh
 * total energy  :  -208.1782264 Eh     change       -0.1465208E-06 Eh
 * total energy  :  -208.1782266 Eh     change       -0.1793200E-06 Eh
 * total energy  :  -208.1782268 Eh     change       -0.1953918E-06 Eh
 * total energy  :  -208.1782270 Eh     change       -0.1933869E-06 Eh
 * total energy  :  -208.1782270 Eh     change       -0.1382517E-08 Eh
   *** GEOMETRY OPTIMIZATION CONVERGED AFTER 94 ITERATIONS ***

 final structure:
================
137
 xtb: 6.7.1 (edcfbbe)
C          -11.79647449164619       -4.64640337968966       -2.03133995704094
C          -11.66795883451283       -4.37581949133136       -0.52440417363439
C          -11.00319876256080       -5.57760115270100        0.16441799811736
C          -13.07686548035929       -4.20989838255322        0.05313514543753
C          -10.79920051808980       -3.14785440826628       -0.31370882238288
C           -9.48704816101892       -3.14145035083790       -0.79016466834338
C           -8.65638185667885       -2.05553302234602       -0.61946708762629
C           -9.11436515760475       -0.91768445558643        0.04778680741980
N           -8.28145919075289        0.19144644935212        0.22862765817004
C           -6.92811768573503        0.01364661841780        0.48803584316498
C           -6.48459104525361       -1.08499140506665        1.23253851733023
C           -5.14163721045832       -1.27475399081024        1.46629648413125
C           -4.19199799274421       -0.37511790753824        0.97604348193439
C           -2.76441870901466       -0.58086050003005        1.22566179357553
C           -1.96010657204161        0.46624337931544        1.61027735747548
C           -0.58747648947771        0.30644319001441        1.88601035780233
C           -0.01995908681771       -1.05333061344573        1.83340847621647
C           -0.84353075800325       -2.08915796064153        1.35949675080117
C           -2.17800617639624       -1.87253901928271        1.06544835601520
C           -2.92781022422790       -2.94153082387946        0.54426651815676
N           -3.50472364764455       -3.83013267889520        0.09480674755934
N            1.19932146291399       -1.27284814687917        2.23953620245079
C            1.91780492623779       -0.23211721074360        2.88669407403276
C            3.39757905151282       -0.47740659566384        2.82616016616454
C            4.06410208760805       -1.12698678073180        3.85436061894389
C            5.42680163781695       -1.33637957849157        3.73763304377897
C            6.07207357565804       -0.88378859085788        2.59280036035842
P            7.88539369144525       -1.11431478602379        2.50439561439741
O            8.38343769550179       -1.89043562703604        3.65531333503348
C            8.57178940275406        0.57055690437332        2.41809712666394
C            9.81800632557979        0.75901317008919        3.00239238025098
C           10.41393676195146        2.00728152890644        2.97384000110633
C            9.76289689680604        3.06781083726974        2.36361766348310
C            8.51690977746562        2.88072893089841        1.78544122197437
C            7.91874717744768        1.63245000283469        1.80665274610063
C            8.23657676137188       -1.89611110882922        0.90281048272030
C            8.79605205970847       -3.16661517886539        0.91848073281971
C            9.11231976850668       -3.79288958803746       -0.27454445663432
C            8.87383411257281       -3.14627694938597       -1.47700812421897
C            8.31597849147596       -1.87660912410913       -1.48992107196155
C            7.99438781761078       -1.24842453357947       -0.30079076071088
N            5.44365007187019       -0.27605706908129        1.59714754717571
C            4.13431083554159       -0.07823595280275        1.70338884602039
C            3.43188626707911        0.59439193933047        0.60379639039486
N            4.00275081523721        0.60096477797538       -0.59264327400482
C            3.36716899890725        1.17029598156872       -1.60532076995985
P            4.13518596830731        1.10804077347011       -3.26147781580860
O            3.27927955783627        1.72558550895996       -4.29180814518308
C            5.76432042383146        1.89964436814522       -3.09815962590120
C            6.23704308577785        2.59540086703177       -4.20340957413509
C            7.48996362145011        3.18139873570705       -4.16401023578428
C            8.26883223449680        3.06635055077865       -3.02342735268634
C            7.79394024037837        2.37450719354799       -1.91954562590920
C            6.54041896058263        1.78951986388952       -1.95254269872957
C            4.47206564317624       -0.65490472026651       -3.55956360563882
C            5.04924043878892       -1.47835905686310       -2.60156511060281
C            5.29600553517607       -2.80497893947807       -2.90656385425873
C            4.98161016165338       -3.30438841177444       -4.16134387351454
C            4.40976632123127       -2.47962270212726       -5.11706938754710
C            4.15292513461519       -1.15375175900954       -4.81573447315049
C            2.12718512291579        1.78150299268091       -1.47036800267001
C            1.53276874075456        1.79366788881971       -0.22066414030574
C            2.18324874280123        1.18582328936817        0.84308072857409
C            1.57575081537185        1.14168489918940        2.22552424263026
N            0.17186169982262        1.31879485866667        2.19887878582079
C           -4.64106368874500        0.73630234821587        0.25827942699302
C           -5.98137476754112        0.92649082758918        0.00944582609974
C           -8.82086306730200        1.47884238704142        0.13685719827241
C           -8.39115898567111        2.49703725235944        0.98657125961206
C           -8.93227215762841        3.76445201495722        0.89260358046489
C           -9.91700952939361        4.06895244790895       -0.04324994718853
C          -10.53374358216451        5.45055248397523       -0.17863097930765
C          -10.26319729160908        5.97972314772060       -1.59559294226580
C           -9.95945364043558        6.45496981380275        0.82495495868785
C          -12.04841405827226        5.34806639493626        0.05724710069184
C          -10.33942246756089        3.03918521378346       -0.88561013254561
C           -9.80922474723231        1.76996965051960       -0.80484221382853
C          -10.42409250623042       -0.90873454011473        0.52557435788635
C          -11.24461649232843       -2.00492088814650        0.34477449276393
H          -10.82845043909162       -4.83706235790140       -2.48607158636272
H          -12.42770459113936       -5.51614607775006       -2.19993207109231
H          -12.24724362674685       -3.79124240440916       -2.53122249096993
H          -10.02095193924091       -5.78247396330983       -0.25237107563362
H          -11.61792696591302       -6.46622027496239        0.03840255008192
H          -10.88844883220414       -5.38626547579378        1.22969519414649
H          -13.59989723729226       -3.38170751351140       -0.41958051588323
H          -13.65050290601368       -5.11607235212834       -0.13044859573538
H          -13.04405263558637       -4.04757636025507        1.12804932066486
H           -9.09712897595369       -4.00000344107273       -1.31443168441188
H           -7.65047017510103       -2.07713545262300       -1.01260516679556
H           -7.20423154888433       -1.77945303965943        1.63876838110940
H           -4.82227951153946       -2.11729362551328        2.06135285706046
H           -2.36484242958345        1.46341854192901        1.69705854810810
H           -0.41329410320241       -3.07523420932673        1.26322153293073
H            1.60518870010805       -0.19044909292326        3.94626373210278
H            3.52278512941181       -1.45750952151055        4.72955271924688
H            6.00261597366077       -1.83039539440052        4.50541965569200
H           10.29935259301565       -0.08137640142529        3.48330429904525
H           11.38286424474749        2.15292585888956        3.42809181980679
H           10.22488136583318        4.04378587359215        2.34300975412415
H            8.00713930705249        3.70988217856271        1.31641412278981
H            6.94461426297940        1.47924137732382        1.36570191119085
H            8.98045747778424       -3.64422853292359        1.87095221192499
H            9.54699171078658       -4.78175760891024       -0.26503288428921
H            9.12322581662636       -3.63269951547314       -2.40853630331380
H            8.12949115355253       -1.37641009826239       -2.42848914396098
H            7.55735289300460       -0.26398514457395       -0.29564445713527
H            5.60699397484064        2.67490388420760       -5.07863105106095
H            7.85797707718866        3.72461269222435       -5.02201334536699
H            9.24868143342373        3.51948050306917       -2.99255482059012
H            8.40373483212269        2.28920266757213       -1.03204675225774
H            6.14397845209264        1.25769893618539       -1.10057991255897
H            5.28456493469085       -1.08354583471395       -1.62542022129265
H            5.73969666271819       -3.44834971963567       -2.16100988454494
H            5.18047460205803       -4.34021021528867       -4.39384401553220
H            4.16277021104602       -2.86830552129883       -6.09411003536704
H            3.69913472067804       -0.49108314761797       -5.53984341266612
H            1.66084331998857        2.22701550134230       -2.33598664912968
H            0.57095912458387        2.26017698059059       -0.06066232674332
H            2.01890712743642        1.94211020022905        2.83716851371276
H           -3.92038707402658        1.43331428815446       -0.14231070995249
H           -6.30622594716050        1.77084904844137       -0.57978149641672
H           -7.64025659817577        2.28553085087423        1.73365958919031
H           -8.57426119344713        4.51650786045390        1.57576143984693
H          -10.68115040800232        6.97798125564105       -1.70573747170425
H          -10.70899263783535        5.33967643682272       -2.35180795239741
H           -9.19204682814537        6.03277601530705       -1.78067620814961
H          -10.43686446674597        7.42207736507669        0.68089817382402
H          -10.14735546911130        6.13876621322096        1.84857939678103
H           -8.88935940979995        6.58636531473803        0.68107868329710
H          -12.52245599191937        4.69886241396620       -0.67354027919661
H          -12.50369852883594        6.33317506181907       -0.01787094930660
H          -12.24923060943738        4.95070698967212        1.05027793104498
H          -11.09477913763690        3.22838705027646       -1.63229453124484
H          -10.14456476099469        0.99684033681148       -1.48017516806294
H          -10.79154000073707       -0.04213671133728        1.05516328624236
H          -12.24536806799803       -1.95586461043769        0.74030058268903

          :  Hamiltonian                  GFN2-xTB          :
         :: gradient norm              0.000035230213 Eh/a0 ::
         :: HOMO-LUMO gap              1.034034597509 eV    ::
         :: SCC energy              -211.788881632949 Eh    ::
         :: -> dispersion             -0.199747046122 Eh    ::
         :: -> Gsolv                  -0.099640239296 Eh    ::
         :: repulsion energy           3.610654643306 Eh    ::

    * Orbital Energies and Occupations

         #    Occupation            Energy/Eh            Energy/eV
      -------------------------------------------------------------
         1        2.0000           -0.7035783             -19.1453
       ...           ...                  ...                  ...
       182        2.0000           -0.4146475             -11.2831
       183        2.0000           -0.4142780             -11.2731
       184        2.0000           -0.4130113             -11.2386
       185        2.0000           -0.4121987             -11.2165
       186        2.0000           -0.4071883             -11.0802
       187        2.0000           -0.4061318             -11.0514
       188        2.0000           -0.4047066             -11.0126
       189        2.0000           -0.3916356             -10.6569
       190        2.0000           -0.3889322             -10.5834
       191        2.0000           -0.3830824             -10.4242
       192        1.7684           -0.3636003              -9.8941
       193        1.2316           -0.3613219              -9.8321
       194        1.0000           -0.3355790              -9.1316 (HOMO)
       195                         -0.2975793              -8.0975 (LUMO)
       196                         -0.2804799              -7.6322
       197                         -0.2770747              -7.5396
       198                         -0.2651342              -7.2147
       199                         -0.2562542              -6.9730
       200                         -0.2552737              -6.9464
       201                         -0.2443648              -6.6495
       202                         -0.2414022              -6.5689
       203                         -0.2413235              -6.5667
       204                         -0.2404149              -6.5420
       205                         -0.2370398              -6.4502
       ...                                ...                  ...
       384                          1.1760984              32.0033
      -------------------------------------------------------------
                  HL-Gap            0.0379997 Eh            1.0340 eV

     #   Z          covCN         q      C6AA      α(0)
     1   6 C        3.761    -0.107    22.594     6.776
     2   6 C        3.902     0.027    20.061     6.367
     3   6 C        3.761    -0.107    22.589     6.775
     4   6 C        3.761    -0.110    22.659     6.786
     5   6 C        2.972     0.015    27.681     8.630
     6   6 C        2.926    -0.031    28.766     8.796
     7   6 C        2.919    -0.043    29.057     8.840
     8   6 C        2.926     0.059    26.677     8.470
     9   7 N        2.752    -0.031    21.845     6.942
    10   6 C        2.925     0.066    26.522     8.446
    11   6 C        2.920    -0.041    29.018     8.834
    12   6 C        2.922    -0.027    28.679     8.782
    13   6 C        2.976     0.009    27.814     8.651
    14   6 C        2.973     0.008    27.836     8.654
    15   6 C        2.922    -0.065    29.606     8.923
    16   6 C        2.923     0.092    25.966     8.356
    17   6 C        2.920     0.090    25.989     8.360
    18   6 C        2.929    -0.052    29.296     8.876
    19   6 C        2.969    -0.003    28.090     8.694
    20   6 C        1.915     0.118    28.194     8.575
    21   7 N        0.911    -0.292    27.536     7.589
    22   7 N        1.842    -0.293    28.441     7.904
    23   6 C        3.822     0.078    19.274     6.248
    24   6 C        2.979    -0.008    28.208     8.712
    25   6 C        2.928    -0.017    28.432     8.745
    26   6 C        3.011    -0.032    28.772     8.799
    27   6 C        2.905     0.100    25.788     8.327
    28  15 P        4.086     0.051   157.954    22.576
    29   8 O        0.808    -0.396    21.619     6.233
    30   6 C        2.921     0.015    27.680     8.628
    31   6 C        3.032    -0.019    28.453     8.749
    32   6 C        2.919    -0.026    28.644     8.777
    33   6 C        2.920    -0.023    28.586     8.768
    34   6 C        2.920    -0.026    28.658     8.779
    35   6 C        2.970    -0.028    28.693     8.786
    36   6 C        2.922     0.017    27.642     8.622
    37   6 C        3.022    -0.021    28.497     8.756
    38   6 C        2.919    -0.027    28.668     8.780
    39   6 C        2.920    -0.023    28.571     8.765
    40   6 C        2.920    -0.023    28.584     8.767
    41   6 C        2.982    -0.025    28.627     8.777
    42   7 N        1.907    -0.223    26.720     7.664
    43   6 C        2.970     0.094    25.914     8.350
    44   6 C        2.967     0.091    25.966     8.358
    45   7 N        1.918    -0.221    26.668     7.657
    46   6 C        2.903     0.100    25.792     8.327
    47  15 P        4.086     0.048   158.103    22.587
    48   8 O        0.808    -0.395    21.602     6.230
    49   6 C        2.922     0.015    27.669     8.626
    50   6 C        3.028    -0.020    28.475     8.753
    51   6 C        2.919    -0.026    28.657     8.779
    52   6 C        2.920    -0.023    28.584     8.767
    53   6 C        2.920    -0.026    28.642     8.776
    54   6 C        2.976    -0.029    28.712     8.789
    55   6 C        2.922     0.015    27.684     8.628
    56   6 C        2.976    -0.029    28.718     8.790
    57   6 C        2.920    -0.025    28.634     8.775
    58   6 C        2.920    -0.023    28.588     8.768
    59   6 C        2.919    -0.027    28.679     8.782
    60   6 C        3.026    -0.021    28.503     8.757
    61   6 C        3.000    -0.033    28.817     8.806
    62   6 C        2.928    -0.017    28.445     8.746
    63   6 C        2.976    -0.005    28.133     8.700
    64   6 C        3.824     0.071    19.372     6.263
    65   7 N        1.842    -0.283    28.180     7.867
    66   6 C        2.922    -0.031    28.771     8.796
    67   6 C        2.919    -0.043    29.057     8.840
    68   6 C        2.926     0.059    26.679     8.471
    69   6 C        2.920    -0.044    29.082     8.843
    70   6 C        2.924    -0.036    28.889     8.814
    71   6 C        2.972     0.014    27.692     8.632
    72   6 C        3.902     0.027    20.062     6.367
    73   6 C        3.761    -0.107    22.592     6.776
    74   6 C        3.761    -0.110    22.648     6.784
    75   6 C        3.761    -0.107    22.599     6.777
    76   6 C        2.926    -0.031    28.781     8.798
    77   6 C        2.919    -0.043    29.058     8.840
    78   6 C        2.920    -0.043    29.071     8.842
    79   6 C        2.924    -0.036    28.893     8.815
    80   1 H        0.925     0.039     2.461     2.453
    81   1 H        0.925     0.042     2.417     2.431
    82   1 H        0.925     0.036     2.501     2.473
    83   1 H        0.925     0.039     2.463     2.454
    84   1 H        0.925     0.042     2.418     2.432
    85   1 H        0.925     0.035     2.519     2.482
    86   1 H        0.925     0.040     2.454     2.450
    87   1 H        0.925     0.041     2.439     2.442
    88   1 H        0.925     0.039     2.464     2.455
    89   1 H        0.926     0.045     2.384     2.414
    90   1 H        0.926     0.039     2.466     2.456
    91   1 H        0.926     0.050     2.323     2.383
    92   1 H        0.926     0.038     2.482     2.464
    93   1 H        0.926     0.051     2.309     2.376
    94   1 H        0.926     0.039     2.469     2.457
    95   1 H        0.922     0.026     2.644     2.543
    96   1 H        0.926     0.056     2.246     2.344
    97   1 H        0.926     0.071     2.079     2.255
    98   1 H        0.925     0.050     2.314     2.379
    99   1 H        0.926     0.048     2.340     2.392
   100   1 H        0.926     0.050     2.314     2.379
   101   1 H        0.926     0.047     2.352     2.398
   102   1 H        0.926     0.053     2.286     2.364
   103   1 H        0.925     0.051     2.306     2.374
   104   1 H        0.926     0.047     2.358     2.401
   105   1 H        0.926     0.049     2.327     2.385
   106   1 H        0.926     0.047     2.361     2.403
   107   1 H        0.926     0.063     2.168     2.302
   108   1 H        0.925     0.049     2.327     2.385
   109   1 H        0.926     0.047     2.353     2.399
   110   1 H        0.926     0.050     2.319     2.381
   111   1 H        0.926     0.050     2.323     2.383
   112   1 H        0.926     0.062     2.177     2.307
   113   1 H        0.926     0.063     2.160     2.298
   114   1 H        0.926     0.043     2.406     2.426
   115   1 H        0.926     0.049     2.328     2.386
   116   1 H        0.926     0.048     2.348     2.396
   117   1 H        0.925     0.052     2.298     2.370
   118   1 H        0.926     0.066     2.131     2.283
   119   1 H        0.926     0.055     2.252     2.347
   120   1 H        0.923     0.037     2.483     2.464
   121   1 H        0.926     0.045     2.383     2.414
   122   1 H        0.926     0.051     2.305     2.374
   123   1 H        0.926     0.040     2.450     2.448
   124   1 H        0.926     0.052     2.297     2.370
   125   1 H        0.925     0.042     2.419     2.432
   126   1 H        0.925     0.040     2.449     2.447
   127   1 H        0.925     0.035     2.520     2.482
   128   1 H        0.925     0.040     2.444     2.445
   129   1 H        0.925     0.038     2.469     2.457
   130   1 H        0.925     0.038     2.478     2.461
   131   1 H        0.925     0.040     2.444     2.445
   132   1 H        0.925     0.042     2.419     2.432
   133   1 H        0.925     0.036     2.506     2.476
   134   1 H        0.926     0.047     2.361     2.403
   135   1 H        0.926     0.043     2.409     2.427
   136   1 H        0.926     0.044     2.398     2.422
   137   1 H        0.926     0.054     2.269     2.356

molecular dipole:
                 x           y           z       tot (Debye)
 q only:       -5.203       2.042      -0.966
   full:       -5.501       2.292      -0.255      15.161

 projected vibrational frequencies (cm⁻¹)
eigval :       -0.00    -0.00     0.00     0.00     0.00     0.00
eigval :        3.39     6.26     8.99    11.06    16.11    16.60
eigval :       19.66    21.96    24.27    27.30    29.60    29.90
eigval :       31.32    34.49    34.74    37.65    39.42    50.17
eigval :       52.23    56.53    59.05    65.75    68.86    72.52
eigval :       79.26    79.97    84.27    90.74    95.94   100.21
eigval :      102.95   108.48   119.42   130.24   141.93   146.57
eigval :      152.57   154.61   160.57   170.82   171.18   173.97
eigval :      178.30   180.01   182.20   189.10   204.35   207.75
eigval :      219.47   224.30   224.56   225.37   227.08   233.22
eigval :      235.05   239.08   248.98   255.77   262.94   278.76
eigval :      280.26   284.68   287.11   290.70   298.54   313.06
eigval :      315.36   315.73   317.32   325.60   335.20   340.96
eigval :      350.43   354.80   361.54   362.75   363.88   365.65
eigval :      367.97   370.44   376.47   381.02   382.30   383.35
eigval :      389.93   390.71   394.46   394.69   401.00   407.62
eigval :      409.18   411.68   420.88   426.75   430.71   432.74
eigval :      441.13   444.37   450.62   454.53   460.10   469.80
eigval :      493.61   494.20   498.30   503.48   514.12   517.65
eigval :      523.04   531.91   541.12   549.17   557.38   569.14
eigval :      582.97   584.32   584.76   585.41   587.90   594.40
eigval :      601.91   603.30   604.98   607.98   608.96   615.21
eigval :      621.98   637.21   654.43   654.82   657.19   659.46
eigval :      660.97   673.76   681.45   689.83   690.44   691.09
eigval :      693.42   701.20   711.44   712.90   715.16   717.04
eigval :      718.28   731.82   739.88   742.83   747.85   750.48
eigval :      758.11   760.74   801.02   807.05   810.66   818.47
eigval :      819.30   821.32   826.81   830.01   853.63   863.75
eigval :      865.15   866.17   867.83   872.47   874.69   878.28
eigval :      880.75   882.77   886.18   897.11   901.43   904.75
eigval :      910.81   911.18   915.70   915.83   917.05   919.38
eigval :      920.33   924.56   926.46   927.57   927.85   928.52
eigval :      930.11   930.76   931.32   932.25   933.51   934.61
eigval :      939.15   943.54   950.61   959.44   959.48   962.00
eigval :      962.19   962.81   964.22   970.22   972.01   973.81
eigval :      975.00   978.16  1008.48  1021.93  1028.98  1033.75
eigval :     1033.86  1034.34  1035.46  1049.35  1055.54  1073.54
eigval :     1075.83  1077.07  1078.82  1087.05  1104.94  1107.09
eigval :     1108.25  1113.56  1115.31  1119.19  1119.77  1122.44
eigval :     1123.45  1124.72  1139.64  1140.10  1144.39  1149.61
eigval :     1150.38  1152.75  1153.65  1157.93  1174.50  1176.05
eigval :     1176.40  1177.19  1177.35  1182.73  1184.23  1186.86
eigval :     1188.18  1190.44  1195.66  1196.44  1203.47  1210.11
eigval :     1212.35  1223.01  1223.08  1223.66  1226.30  1227.19
eigval :     1229.65  1230.48  1230.73  1248.27  1253.14  1260.89
eigval :     1262.82  1265.47  1268.00  1270.05  1272.05  1273.13
eigval :     1275.35  1275.86  1279.86  1287.36  1289.95  1297.94
eigval :     1300.66  1310.48  1311.90  1315.40  1317.11  1318.36
eigval :     1318.87  1320.38  1321.92  1325.60  1327.27  1369.54
eigval :     1391.23  1397.72  1400.07  1400.38  1402.46  1403.01
eigval :     1407.07  1413.56  1417.19  1419.52  1420.46  1421.72
eigval :     1421.91  1424.70  1426.06  1427.19  1427.23  1447.12
eigval :     1447.53  1449.11  1449.77  1452.11  1471.89  1472.48
eigval :     1476.64  1487.73  1488.02  1489.35  1489.95  1497.06
eigval :     1497.25  1501.52  1501.70  1504.82  1510.54  1511.14
eigval :     1514.96  1515.28  1519.74  1527.47  1538.45  1540.33
eigval :     1543.74  1549.73  1550.04  1553.62  1558.63  1577.50
eigval :     1579.46  1579.66  1580.75  1581.23  1581.51  1581.77
eigval :     1582.28  1582.39  1582.50  1593.38  2332.04  2795.28
eigval :     2856.74  3022.77  3022.78  3023.47  3023.60  3027.00
eigval :     3027.07  3027.37  3027.65  3030.96  3031.05  3032.99
eigval :     3033.38  3038.02  3038.45  3046.50  3046.64  3049.70
eigval :     3049.88  3067.63  3068.04  3068.49  3069.76  3070.84
eigval :     3074.91  3075.50  3076.83  3077.18  3077.91  3080.25
eigval :     3080.65  3082.00  3082.28  3082.95  3083.46  3084.16
eigval :     3084.44  3084.85  3085.94  3086.31  3086.61  3087.30
eigval :     3088.01  3091.04  3091.97  3092.17  3092.68  3093.30
eigval :     3093.54  3096.00  3096.39  3097.99  3098.86  3102.28
eigval :     3120.36  3121.48  3125.02

   temp. (K)  partition function   enthalpy   heat capacity  entropy
                                   cal/mol     cal/K/mol   cal/K/mol   J/K/mol
 298.15  VIB  0.643E+37            43328.218    257.733    275.519
         ROT  0.532E+09              888.752      2.981     42.909
         INT  0.342E+46            44216.971    260.714    318.428
         TR   0.336E+29             1481.254      4.968     46.749
         TOT                       45698.2245   265.6824   365.1765  1527.8984

       T/K    H(0)-H(T)+PV         H(T)/Eh          T*S/Eh         G(T)/Eh
   ------------------------------------------------------------------------
    298.15    0.728248E-01    0.113771E+01    0.173507E+00    0.964206E+00
   ------------------------------------------------------------------------

         :::::::::::::::::::::::::::::::::::::::::::::::::::::
         ::                  THERMODYNAMIC                  ::
         :::::::::::::::::::::::::::::::::::::::::::::::::::::
         :: total free energy        -207.214020726457 Eh   ::
         ::.................................................::
         :: total energy             -208.178226982059 Eh   ::
         :: zero point energy           1.064888630896 Eh   ::
         :: G(RRHO) w/o ZPVE           -0.100682375294 Eh   ::
         :: G(RRHO) contrib.            0.964206255602 Eh   ::
         :::::::::::::::::::::::::::::::::::::::::::::::::::::

           -------------------------------------------------
          | TOTAL ENERGY             -208.178226982059 Eh   |
          | TOTAL ENTHALPY           -207.040513594894 Eh   |
          | TOTAL FREE ENERGY        -207.214020726457 Eh   |
          | GRADIENT NORM               0.000042341549 Eh/α |
          | HOMO-LUMO GAP               1.034023135871 eV   |
           -------------------------------------------------

 * finished run on 2025/08/24 at 11:23:27.820
