   * xtb version 6.7.1 (edcfbbe) compiled by 'albert@albert-system' on 2024-07-22

   ID    Z sym.   atoms
    1    6 C      1-8, 10-20, 23-27, 30-41, 43, 44, 46, 49-64, 66-79
    2    7 N      9, 21, 22, 42, 45, 65
    3   15 P      28, 47
    4    8 O      29, 48
    5    1 H      80-137

          program call               : xtb data2507/toluene/PO-TPA/PO-TPA_toluene_S0_crest.xyz --gfn 2 --gbsa toluene --ohess vtight --parallel 40 --molden --ceasefiles --namespace data2507/toluene/PO-TPA/PO-TPA_toluene_S0_finalOpt
      * Solvation model:               GBSA
        Solvent                        toluene
        Solvent mass                       9.2140E+01 g/mol
          :  Hamiltonian                  GFN2-xTB          :
 * total energy  :  -208.2004165 Eh     change       -0.1120827E-07 Eh
 * total energy  :  -208.2006419 Eh     change       -0.2253917E-03 Eh
 * total energy  :  -208.2007402 Eh     change       -0.9833174E-04 Eh
 * total energy  :  -208.2007547 Eh     change       -0.1449285E-04 Eh
 * total energy  :  -208.2008057 Eh     change       -0.5101456E-04 Eh
 * total energy  :  -208.2008679 Eh     change       -0.6221280E-04 Eh
 * total energy  :  -208.2009323 Eh     change       -0.6433202E-04 Eh
 * total energy  :  -208.2009721 Eh     change       -0.3981887E-04 Eh
 * total energy  :  -208.2010097 Eh     change       -0.3763180E-04 Eh
 * total energy  :  -208.2010316 Eh     change       -0.2193912E-04 Eh
 * total energy  :  -208.2013418 Eh     change       -0.5550297E-06 Eh
 * total energy  :  -208.2013422 Eh     change       -0.3985819E-06 Eh
 * total energy  :  -208.2013425 Eh     change       -0.2969052E-06 Eh
 * total energy  :  -208.2013428 Eh     change       -0.2824239E-06 Eh
 * total energy  :  -208.2013432 Eh     change       -0.3840128E-06 Eh
 * total energy  :  -208.2013435 Eh     change       -0.3550805E-06 Eh
 * total energy  :  -208.2013439 Eh     change       -0.4072226E-06 Eh
 * total energy  :  -208.2013444 Eh     change       -0.4890864E-06 Eh
 * total energy  :  -208.2013444 Eh     change       -0.6317379E-08 Eh
   *** GEOMETRY OPTIMIZATION CONVERGED AFTER 94 ITERATIONS ***

 final structure:
================
137
 xtb: 6.7.1 (edcfbbe)
C          -11.88498797777983       -4.65877576212280       -2.00926590529753
C          -11.70399406300083       -4.42409863314692       -0.50194218867254
C          -11.01160690338822       -5.63922908237596        0.13363217827056
C          -13.09246166807038       -4.27949871104712        0.12850434217312
C          -10.83334827161874       -3.19595087582459       -0.29017893097272
C           -9.54182316535366       -3.16846445872867       -0.81550982691267
C           -8.71189931971860       -2.07952173846104       -0.65017572763866
C           -9.14832274708514       -0.96642850856090        0.06619447888114
N           -8.31774982247114        0.15388058306985        0.23668513549846
C           -6.96663682876375        0.00177063661994        0.47396223051630
C           -6.47615145586165       -1.12646417807175        1.14547102043299
C           -5.12788510880677       -1.28840304520581        1.35778505706111
C           -4.20861583180927       -0.32652703622502        0.92566362455649
C           -2.77889396802480       -0.48374766095268        1.16002192253009
C           -1.99233309822000        0.56682005440671        1.52339950006797
C           -0.58971781675037        0.42325600004393        1.74576290976708
C           -0.01888582952151       -0.93922563604673        1.72814660512421
C           -0.83902946447704       -1.99888488754341        1.21226139707065
C           -2.15727319206237       -1.78575218857788        0.96110661001708
C           -2.90540395139301       -2.85275851629381        0.40895538158984
N           -3.45594961918348       -3.73822703546017       -0.07060397432985
N            1.14956255933355       -1.20054492157741        2.19354428508796
C            1.88171178621065       -0.09483042783998        2.77624905341392
C            3.35284443941442       -0.40067929836967        2.74802061482192
C            3.97262900355185       -1.07888045382804        3.78683359504588
C            5.33200314026855       -1.32268489784694        3.70716967159834
C            6.02093657105570       -0.87777462813555        2.58474316427946
P            7.83169656887075       -1.14165107047271        2.55513685492793
O            8.27611693566538       -1.93562620626912        3.71587793872622
C            8.54818630028671        0.53243536844450        2.50915370479252
C            9.77515276128399        0.69562615355174        3.13988651985587
C           10.39144645646421        1.93429239356132        3.14463589381796
C            9.77964210407961        3.01070613355508        2.52173304836720
C            8.55234757059512        2.84901961342530        1.89772516503006
C            7.93423481967014        1.61039469708318        1.88540396668459
C            8.22980470887015       -1.91481513366381        0.96037542152444
C            8.76803324968171       -3.19436668612529        0.98434641187737
C            9.11959653723681       -3.81425893946230       -0.20211928193744
C            8.93749712801346       -3.15245630201506       -1.40618851914877
C            8.40092721043845       -1.87375815275030       -1.42737323965097
C            8.04459204973773       -1.25175770910629       -0.24490356751265
N            5.43527378388505       -0.25294700367754        1.57419073029858
C            4.12852148443572       -0.02235666968813        1.64446083528938
C            3.47524461393861        0.66316321621387        0.52184468658378
N            4.09009164482585        0.65944736051599       -0.65345809662076
C            3.50685485678217        1.24839917073197       -1.68619800925589
P            4.33086058766430        1.17057324440656       -3.31475528207313
O            3.52193007745213        1.80143182169115       -4.37466594200489
C            5.96543247682580        1.93575850579885       -3.09270722700310
C            6.48826779722562        2.62768082223747       -4.17750073263019
C            7.74799874092283        3.19372183893428       -4.09060639174808
C            8.48335694470446        3.06257873186792       -2.92319144658079
C            7.95792924786640        2.37527842054149       -1.83954312637321
C            6.69738882706520        1.81048584559028       -1.91994838412386
C            4.64692519635990       -0.59827476839136       -3.60060264428271
C            5.18246817951064       -1.42939208756792       -2.62512357964434
C            5.41466764263727       -2.76083508623334       -2.92043931305507
C            5.12622731127254       -3.25795404533095       -4.18235546995288
C            4.59528091417203       -2.42584183448197       -5.15521348982254
C            4.35376227903006       -1.09481708049332       -4.86402719734169
C            2.28109991399298        1.89474587307383       -1.59357410581992
C            1.63756773950685        1.91293745439491       -0.36828404725623
C            2.23014644805474        1.27826689696046        0.71410711902659
C            1.57038851465925        1.23704755328594        2.07550182916234
N            0.15095510268693        1.46110762667397        1.94466536981295
C           -4.70287201056112        0.81259395264579        0.28015966093908
C           -6.04753303952911        0.97193330247014        0.04888173574064
C           -8.89045605000485        1.43434088806619        0.14700301576412
C           -8.52260502796642        2.44444012755809        1.03058630656950
C           -9.09911604773814        3.69797048578462        0.94351062207639
C          -10.06285403925322        3.99023377695482       -0.01582765395264
C          -10.72057262927738        5.35503094429348       -0.14271748150462
C          -10.42810902088420        5.92212505218015       -1.54015127674437
C          -10.20768621097302        6.35675376850890        0.89638711006724
C          -12.23689861373845        5.20043842365762        0.04839542282832
C          -10.42584801976423        2.96604457099650       -0.88995972197766
C           -9.85548756512294        1.71234232125445       -0.81840211981488
C          -10.43554819977140       -0.97854622723732        0.59424877829392
C          -11.25884145726682       -2.07434235044320        0.41372711836253
H          -10.93291338208248       -4.83650311716302       -2.50151230459085
H          -12.52128385579242       -5.52499188389410       -2.17792271810530
H          -12.35272199458056       -3.79195828432335       -2.47230218721135
H          -10.04344714662441       -5.82800403230299       -0.32206021729247
H          -11.62625858070178       -6.52804114592219        0.00756656823923
H          -10.86049330110253       -5.47273279284380        1.19857645946823
H          -13.63385153014010       -3.44079446200004       -0.30341469600787
H          -13.66969918397021       -5.18284155886916       -0.05845499661687
H          -13.02228643890622       -4.14430180403317        1.20543832431856
H           -9.16684630145713       -4.01082258639678       -1.37624968122834
H           -7.72173768248683       -2.08406424977741       -1.08268993792012
H           -7.16875336533421       -1.86777692439216        1.51392724925669
H           -4.78464085509835       -2.15145431350637        1.90878586647441
H           -2.40693305230227        1.55504335459625        1.64731029857774
H           -0.38143356278786       -2.96672865011307        1.06976493590944
H            1.55760598390171       -0.03190666674111        3.82903201559659
H            3.39873758306976       -1.40126344240211        4.64397745806609
H            5.87346307231919       -1.83620270072457        4.48698558208731
H           10.22552962115209       -0.15655266213248        3.62999456472498
H           11.34559736073583        2.06020945838742        3.63467447771606
H           10.25753137703511        3.97919714624148        2.52694119945967
H            8.07286839034906        3.69076849747485        1.41923345491426
H            6.97400643639018        1.47726726383057        1.40873334758013
H            8.90862951584349       -3.68391726293400        1.93820845478254
H            9.53805877520498       -4.81003578771332       -0.18621310816455
H            9.21459140550422       -3.63391480725761       -2.33245576128664
H            8.25840222058416       -1.36163945865899       -2.36726226357819
H            7.62427568678966       -0.26008877575349       -0.24625575311511
H            5.89161863005359        2.71987491505028       -5.07462656995482
H            8.15535179637078        3.73374835937416       -4.93271717183250
H            9.46852042213998        3.49989620282532       -2.85524890556583
H            8.53373125645437        2.27774281975381       -0.93086724333937
H            6.26153575884183        1.28325353939596       -1.08452599353177
H            5.39692616881777       -1.03621893831274       -1.64365239428082
H            5.82668352608377       -3.40987611516732       -2.16173684978640
H            5.31347338629844       -4.29760930726167       -4.40730625633798
H            4.36845387641283       -2.81269638175427       -6.13788759374928
H            3.93225044872231       -0.42615429052473       -5.60201739277090
H            1.86106301165276        2.35969197488155       -2.47252497042306
H            0.68312202183863        2.40344127812745       -0.24335283777083
H            1.97212800947376        2.06789887960772        2.67521579882531
H           -4.00904803431429        1.55543182570133       -0.08388156162645
H           -6.40244258407255        1.84065577433369       -0.48469147785714
H           -7.78631619936386        2.24214355088951        1.79502361564714
H           -8.78442380283240        4.44672413766175        1.65148741670394
H          -10.87615244212240        6.90807753119160       -1.64399027700050
H          -10.83000210057081        5.28245629734109       -2.32101479411177
H           -9.35440756862068        6.01389846540481       -1.69289193031776
H          -10.71183411214356        7.31107018469459        0.75752704208367
H          -10.41396087115166        6.01353505927813        1.90772721367300
H           -9.13859369461733        6.52419587806145        0.78620024955489
H          -12.66833331156247        4.54849014131392       -0.70606649476459
H          -12.72267701905448        6.17129057243509       -0.02313327988861
H          -12.45212113820219        4.77884543430998        1.02843399780842
H          -11.16674120427693        3.14484502413406       -1.65392714386759
H          -10.15067896208538        0.94024368025988       -1.51382539965713
H          -10.79007806766139       -0.12474798191808        1.15318618827850
H          -12.24566050200917       -2.03860233368562        0.84466849443200

          :  Hamiltonian                  GFN2-xTB          :
         :: gradient norm              0.000147157764 Eh/a0 ::
         :: HOMO-LUMO gap              0.374368457139 eV    ::
         :: SCC energy              -211.814004072996 Eh    ::
         :: -> dispersion             -0.199643683449 Eh    ::
         :: -> Gsolv                  -0.094529033784 Eh    ::
         :: repulsion energy           3.612659658905 Eh    ::

    * Orbital Energies and Occupations

         #    Occupation            Energy/Eh            Energy/eV
      -------------------------------------------------------------
         1        2.0000           -0.7033880             -19.1402
       ...           ...                  ...                  ...
       181        2.0000           -0.4146606             -11.2835
       182        2.0000           -0.4130819             -11.2405
       183        2.0000           -0.4123142             -11.2196
       184        2.0000           -0.4102669             -11.1639
       185        2.0000           -0.4078984             -11.0995
       186        2.0000           -0.4060734             -11.0498
       187        2.0000           -0.4048810             -11.0174
       188        2.0000           -0.4019831             -10.9385
       189        2.0000           -0.4008544             -10.9078
       190        2.0000           -0.3885509             -10.5730
       191        2.0000           -0.3863894             -10.5142
       192        2.0000           -0.3709741             -10.0947
       193        1.9986           -0.3583263              -9.7506 (HOMO)
       194        0.0014           -0.3445676              -9.3762 (LUMO)
       195                         -0.2974073              -8.0929
       196                         -0.2803533              -7.6288
       197                         -0.2774682              -7.5503
       198                         -0.2753894              -7.4937
       199                         -0.2563917              -6.9768
       200                         -0.2552569              -6.9459
       201                         -0.2528175              -6.8795
       202                         -0.2413070              -6.5663
       203                         -0.2391475              -6.5075
       204                         -0.2371741              -6.4538
       ...                                ...                  ...
       384                          1.1761606              32.0050
      -------------------------------------------------------------
                  HL-Gap            0.0137587 Eh            0.3744 eV

     #   Z          covCN         q      C6AA      α(0)
     1   6 C        3.761    -0.106    22.576     6.773
     2   6 C        3.902     0.026    20.079     6.369
     3   6 C        3.761    -0.106    22.572     6.773
     4   6 C        3.761    -0.109    22.629     6.781
     5   6 C        2.972     0.009    27.825     8.653
     6   6 C        2.927    -0.033    28.833     8.806
     7   6 C        2.920    -0.046    29.144     8.853
     8   6 C        2.926     0.058    26.705     8.475
     9   7 N        2.752    -0.051    22.234     7.003
    10   6 C        2.923     0.071    26.402     8.426
    11   6 C        2.920    -0.046    29.141     8.852
    12   6 C        2.921    -0.028    28.693     8.784
    13   6 C        2.976    -0.001    28.038     8.686
    14   6 C        2.969     0.020    27.563     8.612
    15   6 C        2.920    -0.060    29.485     8.905
    16   6 C        2.925     0.096    25.878     8.342
    17   6 C        2.929     0.101    25.772     8.325
    18   6 C        2.931    -0.032    28.798     8.801
    19   6 C        2.967     0.023    27.479     8.598
    20   6 C        1.918     0.125    28.040     8.552
    21   7 N        0.911    -0.247    26.432     7.436
    22   7 N        1.841    -0.274    27.963     7.837
    23   6 C        3.832     0.062    19.519     6.286
    24   6 C        2.979    -0.008    28.209     8.712
    25   6 C        2.928    -0.017    28.423     8.743
    26   6 C        3.011    -0.032    28.769     8.798
    27   6 C        2.905     0.100    25.790     8.327
    28  15 P        4.086     0.051   157.959    22.577
    29   8 O        0.808    -0.396    21.630     6.234
    30   6 C        2.921     0.015    27.684     8.628
    31   6 C        3.032    -0.019    28.454     8.750
    32   6 C        2.919    -0.026    28.646     8.777
    33   6 C        2.920    -0.023    28.588     8.768
    34   6 C        2.920    -0.026    28.659     8.779
    35   6 C        2.970    -0.028    28.694     8.787
    36   6 C        2.922     0.017    27.639     8.621
    37   6 C        3.022    -0.021    28.497     8.756
    38   6 C        2.919    -0.027    28.669     8.780
    39   6 C        2.920    -0.023    28.572     8.766
    40   6 C        2.920    -0.023    28.584     8.767
    41   6 C        2.983    -0.025    28.627     8.777
    42   7 N        1.906    -0.223    26.701     7.661
    43   6 C        2.969     0.091    25.963     8.358
    44   6 C        2.966     0.089    26.027     8.368
    45   7 N        1.918    -0.222    26.683     7.659
    46   6 C        2.902     0.099    25.804     8.329
    47  15 P        4.086     0.047   158.132    22.589
    48   8 O        0.808    -0.396    21.616     6.232
    49   6 C        2.922     0.015    27.668     8.626
    50   6 C        3.027    -0.020    28.475     8.753
    51   6 C        2.919    -0.026    28.658     8.779
    52   6 C        2.920    -0.023    28.585     8.768
    53   6 C        2.920    -0.026    28.642     8.776
    54   6 C        2.977    -0.029    28.712     8.790
    55   6 C        2.922     0.015    27.684     8.628
    56   6 C        2.976    -0.029    28.723     8.791
    57   6 C        2.920    -0.025    28.636     8.775
    58   6 C        2.920    -0.023    28.590     8.768
    59   6 C        2.919    -0.027    28.681     8.782
    60   6 C        3.026    -0.021    28.505     8.758
    61   6 C        3.001    -0.033    28.821     8.806
    62   6 C        2.927    -0.019    28.482     8.752
    63   6 C        2.976    -0.006    28.159     8.704
    64   6 C        3.829     0.060    19.557     6.292
    65   7 N        1.840    -0.284    28.213     7.872
    66   6 C        2.922    -0.031    28.766     8.795
    67   6 C        2.919    -0.047    29.160     8.855
    68   6 C        2.926     0.058    26.702     8.474
    69   6 C        2.921    -0.047    29.158     8.855
    70   6 C        2.925    -0.038    28.950     8.824
    71   6 C        2.972     0.009    27.824     8.652
    72   6 C        3.902     0.026    20.078     6.369
    73   6 C        3.761    -0.106    22.575     6.773
    74   6 C        3.761    -0.109    22.625     6.781
    75   6 C        3.761    -0.106    22.579     6.774
    76   6 C        2.927    -0.034    28.835     8.806
    77   6 C        2.920    -0.045    29.120     8.849
    78   6 C        2.921    -0.046    29.144     8.853
    79   6 C        2.925    -0.038    28.949     8.823
    80   1 H        0.925     0.038     2.477     2.461
    81   1 H        0.925     0.040     2.442     2.444
    82   1 H        0.925     0.034     2.526     2.485
    83   1 H        0.925     0.038     2.477     2.461
    84   1 H        0.925     0.041     2.442     2.444
    85   1 H        0.925     0.034     2.536     2.490
    86   1 H        0.925     0.038     2.477     2.461
    87   1 H        0.925     0.039     2.460     2.453
    88   1 H        0.925     0.037     2.484     2.465
    89   1 H        0.926     0.040     2.454     2.450
    90   1 H        0.926     0.034     2.533     2.489
    91   1 H        0.926     0.046     2.366     2.405
    92   1 H        0.926     0.035     2.512     2.479
    93   1 H        0.926     0.061     2.183     2.310
    94   1 H        0.926     0.061     2.192     2.315
    95   1 H        0.923     0.036     2.503     2.474
    96   1 H        0.926     0.057     2.237     2.339
    97   1 H        0.926     0.070     2.088     2.260
    98   1 H        0.925     0.050     2.317     2.380
    99   1 H        0.926     0.048     2.346     2.395
   100   1 H        0.926     0.050     2.319     2.382
   101   1 H        0.926     0.047     2.356     2.400
   102   1 H        0.926     0.053     2.283     2.363
   103   1 H        0.925     0.051     2.307     2.375
   104   1 H        0.926     0.047     2.362     2.403
   105   1 H        0.926     0.049     2.332     2.388
   106   1 H        0.926     0.046     2.367     2.406
   107   1 H        0.926     0.063     2.168     2.302
   108   1 H        0.925     0.049     2.332     2.388
   109   1 H        0.926     0.047     2.359     2.402
   110   1 H        0.926     0.050     2.323     2.384
   111   1 H        0.926     0.050     2.325     2.384
   112   1 H        0.926     0.062     2.172     2.305
   113   1 H        0.926     0.064     2.149     2.292
   114   1 H        0.926     0.043     2.404     2.425
   115   1 H        0.926     0.049     2.331     2.387
   116   1 H        0.926     0.047     2.355     2.400
   117   1 H        0.925     0.051     2.304     2.374
   118   1 H        0.926     0.065     2.143     2.289
   119   1 H        0.926     0.058     2.224     2.332
   120   1 H        0.923     0.039     2.463     2.454
   121   1 H        0.926     0.044     2.395     2.420
   122   1 H        0.926     0.047     2.352     2.398
   123   1 H        0.926     0.035     2.520     2.482
   124   1 H        0.926     0.047     2.363     2.404
   125   1 H        0.925     0.041     2.442     2.444
   126   1 H        0.925     0.038     2.472     2.459
   127   1 H        0.925     0.034     2.536     2.490
   128   1 H        0.925     0.039     2.461     2.453
   129   1 H        0.925     0.037     2.486     2.465
   130   1 H        0.925     0.037     2.490     2.468
   131   1 H        0.925     0.039     2.468     2.457
   132   1 H        0.925     0.040     2.442     2.444
   133   1 H        0.925     0.034     2.526     2.485
   134   1 H        0.926     0.040     2.443     2.444
   135   1 H        0.926     0.036     2.499     2.472
   136   1 H        0.926     0.036     2.496     2.471
   137   1 H        0.926     0.047     2.353     2.399

molecular dipole:
                 x           y           z       tot (Debye)
 q only:       -3.389       1.196      -0.487
   full:       -3.765       1.453       0.169      10.267

 projected vibrational frequencies (cm⁻¹)
eigval :       -0.00    -0.00    -0.00    -0.00     0.00     0.00
eigval :        3.66     5.33     8.85    10.29    15.13    16.39
eigval :       18.99    21.74    25.05    25.90    28.10    28.65
eigval :       31.92    32.91    35.33    38.23    42.09    49.42
eigval :       52.93    53.30    59.52    64.99    67.00    70.24
eigval :       77.66    81.24    82.88    88.11    94.14    98.64
eigval :      102.21   109.17   117.40   133.72   142.51   147.65
eigval :      148.74   154.03   159.01   170.65   171.40   173.64
eigval :      177.92   180.75   182.86   188.95   201.59   212.02
eigval :      217.85   221.24   224.53   225.10   228.13   235.75
eigval :      236.69   239.56   242.63   255.67   264.05   264.61
eigval :      283.82   284.66   287.90   290.90   297.40   306.99
eigval :      313.14   313.69   317.69   318.36   330.49   342.59
eigval :      349.36   355.98   360.83   363.79   364.41   366.47
eigval :      367.58   370.76   376.00   382.06   382.62   385.75
eigval :      390.31   390.99   392.33   394.01   399.61   403.75
eigval :      408.33   408.96   422.00   427.19   430.90   435.41
eigval :      441.80   444.60   450.52   455.38   460.06   466.40
eigval :      486.78   493.65   497.90   505.29   514.52   517.29
eigval :      525.75   532.92   538.07   551.80   557.80   569.30
eigval :      583.98   584.52   584.92   586.02   588.30   596.41
eigval :      603.66   604.58   605.88   607.93   610.47   619.34
eigval :      626.91   654.68   655.13   657.23   658.36   659.47
eigval :      667.05   682.28   688.97   690.21   691.22   692.21
eigval :      701.34   707.91   713.85   716.27   718.13   720.43
eigval :      723.98   735.01   742.36   743.33   748.06   750.68
eigval :      760.43   762.69   797.91   812.71   817.83   818.64
eigval :      824.19   827.38   833.45   856.71   862.07   865.03
eigval :      869.35   870.11   871.52   873.98   875.18   879.06
eigval :      881.35   882.55   885.06   902.81   904.02   904.92
eigval :      909.94   911.36   914.30   915.83   917.90   919.74
eigval :      923.47   924.24   926.81   928.07   929.32   929.54
eigval :      931.12   931.31   931.34   932.70   934.11   937.43
eigval :      938.68   942.83   959.42   959.75   962.11   963.03
eigval :      963.53   963.95   969.62   970.26   972.01   973.84
eigval :      975.06   987.25  1009.45  1024.20  1026.49  1034.15
eigval :     1035.06  1035.43  1035.75  1048.66  1066.07  1073.60
eigval :     1075.59  1076.88  1078.60  1094.21  1104.55  1107.16
eigval :     1108.45  1113.39  1115.62  1119.16  1119.62  1122.26
eigval :     1123.62  1125.19  1140.99  1141.88  1144.69  1151.29
eigval :     1152.24  1152.45  1154.35  1157.77  1176.43  1176.74
eigval :     1177.06  1179.28  1184.58  1185.50  1186.48  1187.69
eigval :     1189.87  1192.83  1195.68  1196.47  1199.96  1206.54
eigval :     1214.58  1224.55  1224.88  1225.02  1225.53  1226.75
eigval :     1228.91  1231.74  1231.86  1247.97  1253.96  1263.07
eigval :     1265.13  1265.39  1267.64  1269.80  1273.11  1274.34
eigval :     1274.59  1278.84  1280.77  1283.57  1289.73  1294.37
eigval :     1310.71  1312.91  1314.26  1318.37  1318.41  1318.89
eigval :     1320.38  1321.85  1324.78  1329.29  1345.30  1364.69
eigval :     1369.24  1397.38  1400.44  1401.77  1403.19  1403.58
eigval :     1407.70  1412.87  1420.25  1420.75  1422.28  1422.65
eigval :     1425.39  1425.49  1426.60  1427.83  1427.90  1447.08
eigval :     1447.58  1448.89  1449.34  1479.92  1480.84  1481.25
eigval :     1488.29  1489.10  1491.12  1491.23  1499.07  1499.16
eigval :     1502.85  1503.08  1508.87  1509.95  1511.86  1516.45
eigval :     1517.56  1532.34  1539.24  1545.32  1551.89  1558.73
eigval :     1559.92  1561.17  1565.16  1567.65  1579.59  1579.93
eigval :     1580.90  1581.39  1581.64  1581.98  1582.53  1582.54
eigval :     1593.71  1594.68  1599.58  1601.89  2355.43  2836.33
eigval :     2865.01  3020.67  3021.71  3022.04  3022.20  3025.24
eigval :     3025.77  3026.29  3026.79  3029.42  3029.99  3031.98
eigval :     3032.22  3037.36  3037.56  3045.65  3045.74  3048.84
eigval :     3049.35  3067.61  3068.31  3068.35  3069.03  3072.14
eigval :     3074.87  3076.57  3076.81  3077.09  3078.36  3078.77
eigval :     3079.97  3080.75  3081.24  3081.43  3082.10  3082.19
eigval :     3082.31  3084.90  3085.01  3085.74  3087.34  3087.87
eigval :     3092.03  3092.26  3092.44  3093.20  3093.35  3093.63
eigval :     3093.79  3094.15  3096.42  3098.67  3101.76  3102.60
eigval :     3117.10  3117.27  3125.59

   temp. (K)  partition function   enthalpy   heat capacity  entropy
                                   cal/mol     cal/K/mol   cal/K/mol   J/K/mol
 298.15  VIB  0.110E+38            43331.565    257.176    276.074
         ROT  0.538E+09              888.752      2.981     42.933
         INT  0.594E+46            44220.317    260.157    319.007
         TR   0.336E+29             1481.254      4.968     46.749
         TOT                       45701.5714   265.1253   365.7559  1530.3227

       T/K    H(0)-H(T)+PV         H(T)/Eh          T*S/Eh         G(T)/Eh
   ------------------------------------------------------------------------
    298.15    0.728301E-01    0.113916E+01    0.173782E+00    0.965377E+00
   ------------------------------------------------------------------------

         :::::::::::::::::::::::::::::::::::::::::::::::::::::
         ::                  THERMODYNAMIC                  ::
         :::::::::::::::::::::::::::::::::::::::::::::::::::::
         :: total free energy        -207.235967568808 Eh   ::
         ::.................................................::
         :: total energy             -208.201344412284 Eh   ::
         :: zero point energy           1.066329189288 Eh   ::
         :: G(RRHO) w/o ZPVE           -0.100952345811 Eh   ::
         :: G(RRHO) contrib.            0.965376843477 Eh   ::
         :::::::::::::::::::::::::::::::::::::::::::::::::::::

           -------------------------------------------------
          | TOTAL ENERGY             -208.201344412284 Eh   |
          | TOTAL ENTHALPY           -207.062185133184 Eh   |
          | TOTAL FREE ENERGY        -207.235967568808 Eh   |
          | GRADIENT NORM               0.000147899969 Eh/α |
          | HOMO-LUMO GAP               0.374393701772 eV   |
           -------------------------------------------------

 * finished run on 2025/08/24 at 11:22:51.735
