   * xtb version 6.7.1 (edcfbbe) compiled by 'albert@albert-system' on 2024-07-22

   ID    Z sym.   atoms
    1    6 C      1-8, 10-20, 23-27, 30-41, 43, 44, 46, 49-64, 66-79
    2    7 N      9, 21, 22, 42, 45, 65
    3   15 P      28, 47
    4    8 O      29, 48
    5    1 H      80-137

          program call               : xtb data2507/toluene/PO-TPA/PO-TPA_toluene_T1_crest.xyz --gfn 2 --uhf 2 --gbsa toluene --ohess vtight --parallel 40 --molden --ceasefiles --namespace data2507/toluene/PO-TPA/PO-TPA_toluene_T1_finalOpt
      * Solvation model:               GBSA
        Solvent                        toluene
        Solvent mass                       9.2140E+01 g/mol
          :  Hamiltonian                  GFN2-xTB          :
 * total energy  :  -208.1770393 Eh     change       -0.9058743E-07 Eh
 * total energy  :  -208.1773952 Eh     change       -0.3559175E-03 Eh
 * total energy  :  -208.1775402 Eh     change       -0.1449670E-03 Eh
 * total energy  :  -208.1776034 Eh     change       -0.6317401E-04 Eh
 * total energy  :  -208.1776520 Eh     change       -0.4858277E-04 Eh
 * total energy  :  -208.1776931 Eh     change       -0.4110567E-04 Eh
 * total energy  :  -208.1777523 Eh     change       -0.5928568E-04 Eh
 * total energy  :  -208.1777898 Eh     change       -0.3740981E-04 Eh
 * total energy  :  -208.1778371 Eh     change       -0.4732680E-04 Eh
 * total energy  :  -208.1778633 Eh     change       -0.2617357E-04 Eh
 * total energy  :  -208.1781986 Eh     change       -0.7804480E-06 Eh
 * total energy  :  -208.1781995 Eh     change       -0.8151288E-06 Eh
 * total energy  :  -208.1781997 Eh     change       -0.2384813E-06 Eh
 * total energy  :  -208.1782003 Eh     change       -0.6170679E-06 Eh
 * total energy  :  -208.1782005 Eh     change       -0.1325077E-06 Eh
 * total energy  :  -208.1782007 Eh     change       -0.2248300E-06 Eh
 * total energy  :  -208.1782010 Eh     change       -0.2749058E-06 Eh
 * total energy  :  -208.1782012 Eh     change       -0.2029437E-06 Eh
 * total energy  :  -208.1782012 Eh     change       -0.2136366E-07 Eh
   *** GEOMETRY OPTIMIZATION CONVERGED AFTER 100 ITERATIONS ***

 final structure:
================
137
 xtb: 6.7.1 (edcfbbe)
C          -11.39008334041056       -4.49671846774882       -2.77397782352675
C          -11.35530250188390       -4.40457846148792       -1.24061620970520
C          -10.70382625924730       -5.66863097363768       -0.65895942640780
C          -12.79876639501042       -4.33065541326888       -0.73358998204715
C          -10.52859090104682       -3.19694594484918       -0.83417904093201
C           -9.19562844478205       -3.10603783688216       -1.23862916229835
C           -8.40196562526597       -2.03400441630491       -0.89348647241805
C           -8.91996700404387       -0.99775785391617       -0.11402273925619
N           -8.12579792265632        0.09736526536606        0.24121425978140
C           -6.77954358403077       -0.08393062037976        0.53440289841942
C           -6.34023227948650       -1.25314972812059        1.16520697034746
C           -5.00282510263062       -1.44572860501108        1.42689812705109
C           -4.05529638435740       -0.48053956025024        1.07724783737287
C           -2.63083915773818       -0.69403817954764        1.33716640495587
C           -1.84977762678378        0.31395224480796        1.85316115139664
C           -0.47594301952231        0.14867548645209        2.11710444596198
C            0.11912960394251       -1.18329684133562        1.90473380894584
C           -0.68407110791799       -2.17434279060685        1.31452146055963
C           -2.02052890498934       -1.94887104240546        1.03677023957498
C           -2.74506549702693       -2.96505757041139        0.38931638141755
N           -3.29787656927333       -3.80828315249172       -0.16544139053986
N            1.34384957420651       -1.42408977204629        2.28042734736611
C            2.05433290833304       -0.44727605762212        3.02822986529200
C            3.53548328662078       -0.64833262761015        2.89979689387364
C            4.26592078079290       -1.33926520461169        3.85508229706013
C            5.62670693950469       -1.50699921010625        3.66356299065982
C            6.20233244250401       -0.98335065040255        2.51241378429541
P            8.00815481434875       -1.15735503605521        2.28992797663664
O            8.64065998194642       -1.85870434966452        3.42254619390965
C            8.61623516857174        0.54260188610802        2.06202353405355
C            9.76735459244887        0.89750208984017        2.75307958320715
C           10.29532066482848        2.16830929979000        2.60737918563785
C            9.67100138786587        3.08165406248692        1.77271682805265
C            8.51999124834428        2.72605794664473        1.08603213183560
C            7.99046394827119        1.45530002271399        1.22273215222517
C            8.24500285837971       -1.99326883781658        0.69250004864412
C            9.33211401572261       -2.85112228294079        0.58653474244920
C            9.59351062566728       -3.48500909744674       -0.61550580035302
C            8.77245846637374       -3.25631079213118       -1.70840526510218
C            7.68499598713363       -2.40300258059063       -1.59947015721407
C            7.41657354705389       -1.77053242802099       -0.39866811679499
N            5.51058149982285       -0.33142080062818        1.58927464544501
C            4.20777480913031       -0.16040568476618        1.77196358687392
C            3.45270065159615        0.60044527323909        0.76867136921102
N            3.95509341183688        0.71145660800084       -0.45497860733669
C            3.27830472604760        1.40164895322863       -1.36089673132416
P            3.90770534947141        1.50502618874749       -3.07536223193048
O            3.04575145736057        2.36051715907869       -3.91241681304727
C            5.62163065814857        2.09630065129956       -2.96808035859772
C            5.93783285711186        3.27801555769280       -3.62437304726458
C            7.23820883794896        3.75125526540387       -3.59816876062350
C            8.21737688255555        3.03985868781609       -2.92283002250749
C            7.89912309814676        1.85861212004235       -2.26929717744060
C            6.60053034062263        1.38406454292016       -2.28888461524542
C            3.99446414999860       -0.21881500995067       -3.65735875500524
C            4.26663100782827       -1.29685101359239       -2.82588967593789
C            4.31646235632217       -2.57383569578246       -3.35817728307656
C            4.10460016387442       -2.77430462822705       -4.71335612892337
C            3.83404352530132       -1.69737132943913       -5.54285565917672
C            3.77747219402707       -0.41994054406550       -5.01489469174282
C            2.07774675796892        2.04311650650196       -1.08264978481797
C            1.54998524498240        1.93113242304560        0.19082631892009
C            2.23326121206955        1.18531169458172        1.13973094337717
C            1.67262624959687        0.98321416770128        2.52912335048057
N            0.26440261606529        1.13098189223139        2.55089660257393
C           -4.50195451424507        0.69925108641414        0.47628781380217
C           -5.83635342697839        0.89495446189372        0.20186208269884
C           -8.69169710918671        1.37566129900604        0.28358300442799
C           -8.31524047860186        2.29114213884285        1.26534297664392
C           -8.87804353711810        3.55202429032365        1.30228408969445
C           -9.83385969765217        3.95082405775300        0.37189677602507
C          -10.47285133164542        5.32890200618011        0.37746265955160
C          -10.16204187350191        6.02715582493574       -0.95561761537889
C           -9.95525034518851        6.21550934594874        1.51402445607090
C          -11.99264164639789        5.17538794061249        0.54154220642948
C          -10.20408205505796        3.02282169153598       -0.60282244221962
C           -9.65126517076105        1.76172618861641       -0.65387967520620
C          -10.24994325871340       -1.07527404756818        0.29687717693338
C          -11.03318504515703       -2.15526939813870       -0.06042398770193
H          -10.39432858867414       -4.62595921897823       -3.18859021738946
H          -11.99760772827223       -5.34519658939980       -3.08111643394242
H          -11.82238763194866       -3.59187085111508       -3.19669047287973
H           -9.69257571101418       -5.80323275840122       -1.03297906216792
H          -11.28657984287868       -6.54631471585454       -0.92990279924052
H          -10.66038144589957       -5.60569171945152        0.42672788242719
H          -13.31045572048193       -3.45780783527376       -1.13261338871862
H          -13.34131729238438       -5.21531584082433       -1.06057622124081
H          -12.83267010041344       -4.30136109789002        0.35309780796424
H           -8.75941033924334       -3.88441084971313       -1.84505097570311
H           -7.37844509266715       -1.98674334733133       -1.23558413159048
H           -7.05914683496732       -2.00263128701287        1.45961693107002
H           -4.68721664329094       -2.34528586385414        1.93389285440222
H           -2.27381185632600        1.28705965105011        2.05062956889200
H           -0.23531606566193       -3.13523830167592        1.10963994409105
H            1.76727459829746       -0.53220923689835        4.09194671625353
H            3.77517793455381       -1.73460506610031        4.73320200983042
H            6.25080701537604       -2.02528156423916        4.37568169299334
H           10.22973155372902        0.16837865031558        3.40411008186717
H           11.19041314247204        2.44516478046390        3.14482162868358
H           10.08059861940583        4.07447993880998        1.65872084299036
H            8.03256483679464        3.43873771523966        0.43705298832305
H            7.09067890998021        1.17220314160879        0.69913958689930
H            9.95349933339464       -3.01726512275717        1.45570857464460
H           10.43657250068086       -4.15498592540581       -0.69933858016226
H            8.97772721451241       -3.74735701382864       -2.64815107550651
H            7.04478628075018       -2.23014200397189       -2.45200733515957
H            6.56451622424706       -1.11755598961197       -0.28471174099072
H            5.15567620579246        3.80857811842735       -4.14959639806470
H            7.48686838431059        4.67122896804840       -4.10670013138012
H            9.23312006024923        3.40658168788904       -2.90430493984359
H            8.66375957027958        1.30754225152671       -1.74250743401314
H            6.33463740929475        0.47145064649611       -1.78216437760160
H            4.42119924954744       -1.13409457765695       -1.76931105525342
H            4.52002031268750       -3.41465001605828       -2.71092054487137
H            4.14577255061303       -3.77298536029221       -5.12236625937267
H            3.66487173705443       -1.85298780727900       -6.59810114697875
H            3.55445901722656        0.43496572362049       -5.63834441996971
H            1.58572895437161        2.60257886109878       -1.86357867675364
H            0.61489594736495        2.40368820758558        0.45650093088881
H            2.11588878302668        1.72320439218919        3.21198966926888
H           -3.78215602916912        1.44915386517174        0.18441475367625
H           -6.15816312721483        1.79592095968566       -0.29846828303004
H           -7.58827278385100        2.00316625612064        2.01054720833678
H           -8.56055174194316        4.22224124723391        2.08361704238716
H          -10.59234101093604        7.02624448199876       -0.96131451259371
H          -10.57073257141650        5.47672648571268       -1.79836038122850
H           -9.08612532150769        6.11518250703455       -1.09391556921862
H          -10.44810416668834        7.18451233155390        1.46869465888008
H          -10.17146848520711        5.77607577806575        2.48520654901016
H           -8.88389048641827        6.38135368492460        1.42618783401942
H          -12.42634922705648        4.60643596499767       -0.27603376076292
H          -12.46506514898769        6.15508388981480        0.56181315278938
H          -12.22139778484749        4.66349745596077        1.47429931671698
H          -10.93517556329547        3.28813769757566       -1.35045590013910
H           -9.94580522531952        1.07101154484481       -1.42997106644965
H          -10.66337248470513       -0.28983432883832        0.91219521632031
H          -12.05253028763370       -2.17562215860463        0.28723382718651

          :  Hamiltonian                  GFN2-xTB          :
         :: gradient norm              0.000170711712 Eh/a0 ::
         :: HOMO-LUMO gap              1.043361811235 eV    ::
         :: SCC energy              -211.788979923872 Eh    ::
         :: -> dispersion             -0.199578389975 Eh    ::
         :: -> Gsolv                  -0.099509098736 Eh    ::
         :: repulsion energy           3.610778747568 Eh    ::

    * Orbital Energies and Occupations

         #    Occupation            Energy/Eh            Energy/eV
      -------------------------------------------------------------
         1        2.0000           -0.7037833             -19.1509
       ...           ...                  ...                  ...
       182        2.0000           -0.4146604             -11.2835
       183        2.0000           -0.4143581             -11.2753
       184        2.0000           -0.4136084             -11.2549
       185        2.0000           -0.4123120             -11.2196
       186        2.0000           -0.4071789             -11.0799
       187        2.0000           -0.4060473             -11.0491
       188        2.0000           -0.4048875             -11.0175
       189        2.0000           -0.3924007             -10.6778
       190        2.0000           -0.3883572             -10.5677
       191        2.0000           -0.3833582             -10.4317
       192        1.7850           -0.3637508              -9.8982
       193        1.2150           -0.3612905              -9.8312
       194        1.0000           -0.3358563              -9.1391 (HOMO)
       195                         -0.2975136              -8.0958 (LUMO)
       196                         -0.2804135              -7.6304
       197                         -0.2774721              -7.5504
       198                         -0.2653791              -7.2213
       199                         -0.2562981              -6.9742
       200                         -0.2556512              -6.9566
       201                         -0.2446791              -6.6581
       202                         -0.2413821              -6.5683
       203                         -0.2410704              -6.5599
       204                         -0.2405531              -6.5458
       205                         -0.2370503              -6.4505
       ...                                ...                  ...
       384                          1.1769045              32.0252
      -------------------------------------------------------------
                  HL-Gap            0.0383427 Eh            1.0434 eV

     #   Z          covCN         q      C6AA      α(0)
     1   6 C        3.761    -0.107    22.595     6.776
     2   6 C        3.902     0.027    20.061     6.367
     3   6 C        3.761    -0.107    22.588     6.775
     4   6 C        3.761    -0.110    22.659     6.786
     5   6 C        2.972     0.015    27.680     8.630
     6   6 C        2.926    -0.031    28.765     8.795
     7   6 C        2.919    -0.043    29.057     8.840
     8   6 C        2.926     0.059    26.677     8.470
     9   7 N        2.752    -0.031    21.842     6.941
    10   6 C        2.925     0.066    26.522     8.446
    11   6 C        2.920    -0.041    29.013     8.833
    12   6 C        2.922    -0.027    28.679     8.782
    13   6 C        2.976     0.009    27.813     8.651
    14   6 C        2.973     0.008    27.836     8.654
    15   6 C        2.922    -0.064    29.601     8.922
    16   6 C        2.924     0.092    25.967     8.357
    17   6 C        2.920     0.091    25.987     8.360
    18   6 C        2.929    -0.052    29.299     8.877
    19   6 C        2.969    -0.003    28.088     8.693
    20   6 C        1.915     0.118    28.193     8.575
    21   7 N        0.911    -0.292    27.524     7.588
    22   7 N        1.843    -0.292    28.429     7.902
    23   6 C        3.821     0.078    19.274     6.248
    24   6 C        2.980    -0.008    28.211     8.712
    25   6 C        2.927    -0.017    28.442     8.746
    26   6 C        3.002    -0.032    28.779     8.800
    27   6 C        2.904     0.100    25.786     8.326
    28  15 P        4.086     0.049   158.063    22.584
    29   8 O        0.808    -0.394    21.591     6.229
    30   6 C        2.922     0.015    27.682     8.628
    31   6 C        3.026    -0.021    28.495     8.756
    32   6 C        2.919    -0.027    28.674     8.781
    33   6 C        2.920    -0.023    28.589     8.768
    34   6 C        2.920    -0.025    28.638     8.776
    35   6 C        2.976    -0.029    28.728     8.792
    36   6 C        2.922     0.016    27.662     8.625
    37   6 C        3.027    -0.020    28.477     8.753
    38   6 C        2.919    -0.026    28.658     8.779
    39   6 C        2.920    -0.023    28.582     8.767
    40   6 C        2.920    -0.025    28.636     8.775
    41   6 C        2.977    -0.029    28.708     8.789
    42   7 N        1.916    -0.222    26.693     7.660
    43   6 C        2.969     0.094    25.902     8.348
    44   6 C        2.967     0.093    25.940     8.354
    45   7 N        1.906    -0.224    26.744     7.667
    46   6 C        2.904     0.100    25.793     8.327
    47  15 P        4.086     0.049   158.045    22.583
    48   8 O        0.808    -0.396    21.626     6.234
    49   6 C        2.922     0.016    27.656     8.624
    50   6 C        3.021    -0.021    28.499     8.757
    51   6 C        2.919    -0.027    28.668     8.780
    52   6 C        2.920    -0.023    28.574     8.766
    53   6 C        2.920    -0.024    28.593     8.769
    54   6 C        2.984    -0.026    28.638     8.778
    55   6 C        2.921     0.015    27.684     8.628
    56   6 C        2.969    -0.028    28.686     8.785
    57   6 C        2.920    -0.026    28.654     8.778
    58   6 C        2.920    -0.023    28.587     8.768
    59   6 C        2.919    -0.026    28.651     8.778
    60   6 C        3.033    -0.020    28.462     8.751
    61   6 C        3.011    -0.034    28.817     8.806
    62   6 C        2.928    -0.018    28.454     8.748
    63   6 C        2.977    -0.005    28.137     8.701
    64   6 C        3.825     0.072    19.365     6.262
    65   7 N        1.842    -0.283    28.199     7.870
    66   6 C        2.923    -0.031    28.769     8.796
    67   6 C        2.919    -0.042    29.054     8.839
    68   6 C        2.926     0.059    26.678     8.470
    69   6 C        2.920    -0.044    29.083     8.844
    70   6 C        2.924    -0.036    28.888     8.814
    71   6 C        2.972     0.014    27.692     8.632
    72   6 C        3.902     0.027    20.062     6.367
    73   6 C        3.761    -0.107    22.592     6.776
    74   6 C        3.761    -0.110    22.648     6.784
    75   6 C        3.761    -0.107    22.599     6.777
    76   6 C        2.926    -0.031    28.782     8.798
    77   6 C        2.919    -0.043    29.060     8.840
    78   6 C        2.920    -0.043    29.071     8.842
    79   6 C        2.924    -0.036    28.893     8.815
    80   1 H        0.925     0.039     2.460     2.453
    81   1 H        0.925     0.042     2.417     2.431
    82   1 H        0.925     0.036     2.502     2.474
    83   1 H        0.925     0.039     2.463     2.454
    84   1 H        0.925     0.042     2.416     2.431
    85   1 H        0.925     0.035     2.517     2.481
    86   1 H        0.925     0.040     2.454     2.450
    87   1 H        0.925     0.041     2.439     2.442
    88   1 H        0.925     0.039     2.463     2.454
    89   1 H        0.926     0.045     2.383     2.414
    90   1 H        0.926     0.039     2.468     2.457
    91   1 H        0.926     0.050     2.320     2.382
    92   1 H        0.926     0.038     2.476     2.461
    93   1 H        0.926     0.051     2.312     2.378
    94   1 H        0.926     0.039     2.461     2.453
    95   1 H        0.922     0.026     2.647     2.544
    96   1 H        0.926     0.056     2.244     2.343
    97   1 H        0.926     0.070     2.091     2.261
    98   1 H        0.925     0.052     2.295     2.369
    99   1 H        0.926     0.048     2.349     2.397
   100   1 H        0.926     0.050     2.326     2.385
   101   1 H        0.926     0.044     2.394     2.420
   102   1 H        0.926     0.063     2.161     2.299
   103   1 H        0.925     0.050     2.320     2.382
   104   1 H        0.926     0.047     2.353     2.399
   105   1 H        0.926     0.050     2.323     2.384
   106   1 H        0.926     0.049     2.334     2.389
   107   1 H        0.926     0.062     2.177     2.307
   108   1 H        0.925     0.051     2.303     2.373
   109   1 H        0.926     0.047     2.353     2.399
   110   1 H        0.926     0.050     2.322     2.383
   111   1 H        0.926     0.048     2.350     2.397
   112   1 H        0.926     0.063     2.168     2.302
   113   1 H        0.926     0.052     2.289     2.366
   114   1 H        0.926     0.046     2.366     2.405
   115   1 H        0.926     0.050     2.315     2.379
   116   1 H        0.926     0.049     2.335     2.390
   117   1 H        0.925     0.051     2.308     2.376
   118   1 H        0.926     0.067     2.116     2.275
   119   1 H        0.926     0.056     2.249     2.345
   120   1 H        0.923     0.036     2.499     2.472
   121   1 H        0.926     0.045     2.384     2.415
   122   1 H        0.926     0.051     2.304     2.374
   123   1 H        0.926     0.040     2.451     2.448
   124   1 H        0.926     0.052     2.298     2.371
   125   1 H        0.925     0.042     2.419     2.432
   126   1 H        0.925     0.040     2.449     2.447
   127   1 H        0.925     0.035     2.520     2.483
   128   1 H        0.925     0.040     2.444     2.445
   129   1 H        0.925     0.038     2.470     2.458
   130   1 H        0.925     0.038     2.478     2.462
   131   1 H        0.925     0.040     2.444     2.445
   132   1 H        0.925     0.042     2.419     2.432
   133   1 H        0.925     0.036     2.506     2.475
   134   1 H        0.926     0.047     2.360     2.403
   135   1 H        0.926     0.043     2.407     2.426
   136   1 H        0.926     0.044     2.396     2.421
   137   1 H        0.926     0.054     2.269     2.356

molecular dipole:
                 x           y           z       tot (Debye)
 q only:       -5.504       1.609      -1.325
   full:       -5.769       1.844      -0.528      15.452

 projected vibrational frequencies (cm⁻¹)
eigval :       -0.00    -0.00    -0.00    -0.00     0.00     0.00
eigval :        3.18     4.77     6.57     9.99    14.09    15.80
eigval :       18.56    20.62    21.23    24.40    25.51    27.84
eigval :       30.52    31.01    34.08    38.14    39.15    49.27
eigval :       51.23    53.74    57.67    64.51    66.29    69.69
eigval :       76.42    79.66    86.37    91.14    95.55   102.21
eigval :      102.45   108.95   114.66   131.66   143.03   145.90
eigval :      151.42   154.17   160.72   164.67   170.49   171.51
eigval :      173.38   177.65   180.41   192.98   204.41   204.97
eigval :      215.89   218.57   220.95   223.77   227.26   231.63
eigval :      234.04   241.78   249.17   255.43   262.62   276.55
eigval :      279.63   284.27   285.75   292.81   299.92   308.55
eigval :      312.77   314.05   316.18   328.39   337.50   340.68
eigval :      350.69   354.11   360.95   362.99   364.74   367.30
eigval :      368.48   371.24   376.01   380.84   383.20   383.81
eigval :      389.27   389.89   392.88   393.57   401.80   408.05
eigval :      408.56   411.53   418.93   424.05   431.34   433.37
eigval :      436.49   445.42   452.40   456.41   460.78   469.93
eigval :      491.53   495.76   499.29   502.96   513.60   516.83
eigval :      523.30   531.66   540.44   549.34   556.35   568.94
eigval :      583.61   584.28   584.68   585.21   587.85   594.42
eigval :      602.12   604.76   605.08   607.97   608.95   615.57
eigval :      622.50   639.22   654.89   656.07   658.57   659.23
eigval :      660.54   674.60   681.57   689.35   690.24   690.76
eigval :      692.93   701.75   710.82   713.07   715.09   716.31
eigval :      717.79   734.71   740.47   743.17   747.48   749.95
eigval :      758.35   760.62   801.81   808.98   812.63   816.02
eigval :      817.83   819.88   829.24   833.04   853.16   861.60
eigval :      862.77   866.12   866.26   873.50   874.14   877.79
eigval :      880.18   881.29   884.53   898.17   902.32   905.11
eigval :      909.67   910.31   913.39   914.94   918.65   919.90
eigval :      922.75   923.64   926.43   926.69   927.14   927.83
eigval :      929.10   929.56   930.83   931.94   934.22   935.33
eigval :      938.04   942.61   949.48   958.67   959.10   960.80
eigval :      962.26   962.42   964.51   970.05   971.84   973.64
eigval :      975.29   978.12  1008.37  1021.84  1028.67  1032.06
eigval :     1033.47  1034.04  1034.55  1048.18  1056.29  1073.86
eigval :     1075.20  1077.50  1078.05  1086.14  1104.72  1107.28
eigval :     1107.54  1114.35  1114.51  1119.12  1119.45  1121.90
eigval :     1123.34  1125.43  1138.96  1139.36  1142.43  1149.40
eigval :     1150.03  1151.53  1152.46  1158.93  1175.96  1176.30
eigval :     1176.56  1177.07  1177.86  1182.10  1185.25  1186.02
eigval :     1187.07  1189.89  1194.19  1194.73  1202.55  1209.74
eigval :     1211.12  1222.27  1222.48  1222.65  1226.09  1227.12
eigval :     1229.06  1229.92  1230.32  1247.77  1252.08  1260.02
eigval :     1263.05  1264.72  1266.72  1270.06  1271.27  1271.70
eigval :     1275.01  1275.86  1279.42  1286.95  1287.62  1297.70
eigval :     1300.33  1310.59  1313.34  1315.65  1316.94  1318.58
eigval :     1318.92  1320.44  1321.95  1325.83  1327.21  1369.28
eigval :     1391.67  1397.32  1399.91  1399.97  1401.56  1403.15
eigval :     1406.60  1413.36  1416.94  1419.81  1420.28  1420.64
eigval :     1422.41  1424.85  1425.80  1426.26  1426.91  1446.56
eigval :     1447.29  1448.86  1449.27  1451.83  1471.45  1472.19
eigval :     1476.39  1486.51  1487.26  1488.32  1489.21  1496.19
eigval :     1497.03  1500.18  1501.03  1503.15  1509.64  1510.21
eigval :     1514.06  1514.61  1519.99  1526.38  1538.37  1539.88
eigval :     1543.76  1549.92  1550.27  1553.52  1558.38  1577.26
eigval :     1579.40  1579.72  1580.69  1581.14  1581.39  1581.92
eigval :     1582.07  1582.30  1582.58  1593.24  2332.30  2802.02
eigval :     2862.14  3022.44  3022.76  3022.77  3023.25  3026.67
eigval :     3026.83  3026.99  3027.18  3031.02  3031.08  3032.92
eigval :     3033.39  3038.34  3038.40  3045.46  3045.91  3049.12
eigval :     3050.22  3067.33  3068.52  3069.51  3070.15  3071.46
eigval :     3075.31  3075.83  3076.70  3077.84  3078.50  3080.96
eigval :     3081.27  3081.75  3081.79  3082.32  3083.38  3084.20
eigval :     3084.84  3084.92  3085.76  3086.05  3086.81  3087.88
eigval :     3088.51  3091.71  3091.85  3092.12  3093.71  3094.20
eigval :     3094.25  3096.42  3097.70  3098.42  3099.13  3103.45
eigval :     3119.82  3120.64  3124.01

   temp. (K)  partition function   enthalpy   heat capacity  entropy
                                   cal/mol     cal/K/mol   cal/K/mol   J/K/mol
 298.15  VIB  0.439E+38            43426.385    257.439    277.392
         ROT  0.518E+09              888.752      2.981     42.855
         INT  0.227E+47            44315.137    260.419    320.247
         TR   0.336E+29             1481.254      4.968     46.749
         TOT                       45796.3912   265.3876   366.9958  1535.5106

       T/K    H(0)-H(T)+PV         H(T)/Eh          T*S/Eh         G(T)/Eh
   ------------------------------------------------------------------------
    298.15    0.729812E-01    0.113758E+01    0.174372E+00    0.963210E+00
   ------------------------------------------------------------------------

         :::::::::::::::::::::::::::::::::::::::::::::::::::::
         ::                  THERMODYNAMIC                  ::
         :::::::::::::::::::::::::::::::::::::::::::::::::::::
         :: total free energy        -207.214991558056 Eh   ::
         ::.................................................::
         :: total energy             -208.178201180349 Eh   ::
         :: zero point energy           1.064599996929 Eh   ::
         :: G(RRHO) w/o ZPVE           -0.101390374636 Eh   ::
         :: G(RRHO) contrib.            0.963209622293 Eh   ::
         :::::::::::::::::::::::::::::::::::::::::::::::::::::

           -------------------------------------------------
          | TOTAL ENERGY             -208.178201180349 Eh   |
          | TOTAL ENTHALPY           -207.040619988646 Eh   |
          | TOTAL FREE ENERGY        -207.214991558056 Eh   |
          | GRADIENT NORM               0.000169198759 Eh/α |
          | HOMO-LUMO GAP               1.043357852490 eV   |
           -------------------------------------------------

 * finished run on 2025/08/24 at 12:15:51.202
