   * xtb version 6.7.1 (edcfbbe) compiled by 'albert@albert-system' on 2024-07-22

   ID    Z sym.   atoms
    1    6 C      1-8, 10-20, 23-27, 30-41, 43, 44, 46, 49-64, 66-79
    2    7 N      9, 21, 22, 42, 45, 65
    3   15 P      28, 47
    4    8 O      29, 48
    5    1 H      80-137

          program call               : xtb data2507/toluene/PO-TPA/PO-TPA.xyz --gfn 2 --gbsa toluene --ohess vtight --parallel 40 --molden --ceasefiles --namespace data2507/toluene/PO-TPA/PO-TPA_toluene_S0_preOpt
      * Solvation model:               GBSA
        Solvent                        toluene
        Solvent mass                       9.2140E+01 g/mol
          :  Hamiltonian                  GFN2-xTB          :
 * total energy  :  -208.1507367 Eh     change       -0.2944651E-07 Eh
 * total energy  :  -208.1758263 Eh     change       -0.2508961E-01 Eh
 * total energy  :  -208.1847755 Eh     change       -0.8949240E-02 Eh
 * total energy  :  -208.1875583 Eh     change       -0.2782738E-02 Eh
 * total energy  :  -208.1894041 Eh     change       -0.1845843E-02 Eh
 * total energy  :  -208.1908826 Eh     change       -0.1478536E-02 Eh
 * total energy  :  -208.1915592 Eh     change       -0.6765433E-03 Eh
 * total energy  :  -208.1923146 Eh     change       -0.7553835E-03 Eh
 * total energy  :  -208.1928990 Eh     change       -0.5844600E-03 Eh
 * total energy  :  -208.1935084 Eh     change       -0.6093787E-03 Eh
 * total energy  :  -208.1995042 Eh     change       -0.4691846E-06 Eh
 * total energy  :  -208.1995047 Eh     change       -0.5581988E-06 Eh
 * total energy  :  -208.1995054 Eh     change       -0.6700115E-06 Eh
 * total energy  :  -208.1995062 Eh     change       -0.7801216E-06 Eh
 * total energy  :  -208.1995070 Eh     change       -0.8121093E-06 Eh
 * total energy  :  -208.1995078 Eh     change       -0.7411826E-06 Eh
 * total energy  :  -208.1995084 Eh     change       -0.6646334E-06 Eh
 * total energy  :  -208.1995090 Eh     change       -0.6225563E-06 Eh
 * total energy  :  -208.1995090 Eh     change       -0.3807514E-08 Eh
   *** GEOMETRY OPTIMIZATION CONVERGED AFTER 260 ITERATIONS ***

 final structure:
================
137
 xtb: 6.7.1 (edcfbbe)
C          -12.28964905659027       -2.64119197060167       -1.42526126551537
C          -11.23025247495719       -3.45223384700457       -0.66383704562196
C          -10.97453462291824       -4.75024990597122       -1.43563483846368
C          -11.76020972762941       -3.82077972366996        0.73023333907863
C           -9.97665956334384       -2.60603165063000       -0.50912871483558
C           -8.73882859981723       -2.98061416071335       -1.02110209437324
C           -7.61937022928190       -2.18486377275454       -0.86239658788710
C           -7.70167863515834       -0.97998276458326       -0.17120675551199
N           -6.57277126802062       -0.15781882961328       -0.00717921020342
C           -5.33865191737811       -0.70195917585511        0.28122193926933
C           -5.23436938492410       -1.91867856738561        0.96996173158222
C           -4.00614034884526       -2.47755827208581        1.22993417962102
C           -2.82591404437348       -1.84085221176632        0.83302660081637
C           -1.51792761299427       -2.42260151133196        1.10949459163264
C           -0.48188077300784       -1.66669225017542        1.56680814603200
C            0.78397119666770       -2.24106784924645        1.89498645471896
C            1.02392936533677       -3.65269904611829        1.53502059178037
C           -0.09480414173725       -4.42990183302879        1.08547880855278
C           -1.30385259496712       -3.84349430071673        0.88048816395959
C           -2.33396323994549       -4.63951791881689        0.32582651119381
N           -3.12038526694645       -5.32659833010025       -0.15034921015096
N            2.19450785741401       -4.18460754964943        1.57568030025017
C            3.29250595968966       -3.31477868673860        1.92340824851444
C            3.85064777451463       -2.66515751111600        0.67498745487663
C            3.67548240076776       -3.22684225705411       -0.58287542957662
C            4.20467670274089       -2.57740252797114       -1.68275656826811
C            4.90482021975809       -1.39319744423809       -1.48030023889354
P            5.45166630977314       -0.49729241507920       -2.98240222832216
O            4.28354693132307       -0.04598051427106       -3.76470077000098
C            6.48296277260319       -1.70499776912823       -3.87153576202372
C            6.34447669981382       -1.77781583209956       -5.25067555422008
C            7.12464506875817       -2.65903902251672       -5.97882069815153
C            8.04418457170492       -3.46517117986973       -5.32723144768208
C            8.18343243330627       -3.39287699984802       -3.94923488629565
C            7.40588609180162       -2.51318566238659       -3.21876932285530
C            6.57218405594946        0.84130081338911       -2.49644766760502
C            6.44401410383458        2.04451107884559       -3.17859349232395
C            7.32825695376821        3.07841086828375       -2.92619766617037
C            8.33821577941039        2.90786216822555       -1.99307840255755
C            8.46337546648921        1.70798492592295       -1.31022432523569
C            7.58642263456465        0.66949822979210       -1.56428747334349
N            5.08861440164900       -0.85539826644108       -0.28900909721647
C            4.57413382362198       -1.46954278970725        0.77292369983850
C            4.77647500158332       -0.85612954453880        2.09016617464767
N            5.73918613382855        0.04708657547067        2.21565364302283
C            5.92051084198738        0.62926803551912        3.39016790598025
P            7.23192211656784        1.89322300328978        3.51467521118862
O            7.33683455555914        2.46001594604846        4.87253514071430
C            8.75395531657540        1.06441505184467        2.96384600518775
C            9.91144356034077        1.31560204530262        3.68851188941424
C           11.10348524647461        0.72249528007012        3.31048627396615
C           11.13498447860206       -0.12131433049912        2.21182190864828
C            9.97638451152404       -0.37390114934152        1.49252489807825
C            8.78254876095027        0.22042214657299        1.86153006138791
C            6.80245078916018        3.12982429782264        2.24901619539852
C            6.21437482962703        2.80541930384299        1.03361109970429
C            5.88617087417572        3.81680615553353        0.14832025104085
C            6.16314835371528        5.13866024973758        0.45975856834073
C            6.76434983012938        5.45878579835674        1.66673284045800
C            7.07779999158122        4.45458425575520        2.56500491635478
C            5.15201023908565        0.33326541311571        4.50935712673509
C            4.15292793054365       -0.61740473211857        4.38733663001382
C            3.95723630332367       -1.23464599580894        3.16040719935786
C            2.86952788245689       -2.24964512596472        2.94752844163722
N            1.65614587375744       -1.56100086364241        2.55836557444986
C           -2.92953459534562       -0.60909002764032        0.17775006339531
C           -4.15508641064383       -0.05600295594735       -0.10542097111063
C           -6.73671822417427        1.23089232019265       -0.15091870128466
C           -6.10906548252705        2.12050615200170        0.71871387382035
C           -6.29305712396961        3.47977231110461        0.57381766512354
C           -7.10683069822795        4.00949077291167       -0.42706821042239
C           -7.27438659080520        5.51641098050669       -0.53924922023399
C           -8.20025379445207        5.92345947160746       -1.68955084609532
C           -5.89840017386272        6.15462650710524       -0.78249048169749
C           -7.87210962784264        6.05312437709449        0.77024524487311
C           -7.73284804482859        3.10924058084855       -1.28279760568843
C           -7.55309006969887        1.74469482683164       -1.15333084932789
C           -8.93609698815255       -0.59002617062884        0.34365376144101
C          -10.04542655046797       -1.39119594163740        0.17209126737229
H          -13.18948141643224       -3.23729837192953       -1.56138322076269
H          -12.55954607510199       -1.73645687060359       -0.88762141942654
H          -11.91279315944747       -2.35664425128266       -2.40579953430840
H          -10.24458133988280       -5.37349359440837       -0.92395116488951
H          -10.62405513664835       -4.54466734968370       -2.44457598305243
H          -11.90195406156629       -5.31448135438016       -1.51173224746343
H          -12.02059070574869       -2.93558680328337        1.30390360676405
H          -12.64958055153146       -4.44077491994682        0.63938491387189
H          -11.00701370281553       -4.37770624505191        1.28433333485345
H           -8.62480531724717       -3.90413184236506       -1.56410109900809
H           -6.67402629518465       -2.49735614728717       -1.28221617933277
H           -6.13016458526905       -2.41347388578350        1.31269176681248
H           -3.95782019759982       -3.39974056837847        1.78986518975318
H           -0.61129821038201       -0.61705471554119        1.77995950228839
H            0.07628315661170       -5.47222556344071        0.85955822066948
H            4.07886771076735       -3.95172782256849        2.35609266033714
H            3.12982870012229       -4.15353697101796       -0.68683231439284
H            4.08519282845995       -2.95976810443606       -2.68669858801045
H            5.61391188493553       -1.14231150622692       -5.73192293392341
H            7.01490994209775       -2.71735821300616       -7.05166237122328
H            8.65360849709611       -4.15362308486296       -5.89360954369794
H            8.89862025759339       -4.02538297713743       -3.44418506496154
H            7.50227341987971       -2.45645524560971       -2.14389268968114
H            5.64265197579157        2.15203726254738       -3.89711814425028
H            7.22947519179588        4.01465405227268       -3.45565120332414
H            9.02931819134919        3.71334083879291       -1.79402024388581
H            9.24643964740965        1.58345449813038       -0.57748818323959
H            7.67207600926533       -0.26725199195700       -1.03709482539936
H            9.85723091370425        1.96913267506080        4.54817226672866
H           12.00491094315650        0.91709547115560        3.87279976874120
H           12.06425844003277       -0.58582234971191        1.91619935530501
H           10.00722836497369       -1.03533615491747        0.63879098368923
H            7.86768145386202        0.03407149004398        1.32071866658547
H            6.00063068940692        1.77495340200251        0.79266101138646
H            5.41117276490495        3.56674133699901       -0.78845169600574
H            5.90547722402480        5.92151743799035       -0.23825528600001
H            6.98028979492155        6.48842047530026        1.91156007741321
H            7.52484752537592        4.68020538315688        3.52350530035701
H            5.35174720851628        0.84703626133267        5.43750327204808
H            3.52898558715373       -0.87819162162987        5.23031975092572
H            2.65488467919401       -2.74301992125592        3.91142180198757
H           -2.02970476656983       -0.11009989115715       -0.15048394281327
H           -4.21102062703275        0.87435750670100       -0.64995352202094
H           -5.48480083297275        1.73924973895315        1.51387417620930
H           -5.79242070556857        4.13693976623824        1.26829399008985
H           -7.80737646480661        5.58786526066242       -2.64665201311801
H           -8.27994897930383        7.00822593664239       -1.72240037992817
H           -9.19999082537155        5.51826158384624       -1.55058769466807
H           -5.99894748598319        7.23363188277244       -0.87898926046224
H           -5.21425230529109        5.94933664187633        0.03627909988250
H           -5.45947871499976        5.76602440724204       -1.69952414499926
H           -7.22088459778205        5.85204199112920        1.61637467031366
H           -8.83678044228126        5.58758370963099        0.96299216323613
H           -8.01640148351690        7.12921865189157        0.70084018760878
H           -8.37164326537652        3.45964189626972       -2.07639124110413
H           -8.04631844144798        1.06849389448702       -1.83628485417373
H           -9.01776162247685        0.34222788731369        0.88323199169394
H          -10.98304380605218       -1.05741078624759        0.58915830508709

          :  Hamiltonian                  GFN2-xTB          :
         :: gradient norm              0.000079858019 Eh/a0 ::
         :: HOMO-LUMO gap              0.378721302761 eV    ::
         :: SCC energy              -211.812916974255 Eh    ::
         :: -> dispersion             -0.200631326593 Eh    ::
         :: -> Gsolv                  -0.095197233596 Eh    ::
         :: repulsion energy           3.613407931798 Eh    ::

    * Orbital Energies and Occupations

         #    Occupation            Energy/Eh            Energy/eV
      -------------------------------------------------------------
         1        2.0000           -0.7052427             -19.1906
       ...           ...                  ...                  ...
       181        2.0000           -0.4138751             -11.2621
       182        2.0000           -0.4121937             -11.2164
       183        2.0000           -0.4116860             -11.2025
       184        2.0000           -0.4099166             -11.1544
       185        2.0000           -0.4078390             -11.0979
       186        2.0000           -0.4071475             -11.0790
       187        2.0000           -0.4039978             -10.9933
       188        2.0000           -0.4016784             -10.9302
       189        2.0000           -0.4004830             -10.8977
       190        2.0000           -0.3902904             -10.6203
       191        2.0000           -0.3843004             -10.4573
       192        2.0000           -0.3707671             -10.0891
       193        1.9987           -0.3581048              -9.7445 (HOMO)
       194        0.0013           -0.3441877              -9.3658 (LUMO)
       195                         -0.2977747              -8.1029
       196                         -0.2785467              -7.5796
       197                         -0.2757492              -7.5035
       198                         -0.2736329              -7.4459
       199                         -0.2608262              -7.0974
       200                         -0.2551240              -6.9423
       201                         -0.2514969              -6.8436
       202                         -0.2401963              -6.5361
       203                         -0.2387585              -6.4970
       204                         -0.2387061              -6.4955
       ...                                ...                  ...
       384                          1.1857435              32.2657
      -------------------------------------------------------------
                  HL-Gap            0.0139171 Eh            0.3787 eV

     #   Z          covCN         q      C6AA      α(0)
     1   6 C        3.761    -0.106    22.580     6.774
     2   6 C        3.902     0.026    20.078     6.369
     3   6 C        3.761    -0.109    22.627     6.781
     4   6 C        3.761    -0.106    22.577     6.773
     5   6 C        2.972     0.009    27.818     8.651
     6   6 C        2.925    -0.038    28.937     8.822
     7   6 C        2.920    -0.046    29.139     8.852
     8   6 C        2.927     0.058    26.708     8.475
     9   7 N        2.752    -0.051    22.225     7.002
    10   6 C        2.922     0.072    26.399     8.426
    11   6 C        2.920    -0.046    29.154     8.854
    12   6 C        2.921    -0.028    28.698     8.785
    13   6 C        2.977    -0.001    28.046     8.687
    14   6 C        2.970     0.019    27.571     8.613
    15   6 C        2.920    -0.058    29.439     8.898
    16   6 C        2.923     0.097    25.855     8.339
    17   6 C        2.930     0.100    25.781     8.327
    18   6 C        2.932    -0.033    28.829     8.806
    19   6 C        2.966     0.024    27.470     8.597
    20   6 C        1.918     0.125    28.032     8.551
    21   7 N        0.911    -0.246    26.407     7.432
    22   7 N        1.841    -0.270    27.869     7.824
    23   6 C        3.832     0.058    19.577     6.295
    24   6 C        2.976    -0.005    28.136     8.701
    25   6 C        2.927    -0.019    28.474     8.751
    26   6 C        3.016    -0.033    28.792     8.802
    27   6 C        2.906     0.105    25.687     8.310
    28  15 P        4.092     0.048   158.114    22.588
    29   8 O        0.808    -0.391    21.520     6.218
    30   6 C        2.921     0.008    27.842     8.653
    31   6 C        3.020    -0.019    28.462     8.751
    32   6 C        2.919    -0.025    28.638     8.776
    33   6 C        2.920    -0.023    28.570     8.765
    34   6 C        2.919    -0.025    28.637     8.775
    35   6 C        2.979    -0.025    28.620     8.775
    36   6 C        2.922     0.022    27.509     8.601
    37   6 C        3.033    -0.019    28.449     8.749
    38   6 C        2.919    -0.025    28.627     8.774
    39   6 C        2.921    -0.021    28.536     8.760
    40   6 C        2.920    -0.023    28.587     8.768
    41   6 C        2.980    -0.018    28.459     8.751
    42   7 N        1.905    -0.225    26.750     7.668
    43   6 C        2.970     0.092    25.961     8.358
    44   6 C        2.969     0.092    25.950     8.356
    45   7 N        1.927    -0.221    26.645     7.654
    46   6 C        2.904     0.100    25.778     8.325
    47  15 P        4.088     0.046   158.176    22.592
    48   8 O        0.808    -0.394    21.587     6.228
    49   6 C        2.922     0.016    27.659     8.624
    50   6 C        3.024    -0.020    28.478     8.754
    51   6 C        2.919    -0.027    28.671     8.781
    52   6 C        2.920    -0.024    28.606     8.771
    53   6 C        2.920    -0.026    28.656     8.778
    54   6 C        2.978    -0.030    28.743     8.794
    55   6 C        2.922     0.017    27.638     8.621
    56   6 C        2.970    -0.029    28.727     8.792
    57   6 C        2.921    -0.025    28.624     8.773
    58   6 C        2.920    -0.023    28.590     8.768
    59   6 C        2.919    -0.027    28.678     8.782
    60   6 C        3.033    -0.021    28.487     8.755
    61   6 C        2.994    -0.032    28.785     8.801
    62   6 C        2.928    -0.017    28.424     8.743
    63   6 C        2.979    -0.007    28.186     8.709
    64   6 C        3.829     0.064    19.490     6.282
    65   7 N        1.842    -0.290    28.371     7.894
    66   6 C        2.922    -0.030    28.755     8.794
    67   6 C        2.919    -0.047    29.170     8.857
    68   6 C        2.926     0.058    26.704     8.474
    69   6 C        2.920    -0.046    29.151     8.854
    70   6 C        2.927    -0.034    28.843     8.807
    71   6 C        2.972     0.009    27.821     8.652
    72   6 C        3.902     0.026    20.078     6.369
    73   6 C        3.761    -0.109    22.631     6.782
    74   6 C        3.761    -0.106    22.572     6.773
    75   6 C        3.761    -0.106    22.576     6.773
    76   6 C        2.925    -0.038    28.940     8.822
    77   6 C        2.921    -0.045    29.125     8.850
    78   6 C        2.920    -0.045    29.128     8.850
    79   6 C        2.927    -0.034    28.841     8.807
    80   1 H        0.925     0.041     2.440     2.443
    81   1 H        0.925     0.039     2.467     2.456
    82   1 H        0.925     0.034     2.526     2.485
    83   1 H        0.925     0.037     2.487     2.466
    84   1 H        0.925     0.037     2.485     2.465
    85   1 H        0.925     0.039     2.459     2.452
    86   1 H        0.925     0.038     2.471     2.458
    87   1 H        0.925     0.041     2.440     2.443
    88   1 H        0.925     0.034     2.534     2.490
    89   1 H        0.926     0.047     2.356     2.401
    90   1 H        0.926     0.034     2.524     2.484
    91   1 H        0.926     0.047     2.360     2.402
    92   1 H        0.926     0.036     2.504     2.475
    93   1 H        0.926     0.057     2.233     2.337
    94   1 H        0.926     0.064     2.155     2.296
    95   1 H        0.923     0.040     2.443     2.444
    96   1 H        0.926     0.057     2.237     2.339
    97   1 H        0.926     0.056     2.248     2.345
    98   1 H        0.925     0.051     2.307     2.375
    99   1 H        0.926     0.049     2.338     2.391
   100   1 H        0.926     0.051     2.307     2.375
   101   1 H        0.926     0.049     2.328     2.386
   102   1 H        0.926     0.039     2.463     2.454
   103   1 H        0.925     0.052     2.294     2.369
   104   1 H        0.926     0.049     2.333     2.389
   105   1 H        0.926     0.049     2.338     2.391
   106   1 H        0.926     0.048     2.339     2.392
   107   1 H        0.926     0.051     2.307     2.375
   108   1 H        0.925     0.051     2.305     2.374
   109   1 H        0.926     0.047     2.358     2.401
   110   1 H        0.926     0.049     2.328     2.386
   111   1 H        0.926     0.047     2.363     2.404
   112   1 H        0.926     0.065     2.141     2.288
   113   1 H        0.926     0.063     2.162     2.299
   114   1 H        0.926     0.041     2.441     2.443
   115   1 H        0.926     0.050     2.326     2.385
   116   1 H        0.926     0.049     2.337     2.391
   117   1 H        0.925     0.052     2.295     2.369
   118   1 H        0.926     0.068     2.109     2.271
   119   1 H        0.926     0.057     2.230     2.335
   120   1 H        0.923     0.031     2.573     2.509
   121   1 H        0.926     0.041     2.435     2.440
   122   1 H        0.926     0.047     2.357     2.401
   123   1 H        0.926     0.035     2.523     2.484
   124   1 H        0.926     0.039     2.457     2.451
   125   1 H        0.925     0.037     2.484     2.465
   126   1 H        0.925     0.039     2.458     2.452
   127   1 H        0.925     0.038     2.475     2.460
   128   1 H        0.925     0.041     2.441     2.443
   129   1 H        0.925     0.037     2.483     2.464
   130   1 H        0.925     0.034     2.535     2.490
   131   1 H        0.925     0.038     2.479     2.462
   132   1 H        0.925     0.035     2.523     2.484
   133   1 H        0.925     0.041     2.440     2.443
   134   1 H        0.926     0.048     2.348     2.396
   135   1 H        0.926     0.037     2.494     2.470
   136   1 H        0.926     0.036     2.498     2.472
   137   1 H        0.926     0.041     2.439     2.442

molecular dipole:
                 x           y           z       tot (Debye)
 q only:       -2.057       0.690      -1.564
   full:       -2.157       0.148      -1.066       6.126

 projected vibrational frequencies (cm⁻¹)
eigval :       -0.00    -0.00    -0.00     0.00     0.00     0.00
eigval :        4.03     6.07     7.17     9.10    15.61    16.97
eigval :       22.05    23.43    25.67    26.85    28.37    29.38
eigval :       30.71    32.03    36.93    38.78    41.50    44.55
eigval :       48.36    57.66    62.29    66.65    70.99    73.95
eigval :       82.57    84.04    90.62    93.42    95.89   102.39
eigval :      107.94   113.75   121.33   130.52   141.14   144.62
eigval :      146.22   147.91   151.77   167.00   170.30   170.43
eigval :      175.91   179.12   181.05   192.53   200.65   205.10
eigval :      212.42   218.17   221.94   225.04   226.20   235.09
eigval :      238.28   239.97   244.14   248.48   263.74   270.66
eigval :      282.58   285.41   286.45   287.73   300.63   308.56
eigval :      312.39   313.64   315.78   318.11   328.52   340.31
eigval :      353.18   355.19   360.70   362.58   364.77   367.86
eigval :      368.75   370.77   375.72   378.11   382.77   383.15
eigval :      385.29   389.70   391.31   393.35   398.37   402.33
eigval :      405.10   409.96   411.10   416.98   435.22   436.94
eigval :      445.45   450.54   451.51   458.40   464.11   480.35
eigval :      487.42   490.79   499.02   507.18   512.63   521.35
eigval :      527.07   532.71   538.28   554.30   557.91   565.19
eigval :      581.94   584.47   584.90   585.88   586.94   599.27
eigval :      603.75   605.13   606.08   610.41   612.87   616.74
eigval :      625.50   653.99   655.85   656.52   659.30   659.70
eigval :      666.02   684.10   688.88   689.38   691.26   691.51
eigval :      701.04   710.54   714.90   715.40   717.96   721.08
eigval :      723.73   735.44   740.31   741.81   745.94   748.09
eigval :      757.60   765.48   803.15   812.82   816.89   818.08
eigval :      821.22   829.02   833.03   858.68   863.21   864.64
eigval :      868.05   870.34   870.87   871.16   874.73   878.16
eigval :      880.01   881.06   881.90   900.53   903.68   904.50
eigval :      905.77   910.03   914.73   914.98   918.66   919.05
eigval :      920.07   924.59   926.13   926.58   926.67   928.48
eigval :      928.96   929.29   930.91   932.16   932.30   933.37
eigval :      934.74   939.06   959.34   959.89   960.43   962.19
eigval :      962.41   963.73   970.67   972.41   973.26   973.95
eigval :      974.97   982.96  1009.63  1023.91  1027.52  1033.32
eigval :     1034.24  1034.44  1035.76  1047.46  1062.57  1074.26
eigval :     1076.04  1077.75  1078.63  1091.27  1103.03  1106.25
eigval :     1109.51  1114.68  1115.78  1118.26  1120.43  1122.47
eigval :     1123.60  1125.10  1140.60  1141.62  1145.62  1150.60
eigval :     1151.13  1152.40  1153.83  1161.43  1175.82  1177.02
eigval :     1177.72  1179.16  1182.92  1184.21  1187.59  1187.97
eigval :     1190.48  1194.25  1196.63  1198.29  1199.35  1205.99
eigval :     1218.03  1219.52  1224.58  1224.78  1225.56  1226.55
eigval :     1227.70  1231.31  1231.70  1249.14  1253.70  1263.66
eigval :     1264.51  1265.39  1267.85  1270.68  1272.68  1273.68
eigval :     1277.60  1278.60  1281.13  1282.67  1287.73  1289.69
eigval :     1311.32  1311.73  1313.80  1318.89  1320.28  1320.48
eigval :     1320.77  1323.71  1324.59  1329.80  1345.17  1366.56
eigval :     1367.59  1396.99  1400.06  1401.90  1402.40  1406.62
eigval :     1407.47  1412.55  1419.91  1421.32  1422.08  1423.63
eigval :     1425.54  1426.17  1426.80  1426.88  1431.09  1447.30
eigval :     1448.99  1449.23  1451.19  1479.86  1480.58  1480.80
eigval :     1488.21  1488.43  1490.47  1490.89  1498.59  1498.81
eigval :     1502.10  1502.33  1508.00  1510.60  1511.18  1516.06
eigval :     1517.08  1532.42  1539.30  1546.31  1553.50  1556.05
eigval :     1561.10  1561.64  1565.23  1567.56  1579.29  1580.87
eigval :     1581.25  1581.57  1582.80  1582.95  1583.22  1584.26
eigval :     1593.54  1594.11  1598.43  1601.02  2354.66  2828.11
eigval :     2865.10  3021.80  3021.82  3022.17  3022.46  3025.43
eigval :     3025.87  3026.46  3026.57  3029.49  3030.09  3032.29
eigval :     3032.35  3037.73  3037.80  3045.32  3045.56  3048.15
eigval :     3048.81  3065.60  3066.44  3068.11  3069.36  3069.46
eigval :     3070.17  3071.80  3074.32  3077.08  3077.39  3077.98
eigval :     3078.83  3079.18  3080.37  3080.91  3081.89  3082.97
eigval :     3083.55  3083.88  3084.60  3084.82  3085.62  3087.52
eigval :     3088.88  3091.14  3091.74  3092.65  3093.01  3093.15
eigval :     3094.38  3096.07  3096.65  3099.97  3100.99  3101.75
eigval :     3102.35  3118.03  3118.29

   temp. (K)  partition function   enthalpy   heat capacity  entropy
                                   cal/mol     cal/K/mol   cal/K/mol   J/K/mol
 298.15  VIB  0.731E+37            43333.037    257.461    275.664
         ROT  0.516E+09              888.752      2.981     42.850
         INT  0.378E+46            44221.789    260.442    318.514
         TR   0.336E+29             1481.254      4.968     46.749
         TOT                       45703.0432   265.4098   365.2628  1528.2595

       T/K    H(0)-H(T)+PV         H(T)/Eh          T*S/Eh         G(T)/Eh
   ------------------------------------------------------------------------
    298.15    0.728324E-01    0.113891E+01    0.173548E+00    0.965358E+00
   ------------------------------------------------------------------------

         :::::::::::::::::::::::::::::::::::::::::::::::::::::
         ::                  THERMODYNAMIC                  ::
         :::::::::::::::::::::::::::::::::::::::::::::::::::::
         :: total free energy        -207.234150977655 Eh   ::
         ::.................................................::
         :: total energy             -208.199509043957 Eh   ::
         :: zero point energy           1.066073761884 Eh   ::
         :: G(RRHO) w/o ZPVE           -0.100715695582 Eh   ::
         :: G(RRHO) contrib.            0.965358066302 Eh   ::
         :::::::::::::::::::::::::::::::::::::::::::::::::::::

           -------------------------------------------------
          | TOTAL ENERGY             -208.199509043957 Eh   |
          | TOTAL ENTHALPY           -207.060602846708 Eh   |
          | TOTAL FREE ENERGY        -207.234150977655 Eh   |
          | GRADIENT NORM               0.000079388631 Eh/α |
          | HOMO-LUMO GAP               0.378704625905 eV   |
           -------------------------------------------------

 * finished run on 2025/08/24 at 10:31:08.736
