   * xtb version 6.7.1 (edcfbbe) compiled by 'albert@albert-system' on 2024-07-22

   ID    Z sym.   atoms
    1    7 N      1, 4, 7, 10, 19, 40
    2    6 C      2, 3, 5, 6, 8, 9, 11-18, 20-39, 41-58
    3    1 H      59-90

          program call               : xtb data2507/toluene/BMIM/BMIM_toluene_S0_finalOpt.xtbopt.xyz --gfn 2 --uhf 2 --gbsa toluene --ohess vtight --parallel 40 --molden --ceasefiles --namespace data2507/toluene/BMIM/BMIM_toluene_T1_preOpt
      * Solvation model:               GBSA
        Solvent                        toluene
        Solvent mass                       9.2140E+01 g/mol
          :  Hamiltonian                  GFN2-xTB          :
 * total energy  :  -145.1719105 Eh     change       -0.1623900E-07 Eh
 * total energy  :  -145.1736964 Eh     change       -0.1785950E-02 Eh
 * total energy  :  -145.1744623 Eh     change       -0.7658982E-03 Eh
 * total energy  :  -145.1744717 Eh     change       -0.9367894E-05 Eh
 * total energy  :  -145.1745959 Eh     change       -0.1242469E-03 Eh
 * total energy  :  -145.1746089 Eh     change       -0.1300549E-04 Eh
 * total energy  :  -145.1746043 Eh     change        0.4588890E-05 Eh
 * total energy  :  -145.1746227 Eh     change       -0.1833003E-04 Eh
 * total energy  :  -145.1746342 Eh     change       -0.1150056E-04 Eh
 * total energy  :  -145.1746463 Eh     change       -0.1212906E-04 Eh
 * total energy  :  -145.1747121 Eh     change       -0.8800984E-06 Eh
 * total energy  :  -145.1747129 Eh     change       -0.8760547E-06 Eh
 * total energy  :  -145.1747139 Eh     change       -0.9351226E-06 Eh
 * total energy  :  -145.1747148 Eh     change       -0.9366892E-06 Eh
 * total energy  :  -145.1747157 Eh     change       -0.9266408E-06 Eh
 * total energy  :  -145.1747166 Eh     change       -0.8771131E-06 Eh
 * total energy  :  -145.1747173 Eh     change       -0.6605017E-06 Eh
 * total energy  :  -145.1747178 Eh     change       -0.5737705E-06 Eh
 * total energy  :  -145.1747179 Eh     change       -0.1224777E-08 Eh
   *** GEOMETRY OPTIMIZATION CONVERGED AFTER 44 ITERATIONS ***

 final structure:
================
90
 xtb: 6.7.1 (edcfbbe)
N          -10.94030252716526       -1.87857355998719        0.48417580094149
C           -9.91972999679154       -1.35783984747281        0.35076874036187
C           -8.70152466336433       -0.69695514391505        0.18079372593757
N           -7.55797191612071       -1.35439379864083        0.35480298335534
C           -6.43258496035084       -0.71571482035972        0.18730529965136
C           -6.43192734791410        0.72061971576437       -0.19060596796458
N           -7.55672810855312        1.36025580806198       -0.35839461993163
C           -8.70088144602999        0.70379116048147       -0.18468200114270
C           -9.91846991698070        1.36571026029224       -0.35500446728348
N          -10.93856713428401        1.88733562781938       -0.48864800540853
C           -5.07553828528864        1.14030772757118       -0.29546820632530
C           -4.43488521755658        2.33638691525876       -0.60098811100557
C           -3.04862963191466        2.37096074112051       -0.52617981633161
C           -2.26167987300747        1.26711929943178       -0.19329415818745
C           -0.83835031833904        1.47618960712198        0.07951392937595
C           -0.01215221538541        2.17618159370185       -0.80152982491565
C            1.31009830047556        2.41068363437187       -0.49863124549318
C            1.85262774885419        1.97845314045273        0.71872107538976
N            3.18647832595207        2.22686328490596        1.02182121758304
C            3.92156309605106        1.37049944116856        1.84913537609857
C            4.88787234492443        1.89235509727977        2.71249104531908
C            5.63199464489449        1.04927265868133        3.51434322264316
C            5.42670721914804       -0.32136238230348        3.47371858147752
C            4.46470290924971       -0.84386617457331        2.62354551591089
C            3.71644726181532       -0.00993847376959        1.81624488126425
C            3.82350709103301        3.36172466332162        0.49304672630762
C            3.16959456041106        4.59384018957344        0.46582201418287
C            3.80637286485779        5.70298804305322       -0.05720108095663
C            5.09652776997932        5.60127923882702       -0.55486821753182
C            5.75036071687781        4.37904879275216       -0.52619112043057
C            5.12227360982599        3.26325769209015       -0.00716657068100
C            1.01983843211753        1.29880714250300        1.61566847374660
C           -0.29364771494357        1.04770792645331        1.29466081484353
C           -2.88452873736320        0.00097425584499       -0.00113477041154
C           -2.26278104970758       -1.26567513115061        0.19125919436524
C           -0.83949625351105       -1.47586597679373       -0.08093647576263
C           -0.29390083152147       -1.04781469407245       -1.29583266873218
C            1.01956424038581       -1.29986341703325       -1.61619413688955
C            1.85143167797928       -1.98006042316519       -0.71881543009552
N            3.18527037282939       -2.22939543314665       -1.02123918849639
C            3.82118181932339       -3.36475184421522       -0.49218157314131
C            3.16636626758076       -4.59639721053272       -0.46548440310790
C            3.80197862831813       -5.70603216178647        0.05792180208671
C            5.09187097717490       -5.60528072522858        0.55646121495714
C            5.74662179978664       -4.38353088708102        0.52825904476969
C            5.11968948838704       -3.26725146912867        0.00888616659322
C            3.92142899340144       -1.37343262424029       -1.84799949071015
C            4.88800932290344       -1.89580790273588       -2.71073595747391
C            5.63321773272844       -1.05311139370713       -3.51198508674941
C            5.42874864680889        0.31764651729827       -3.47138424760971
C            4.46646391755837        0.84066503855921       -2.62184704875954
C            3.71713587753462        0.00712729140647       -1.81514100026638
C            1.30800010772537       -2.41189584717196        0.49826907753256
C           -0.01423272600638       -2.17644371210954        0.80051600152848
C           -3.05074926824489       -2.36886504021802        0.52388747076187
C           -4.43699994831780       -2.33314627107498        0.59826025691443
C           -5.07657346773576       -1.13654234991624        0.29253279416616
C           -4.28333151288170        0.00155009127568       -0.00136028539836
H           -4.99970997142684        3.22084400315625       -0.85264051855458
H           -2.55030262849654        3.31663943323729       -0.68778454483874
H           -0.40932643453812        2.51075098964841       -1.74817130389434
H            1.93892588409086        2.92488739483258       -1.20967262054657
H            5.04189171793941        2.96015530652837        2.75749660508688
H            6.37164752115062        1.46616675291613        4.18151597030525
H            6.01016065741782       -0.97682877011699        4.10201202782037
H            4.30298868749355       -1.91055014868950        2.58131880071962
H            2.97307535221635       -0.42274110943553        1.15319337715907
H            2.16993904948624        4.67538766149599        0.86656735729494
H            3.29510451737729        6.65399457600689       -0.06860106986111
H            5.58955628444349        6.47097259951649       -0.96183425994274
H            6.75281527707332        4.29200275306037       -0.91768371598762
H            5.62501469612307        2.30783078968090        0.00438222485163
H            1.40589263815483        0.99307680568442        2.57620206549359
H           -0.92967459314332        0.54414817756838        2.00706513382532
H           -0.92920494301641       -0.54378819603573       -2.00854986540430
H            1.40632028482498       -0.99441575774766       -2.57653499970503
H            2.16691545246145       -4.67718759216522       -0.86689440273268
H            3.29003989213771       -6.65668224387708        0.06886437995509
H            5.58400231484941       -6.47535516495734        0.96369703975413
H            6.74886420452448       -4.29722888200132        0.92045894959500
H            5.62312306680133       -2.31218569154571       -0.00225986097596
H            5.04142016534686       -2.96369575566744       -2.75571567137969
H            6.37308967980500       -1.47040335291232       -4.17866566532797
H            6.01304683999274        0.97281130232609       -4.09920674842412
H            4.30535530607989        1.90744113432153       -2.57965179118834
H            2.97353197645933        0.42032605767439       -1.15259921763335
H            1.93610418895171       -2.92656864054919        1.20960992831576
H           -0.41211397188941       -2.51072828902128        1.74696106438076
H           -2.55325849118694       -3.31495327883227        0.68567186130615
H           -5.00262785420889       -3.21713678995579        0.84974700566968

          :  Hamiltonian                  GFN2-xTB          :
         :: gradient norm              0.000050701259 Eh/a0 ::
         :: HOMO-LUMO gap              0.545909666459 eV    ::
         :: SCC energy              -147.930531019457 Eh    ::
         :: -> dispersion             -0.145866570398 Eh    ::
         :: -> Gsolv                  -0.082279544130 Eh    ::
         :: repulsion energy           2.755813168633 Eh    ::

    * Orbital Energies and Occupations

         #    Occupation            Energy/Eh            Energy/eV
      -------------------------------------------------------------
         1        2.0000           -0.6881383             -18.7252
       ...           ...                  ...                  ...
       124        2.0000           -0.4210827             -11.4582
       125        2.0000           -0.4191744             -11.4063
       126        2.0000           -0.4180580             -11.3759
       127        2.0000           -0.4179906             -11.3741
       128        2.0000           -0.4164367             -11.3318
       129        2.0000           -0.4100259             -11.1574
       130        2.0000           -0.4077801             -11.0963
       131        2.0000           -0.3935593             -10.7093
       132        2.0000           -0.3879264             -10.5560
       133        1.9147           -0.3667028              -9.9785
       134        1.6517           -0.3650445              -9.9334
       135        1.4336           -0.3641955              -9.9103
       136        1.0000           -0.3112364              -8.4692 (HOMO)
       137        0.0000           -0.2911749              -7.9233 (LUMO)
       138                         -0.2755465              -7.4980
       139                         -0.2504029              -6.8138
       140                         -0.2460554              -6.6955
       141                         -0.2456775              -6.6852
       142                         -0.2439995              -6.6396
       143                         -0.2411877              -6.5631
       144                         -0.2398030              -6.5254
       145                         -0.2361822              -6.4268
       146                         -0.2360569              -6.4234
       147                         -0.2343552              -6.3771
       ...                                ...                  ...
       264                          1.1677796              31.7769
      -------------------------------------------------------------
                  HL-Gap            0.0200615 Eh            0.5459 eV

     #   Z          covCN         q      C6AA      α(0)
     1   7 N        0.911    -0.295    27.595     7.598
     2   6 C        1.909     0.104    28.524     8.625
     3   6 C        2.958     0.075    26.318     8.415
     4   7 N        1.842    -0.227    26.803     7.673
     5   6 C        3.052     0.073    26.325     8.415
     6   6 C        3.052     0.073    26.325     8.415
     7   7 N        1.842    -0.227    26.803     7.673
     8   6 C        2.958     0.075    26.318     8.415
     9   6 C        1.909     0.104    28.524     8.625
    10   7 N        0.911    -0.295    27.595     7.598
    11   6 C        3.029    -0.024    28.565     8.767
    12   6 C        2.908    -0.035    28.871     8.811
    13   6 C        2.925    -0.037    28.932     8.821
    14   6 C        2.975    -0.002    28.069     8.690
    15   6 C        2.976     0.016    27.644     8.624
    16   6 C        2.921    -0.032    28.793     8.799
    17   6 C        2.920    -0.045    29.109     8.848
    18   6 C        2.922     0.061    26.625     8.462
    19   7 N        2.752    -0.037    21.951     6.958
    20   6 C        2.924     0.062    26.600     8.458
    21   6 C        2.922    -0.042    29.036     8.837
    22   6 C        2.919    -0.026    28.642     8.776
    23   6 C        2.919    -0.030    28.761     8.794
    24   6 C        2.919    -0.026    28.642     8.776
    25   6 C        2.921    -0.044    29.093     8.845
    26   6 C        2.928     0.062    26.602     8.458
    27   6 C        2.921    -0.040    28.999     8.831
    28   6 C        2.919    -0.026    28.642     8.776
    29   6 C        2.919    -0.029    28.735     8.791
    30   6 C        2.919    -0.026    28.640     8.776
    31   6 C        2.921    -0.040    28.994     8.830
    32   6 C        2.918    -0.046    29.139     8.852
    33   6 C        2.924    -0.028    28.712     8.787
    34   6 C        2.976     0.006    27.888     8.662
    35   6 C        2.975    -0.002    28.069     8.690
    36   6 C        2.976     0.016    27.644     8.624
    37   6 C        2.924    -0.028    28.712     8.787
    38   6 C        2.918    -0.046    29.139     8.852
    39   6 C        2.922     0.061    26.625     8.462
    40   7 N        2.752    -0.037    21.951     6.959
    41   6 C        2.928     0.062    26.602     8.458
    42   6 C        2.921    -0.040    28.999     8.831
    43   6 C        2.919    -0.026    28.642     8.776
    44   6 C        2.919    -0.029    28.735     8.791
    45   6 C        2.919    -0.026    28.640     8.776
    46   6 C        2.921    -0.040    28.994     8.830
    47   6 C        2.924     0.062    26.600     8.458
    48   6 C        2.922    -0.042    29.036     8.837
    49   6 C        2.919    -0.026    28.642     8.776
    50   6 C        2.919    -0.030    28.761     8.794
    51   6 C        2.919    -0.026    28.642     8.776
    52   6 C        2.921    -0.044    29.093     8.845
    53   6 C        2.920    -0.045    29.109     8.848
    54   6 C        2.921    -0.032    28.793     8.799
    55   6 C        2.925    -0.037    28.932     8.821
    56   6 C        2.908    -0.035    28.871     8.811
    57   6 C        3.029    -0.024    28.565     8.767
    58   6 C        3.148    -0.009    27.974     8.652
    59   1 H        0.926     0.033     2.551     2.498
    60   1 H        0.926     0.040     2.447     2.446
    61   1 H        0.926     0.045     2.378     2.412
    62   1 H        0.926     0.048     2.345     2.395
    63   1 H        0.926     0.042     2.426     2.436
    64   1 H        0.926     0.043     2.410     2.428
    65   1 H        0.926     0.042     2.417     2.431
    66   1 H        0.926     0.043     2.415     2.430
    67   1 H        0.926     0.042     2.421     2.433
    68   1 H        0.926     0.043     2.415     2.430
    69   1 H        0.926     0.043     2.410     2.428
    70   1 H        0.926     0.043     2.416     2.430
    71   1 H        0.926     0.045     2.377     2.411
    72   1 H        0.926     0.045     2.379     2.412
    73   1 H        0.926     0.046     2.372     2.409
    74   1 H        0.926     0.040     2.448     2.447
    75   1 H        0.926     0.040     2.448     2.447
    76   1 H        0.926     0.046     2.372     2.409
    77   1 H        0.926     0.043     2.415     2.430
    78   1 H        0.926     0.043     2.410     2.428
    79   1 H        0.926     0.043     2.416     2.430
    80   1 H        0.926     0.045     2.377     2.411
    81   1 H        0.926     0.045     2.379     2.412
    82   1 H        0.926     0.042     2.426     2.436
    83   1 H        0.926     0.043     2.410     2.428
    84   1 H        0.926     0.042     2.417     2.431
    85   1 H        0.926     0.043     2.415     2.430
    86   1 H        0.926     0.042     2.421     2.433
    87   1 H        0.926     0.048     2.345     2.395
    88   1 H        0.926     0.045     2.378     2.412
    89   1 H        0.926     0.040     2.447     2.446
    90   1 H        0.926     0.033     2.551     2.498

molecular dipole:
                 x           y           z       tot (Debye)
 q only:       14.966      -0.006       0.003
   full:       15.324      -0.006       0.003      38.950

 projected vibrational frequencies (cm⁻¹)
eigval :       -0.00    -0.00    -0.00     0.00     0.00     0.00
eigval :       16.27    17.04    17.46    19.50    26.97    28.63
eigval :       40.52    43.82    50.99    51.65    56.24    62.75
eigval :       65.18    70.33    71.66    76.77    80.30    86.97
eigval :      100.73   100.80   114.34   119.93   135.95   140.98
eigval :      142.96   164.59   167.16   171.54   183.80   198.46
eigval :      220.19   232.69   233.79   238.78   241.09   281.84
eigval :      285.04   298.71   307.25   315.85   323.78   328.09
eigval :      347.65   352.69   361.73   376.13   376.81   378.75
eigval :      380.33   383.84   385.67   391.48   392.46   393.87
eigval :      413.58   421.57   423.52   423.59   455.20   462.91
eigval :      473.58   476.77   481.86   496.10   499.24   500.32
eigval :      513.65   523.41   528.93   537.71   551.04   572.20
eigval :      583.01   583.78   584.35   585.17   589.85   593.14
eigval :      594.17   605.02   610.29   610.51   627.33   630.24
eigval :      642.89   645.01   660.29   660.48   663.11   664.48
eigval :      671.17   684.96   690.23   696.31   698.54   719.60
eigval :      728.50   747.19   757.28   758.97   760.76   761.71
eigval :      772.45   808.42   809.00   821.86   822.54   834.68
eigval :      860.74   861.36   870.46   873.01   874.45   877.09
eigval :      894.73   896.23   898.99   900.38   901.30   901.39
eigval :      902.48   908.22   909.20   913.69   915.93   917.81
eigval :      926.08   926.39   929.94   929.98   930.16   930.89
eigval :      932.30   932.47   933.85   937.26   938.12   971.57
eigval :      984.13   990.11  1002.68  1002.84  1013.32  1018.42
eigval :     1064.79  1068.81  1078.66  1078.79  1082.08  1083.78
eigval :     1118.41  1119.18  1119.68  1121.84  1125.51  1128.87
eigval :     1141.72  1143.06  1153.60  1176.15  1177.03  1177.15
eigval :     1177.86  1178.00  1180.57  1183.68  1190.39  1190.58
eigval :     1192.05  1195.25  1208.00  1213.37  1216.51  1227.93
eigval :     1234.34  1263.89  1264.99  1266.87  1272.30  1273.06
eigval :     1273.48  1279.38  1281.33  1293.44  1293.61  1307.33
eigval :     1308.35  1312.47  1312.55  1321.01  1321.93  1322.38
eigval :     1324.69  1325.50  1337.84  1355.74  1356.00  1368.81
eigval :     1407.25  1413.35  1414.30  1425.70  1431.30  1431.38
eigval :     1436.87  1437.16  1457.19  1457.37  1458.30  1458.77
eigval :     1460.53  1470.34  1472.66  1476.81  1502.44  1530.84
eigval :     1531.88  1541.36  1543.96  1568.31  1568.33  1568.53
eigval :     1570.46  1572.47  1573.84  1579.03  1580.89  1580.91
eigval :     1587.84  1590.63  2295.78  2296.14  3071.23  3071.59
eigval :     3080.40  3080.42  3081.56  3081.65  3083.08  3083.17
eigval :     3084.16  3084.30  3084.62  3084.87  3085.91  3086.43
eigval :     3089.78  3089.83  3091.77  3091.98  3092.11  3092.58
eigval :     3094.10  3094.45  3095.62  3096.62  3097.44  3098.37
eigval :     3099.44  3099.76  3100.75  3101.00  3113.39  3115.28

   temp. (K)  partition function   enthalpy   heat capacity  entropy
                                   cal/mol     cal/K/mol   cal/K/mol   J/K/mol
 298.15  VIB  0.174E+22            27536.888    171.647    172.171
         ROT  0.667E+08              888.752      2.981     38.782
         INT  0.116E+30            28425.641    174.628    210.952
         TR   0.195E+29             1481.254      4.968     45.667
         TOT                       29906.8945   179.5964   256.6191  1073.6944

       T/K    H(0)-H(T)+PV         H(T)/Eh          T*S/Eh         G(T)/Eh
   ------------------------------------------------------------------------
    298.15    0.476597E-01    0.718736E+00    0.121928E+00    0.596808E+00
   ------------------------------------------------------------------------

         :::::::::::::::::::::::::::::::::::::::::::::::::::::
         ::                  THERMODYNAMIC                  ::
         :::::::::::::::::::::::::::::::::::::::::::::::::::::
         :: total free energy        -144.577910033502 Eh   ::
         ::.................................................::
         :: total energy             -145.174717850589 Eh   ::
         :: zero point energy           0.671076175203 Eh   ::
         :: G(RRHO) w/o ZPVE           -0.074268358116 Eh   ::
         :: G(RRHO) contrib.            0.596807817088 Eh   ::
         :::::::::::::::::::::::::::::::::::::::::::::::::::::

           -------------------------------------------------
          | TOTAL ENERGY             -145.174717850589 Eh   |
          | TOTAL ENTHALPY           -144.455982005379 Eh   |
          | TOTAL FREE ENERGY        -144.577910033502 Eh   |
          | GRADIENT NORM               0.000050228019 Eh/α |
          | HOMO-LUMO GAP               0.545902357321 eV   |
           -------------------------------------------------

 * finished run on 2025/07/16 at 22:17:39.523
