   * xtb version 6.7.1 (edcfbbe) compiled by 'albert@albert-system' on 2024-07-22

   ID    Z sym.   atoms
    1    7 N      1, 4, 7, 10, 19, 40
    2    6 C      2, 3, 5, 6, 8, 9, 11-18, 20-39, 41-58
    3    1 H      59-90

          program call               : xtb data2507/toluene/BMIM/BMIM_toluene_T1_crest.xyz --gfn 2 --uhf 2 --gbsa toluene --ohess vtight --parallel 40 --molden --ceasefiles --namespace data2507/toluene/BMIM/BMIM_toluene_T1_finalOpt
      * Solvation model:               GBSA
        Solvent                        toluene
        Solvent mass                       9.2140E+01 g/mol
          :  Hamiltonian                  GFN2-xTB          :
 * total energy  :  -145.1738308 Eh     change       -0.5004634E-07 Eh
 * total energy  :  -145.1742346 Eh     change       -0.4038045E-03 Eh
 * total energy  :  -145.1743863 Eh     change       -0.1517120E-03 Eh
 * total energy  :  -145.1744697 Eh     change       -0.8335350E-04 Eh
 * total energy  :  -145.1745499 Eh     change       -0.8024451E-04 Eh
 * total energy  :  -145.1744981 Eh     change        0.5181692E-04 Eh
 * total energy  :  -145.1745825 Eh     change       -0.8445076E-04 Eh
 * total energy  :  -145.1745937 Eh     change       -0.1114530E-04 Eh
 * total energy  :  -145.1746177 Eh     change       -0.2401611E-04 Eh
 * total energy  :  -145.1746393 Eh     change       -0.2161956E-04 Eh
 * total energy  :  -145.1747233 Eh     change       -0.2705417E-06 Eh
 * total energy  :  -145.1747236 Eh     change       -0.2829694E-06 Eh
 * total energy  :  -145.1747238 Eh     change       -0.2521701E-06 Eh
 * total energy  :  -145.1747241 Eh     change       -0.2443579E-06 Eh
 * total energy  :  -145.1747242 Eh     change       -0.1693353E-06 Eh
 * total energy  :  -145.1747244 Eh     change       -0.1443923E-06 Eh
 * total energy  :  -145.1747245 Eh     change       -0.1553122E-06 Eh
 * total energy  :  -145.1747247 Eh     change       -0.1487275E-06 Eh
 * total energy  :  -145.1747248 Eh     change       -0.9885096E-07 Eh
   *** GEOMETRY OPTIMIZATION CONVERGED AFTER 41 ITERATIONS ***

 final structure:
================
90
 xtb: 6.7.1 (edcfbbe)
N          -10.93861795829294       -1.87800719216204        0.48836163456441
C           -9.91798382190036       -1.35810010171433        0.35220830231038
C           -8.69972812700375       -0.69845375323774        0.17788368218775
N           -7.55619384919745       -1.35402793734244        0.35888923344612
C           -6.43080591612958       -0.71649737930741        0.18708430233738
C           -6.43013344129260        0.71647547352495       -0.20338127478012
N           -7.55492084163150        1.35429634183519       -0.37802209922718
C           -8.69907442410280        0.69901115073826       -0.19991983062459
C           -9.91665395350320        1.35900804699930       -0.37747600404567
N          -10.93671577871008        1.87925580960408       -0.51675707358096
C           -5.07374550310049        1.13559731472714       -0.31049893741422
C           -4.43311773062473        2.32912872582123       -0.62585544459131
C           -3.04693613869317        2.36460302365009       -0.55029505887872
C           -2.25999100721934        1.26388290718149       -0.20714875315982
C           -0.83695340449224        1.47600277807849        0.06485567242006
C           -0.01086483245298        2.16942296772033       -0.82148628056378
C            1.31063130539888        2.40868863040184       -0.51904162396999
C            1.85224702481036        1.98773265694764        0.70256243754925
N            3.18502427948571        2.24360232100622        1.00537189364226
C            3.92429874920258        1.39396406049473        1.83526253897561
C            4.89255327544341        1.92264704300349        2.69241197515666
C            5.64119736083910        1.08580680930258        3.49651817947676
C            5.43849658629270       -0.28545482530906        3.46482460101732
C            4.47419340404210       -0.81472182954126        2.62144305444819
C            3.72145586731677        0.01287765832866        1.81184164704856
C            3.81310305169854        3.38280909998831        0.47514933474526
C            3.14865494280741        4.60929734804528        0.44730776696891
C            3.77551781022592        5.72348543906950       -0.07687342732624
C            5.06614107976984        5.63235250648472       -0.57535548950556
C            5.73032184980099        4.41571592021178       -0.54634104572680
C            5.11222765173938        3.29491361242168       -0.02600743366139
C            1.02009496927638        1.31354459814179        1.60403116317586
C           -0.29281203404255        1.05806842856338        1.28390300889852
C           -2.88270276474877       -0.00064781310862       -0.00425410245186
C           -2.26085423081524       -1.26536973292731        0.19995171362340
C           -0.83723860996794       -1.47773619930061       -0.06888556887186
C           -0.29035458107247       -1.05986528928848       -1.28673058531385
C            1.02331757515589       -1.31518135989029       -1.60380414687020
C            1.85352047948444       -1.98905325630728       -0.70030559004137
N            3.18712093482967       -2.24442956043190       -0.99995100246030
C            3.81431371302435       -3.38345351632782       -0.46830137665254
C            3.15029050214565       -4.61021294591248       -0.44244240436674
C            3.77615787663040       -5.72421004622753        0.08332642861725
C            5.06536990036309       -5.63260435066148        0.58535746600049
C            5.72914325438909       -4.41570031056439        0.55829105215194
C            5.11204720863544       -3.29509373079956        0.03635897169260
C            3.92812734314382       -1.39417691966577       -1.82764002272950
C            4.89907783965534       -1.92200294377030       -2.68226365118706
C            5.64933317855202       -1.08444984384545       -3.48412591562912
C            5.44562313921064        0.28667023864299       -3.45267082459790
C            4.47866605553534        0.81508203973354       -2.61179539830222
C            3.72429472500818       -0.01323103147338       -1.80446484365689
C            1.30913196842086       -2.41009475954300        0.52002469049914
C           -0.01312189670942       -2.17104555950860        0.81937089350086
C           -3.04892439672679       -2.36582521859622        0.54133988356296
C           -4.43525116316293       -2.32980316349563        0.61395275654781
C           -5.07477963995984       -1.13603450415275        0.29726167941313
C           -4.28152214973603       -0.00033788419730       -0.00574003166875
H           -4.99791331226957        3.21120158651461       -0.88577875585449
H           -2.54868104324535        3.30891785373188       -0.71988122225262
H           -0.40756522623431        2.49513482810446       -1.77141130352352
H            1.93959984199846        2.91823521620584       -1.23333648902201
H            5.04450591356953        2.99098051025641        2.73101836133493
H            6.38234339306780        1.50819662575348        4.15856584345624
H            6.02554577896159       -0.93603778108477        4.09483705323337
H            4.31395324251261       -1.88191116227626        2.58653388880755
H            2.97628664001584       -0.40566048816969        1.15442801262868
H            2.14854388514676        4.68249833675043        0.84855015426146
H            3.25616113927300        6.67009429593183       -0.08846656100474
H            5.55148666243549        6.50595405474495       -0.98318024250639
H            6.73320009847713        4.33706180419103       -0.93854529640660
H            5.62315667824714        2.34384190105341       -0.01396882062657
H            1.40593575513452        1.01633214239978        2.56733331911207
H           -0.92889859846684        0.55971234734808        1.99989844171919
H           -0.92482229891663       -0.56161532173738       -2.00423082558423
H            1.41134823845563       -1.01800719455342       -2.56623944118805
H            2.15128011970859       -4.68373749650835       -0.84636116632141
H            3.25715722189375       -6.67103011479105        0.09339576888772
H            5.54995639209209       -6.50604750159134        0.99442736572598
H            6.73092894323259       -4.33669835324816        0.95321010957074
H            5.62263846983502       -2.34382360111464        0.02577185259319
H            5.05186510165275       -2.99022157653785       -2.72071716800124
H            6.39257191888122       -1.50616915709525       -4.14425012453457
H            6.03393864745619        0.93780767171911       -4.08092499967000
H            4.31760709481899        1.88215346497631       -2.57704811743498
H            2.97701093557831        0.40462297811466       -1.14902712454826
H            1.93653580965488       -2.91949637582797        1.23580166716489
H           -0.41198553542382       -2.49678183962957        1.76838139144399
H           -2.55138651010722       -3.31032664561773        0.71199190558205
H           -5.00093317039160       -3.21168579276694        0.87260062683398

          :  Hamiltonian                  GFN2-xTB          :
         :: gradient norm              0.000087436118 Eh/a0 ::
         :: HOMO-LUMO gap              0.546065025168 eV    ::
         :: SCC energy              -147.930531484238 Eh    ::
         :: -> dispersion             -0.145785806237 Eh    ::
         :: -> Gsolv                  -0.082292761955 Eh    ::
         :: repulsion energy           2.755806695118 Eh    ::

    * Orbital Energies and Occupations

         #    Occupation            Energy/Eh            Energy/eV
      -------------------------------------------------------------
         1        2.0000           -0.6881457             -18.7254
       ...           ...                  ...                  ...
       124        2.0000           -0.4210963             -11.4586
       125        2.0000           -0.4191756             -11.4063
       126        2.0000           -0.4180150             -11.3748
       127        2.0000           -0.4179802             -11.3738
       128        2.0000           -0.4164633             -11.3325
       129        2.0000           -0.4100321             -11.1575
       130        2.0000           -0.4077766             -11.0962
       131        2.0000           -0.3935472             -10.7090
       132        2.0000           -0.3879027             -10.5554
       133        1.9141           -0.3666986              -9.9784
       134        1.6518           -0.3650475              -9.9334
       135        1.4342           -0.3642004              -9.9104
       136        1.0000           -0.3112536              -8.4696 (HOMO)
       137        0.0000           -0.2911859              -7.9236 (LUMO)
       138                         -0.2755662              -7.4985
       139                         -0.2504489              -6.8151
       140                         -0.2460080              -6.6942
       141                         -0.2456511              -6.6845
       142                         -0.2440089              -6.6398
       143                         -0.2411632              -6.5624
       144                         -0.2398017              -6.5253
       145                         -0.2361733              -6.4266
       146                         -0.2360171              -6.4224
       147                         -0.2343110              -6.3759
       ...                                ...                  ...
       264                          1.1677510              31.7761
      -------------------------------------------------------------
                  HL-Gap            0.0200677 Eh            0.5461 eV

     #   Z          covCN         q      C6AA      α(0)
     1   7 N        0.911    -0.295    27.595     7.597
     2   6 C        1.909     0.104    28.524     8.625
     3   6 C        2.958     0.075    26.318     8.415
     4   7 N        1.842    -0.227    26.803     7.673
     5   6 C        3.052     0.073    26.325     8.415
     6   6 C        3.052     0.073    26.325     8.415
     7   7 N        1.842    -0.227    26.803     7.673
     8   6 C        2.958     0.075    26.318     8.414
     9   6 C        1.909     0.104    28.524     8.625
    10   7 N        0.911    -0.295    27.595     7.597
    11   6 C        3.029    -0.024    28.565     8.767
    12   6 C        2.908    -0.035    28.871     8.811
    13   6 C        2.925    -0.037    28.932     8.821
    14   6 C        2.975    -0.002    28.069     8.690
    15   6 C        2.976     0.016    27.643     8.624
    16   6 C        2.921    -0.032    28.793     8.799
    17   6 C        2.920    -0.045    29.106     8.847
    18   6 C        2.922     0.061    26.626     8.462
    19   7 N        2.752    -0.037    21.950     6.958
    20   6 C        2.924     0.063    26.599     8.458
    21   6 C        2.922    -0.042    29.039     8.837
    22   6 C        2.919    -0.026    28.642     8.776
    23   6 C        2.919    -0.031    28.763     8.795
    24   6 C        2.919    -0.026    28.643     8.776
    25   6 C        2.921    -0.044    29.095     8.846
    26   6 C        2.928     0.062    26.602     8.458
    27   6 C        2.921    -0.040    28.999     8.831
    28   6 C        2.919    -0.026    28.641     8.776
    29   6 C        2.919    -0.029    28.735     8.791
    30   6 C        2.919    -0.026    28.640     8.776
    31   6 C        2.921    -0.040    28.995     8.830
    32   6 C        2.918    -0.046    29.137     8.852
    33   6 C        2.924    -0.029    28.713     8.787
    34   6 C        2.976     0.006    27.888     8.662
    35   6 C        2.975    -0.002    28.069     8.690
    36   6 C        2.976     0.016    27.643     8.624
    37   6 C        2.924    -0.029    28.713     8.787
    38   6 C        2.918    -0.046    29.137     8.852
    39   6 C        2.922     0.061    26.626     8.462
    40   7 N        2.752    -0.037    21.950     6.958
    41   6 C        2.928     0.062    26.602     8.458
    42   6 C        2.921    -0.040    28.998     8.831
    43   6 C        2.919    -0.026    28.641     8.776
    44   6 C        2.919    -0.029    28.735     8.791
    45   6 C        2.919    -0.026    28.640     8.776
    46   6 C        2.921    -0.040    28.995     8.830
    47   6 C        2.924     0.063    26.599     8.458
    48   6 C        2.922    -0.042    29.039     8.837
    49   6 C        2.919    -0.026    28.642     8.776
    50   6 C        2.919    -0.031    28.763     8.795
    51   6 C        2.919    -0.026    28.643     8.776
    52   6 C        2.921    -0.044    29.095     8.846
    53   6 C        2.920    -0.045    29.106     8.847
    54   6 C        2.921    -0.032    28.793     8.799
    55   6 C        2.925    -0.037    28.932     8.821
    56   6 C        2.908    -0.035    28.871     8.811
    57   6 C        3.029    -0.024    28.565     8.767
    58   6 C        3.148    -0.009    27.974     8.652
    59   1 H        0.926     0.033     2.551     2.498
    60   1 H        0.926     0.040     2.447     2.446
    61   1 H        0.926     0.045     2.378     2.411
    62   1 H        0.926     0.048     2.346     2.395
    63   1 H        0.926     0.042     2.426     2.436
    64   1 H        0.926     0.043     2.411     2.428
    65   1 H        0.926     0.042     2.418     2.432
    66   1 H        0.926     0.043     2.414     2.430
    67   1 H        0.926     0.042     2.421     2.433
    68   1 H        0.926     0.042     2.416     2.431
    69   1 H        0.926     0.043     2.410     2.428
    70   1 H        0.926     0.042     2.416     2.430
    71   1 H        0.926     0.045     2.377     2.411
    72   1 H        0.926     0.046     2.376     2.410
    73   1 H        0.926     0.046     2.372     2.408
    74   1 H        0.926     0.040     2.447     2.446
    75   1 H        0.926     0.040     2.447     2.446
    76   1 H        0.926     0.046     2.372     2.408
    77   1 H        0.926     0.042     2.416     2.431
    78   1 H        0.926     0.043     2.410     2.428
    79   1 H        0.926     0.042     2.416     2.431
    80   1 H        0.926     0.045     2.377     2.411
    81   1 H        0.926     0.046     2.376     2.410
    82   1 H        0.926     0.042     2.426     2.436
    83   1 H        0.926     0.043     2.411     2.428
    84   1 H        0.926     0.042     2.418     2.432
    85   1 H        0.926     0.043     2.415     2.430
    86   1 H        0.926     0.042     2.421     2.433
    87   1 H        0.926     0.048     2.346     2.395
    88   1 H        0.926     0.045     2.378     2.411
    89   1 H        0.926     0.040     2.447     2.446
    90   1 H        0.926     0.033     2.551     2.498

molecular dipole:
                 x           y           z       tot (Debye)
 q only:       14.954      -0.001       0.018
   full:       15.313      -0.001       0.019      38.921

 projected vibrational frequencies (cm⁻¹)
eigval :       -0.00    -0.00    -0.00    -0.00     0.00     0.00
eigval :       14.91    16.86    16.92    18.23    26.67    28.62
eigval :       40.39    43.29    51.08    52.34    56.04    62.65
eigval :       64.69    69.96    71.73    76.37    80.10    87.61
eigval :      101.04   102.05   114.53   120.40   135.50   140.87
eigval :      143.02   164.63   166.40   171.37   183.96   198.40
eigval :      219.95   232.62   233.42   238.99   240.97   282.17
eigval :      284.99   298.72   307.07   315.70   323.43   327.79
eigval :      347.86   353.06   361.64   376.12   376.90   378.86
eigval :      380.47   383.89   385.24   391.63   392.68   393.81
eigval :      413.31   421.28   423.39   423.60   454.94   462.97
eigval :      473.46   476.50   481.49   495.73   499.05   500.31
eigval :      513.75   523.74   528.98   537.95   551.12   572.20
eigval :      583.13   583.83   584.38   585.19   589.91   593.20
eigval :      594.30   605.01   610.28   610.32   627.14   630.24
eigval :      642.89   644.85   660.03   660.36   663.41   664.43
eigval :      671.01   685.09   690.27   696.38   698.35   719.53
eigval :      728.35   747.32   756.81   759.07   760.67   761.52
eigval :      772.44   806.23   808.60   822.35   823.10   835.11
eigval :      862.84   863.91   870.59   873.06   874.55   876.97
eigval :      894.48   894.76   898.91   899.67   900.60   901.39
eigval :      902.51   908.24   909.29   913.65   919.60   922.13
eigval :      927.87   928.07   929.45   929.61   930.40   931.03
eigval :      932.86   933.01   933.67   937.27   937.70   971.62
eigval :      984.17   990.09  1002.65  1002.81  1013.50  1018.55
eigval :     1064.88  1068.82  1078.63  1078.73  1082.01  1083.74
eigval :     1118.35  1119.00  1119.50  1121.93  1125.64  1128.87
eigval :     1141.87  1143.14  1153.61  1175.42  1177.15  1177.25
eigval :     1177.69  1177.75  1180.16  1183.84  1190.44  1190.55
eigval :     1192.09  1195.27  1208.01  1213.03  1216.54  1227.94
eigval :     1234.45  1263.95  1265.23  1266.97  1272.12  1272.81
eigval :     1273.35  1279.24  1281.28  1293.59  1293.86  1307.19
eigval :     1308.27  1312.49  1312.56  1321.05  1321.86  1322.35
eigval :     1324.73  1325.53  1337.88  1355.83  1356.10  1368.74
eigval :     1407.26  1413.32  1414.28  1425.74  1431.32  1431.39
eigval :     1436.90  1437.18  1457.17  1457.30  1458.18  1458.62
eigval :     1460.66  1470.36  1472.85  1476.89  1502.45  1531.03
eigval :     1532.07  1541.37  1543.96  1568.20  1568.22  1568.51
eigval :     1570.34  1572.41  1573.82  1579.07  1580.80  1580.82
eigval :     1587.82  1590.66  2295.75  2296.10  3071.26  3071.62
eigval :     3080.56  3080.58  3081.39  3081.51  3082.85  3083.03
eigval :     3083.80  3083.89  3084.45  3084.85  3085.87  3086.40
eigval :     3089.75  3089.82  3091.49  3091.98  3092.13  3092.37
eigval :     3093.78  3094.13  3095.56  3096.54  3097.38  3098.31
eigval :     3099.34  3099.68  3100.76  3101.00  3113.09  3115.08

   temp. (K)  partition function   enthalpy   heat capacity  entropy
                                   cal/mol     cal/K/mol   cal/K/mol   J/K/mol
 298.15  VIB  0.213E+22            27542.034    171.614    172.342
         ROT  0.668E+08              888.752      2.981     38.786
         INT  0.142E+30            28430.786    174.595    211.128
         TR   0.195E+29             1481.254      4.968     45.667
         TOT                       29912.0398   179.5634   256.7943  1074.4275

       T/K    H(0)-H(T)+PV         H(T)/Eh          T*S/Eh         G(T)/Eh
   ------------------------------------------------------------------------
    298.15    0.476679E-01    0.718746E+00    0.122011E+00    0.596735E+00
   ------------------------------------------------------------------------

         :::::::::::::::::::::::::::::::::::::::::::::::::::::
         ::                  THERMODYNAMIC                  ::
         :::::::::::::::::::::::::::::::::::::::::::::::::::::
         :: total free energy        -144.577989651397 Eh   ::
         ::.................................................::
         :: total energy             -145.174724788604 Eh   ::
         :: zero point energy           0.671078537953 Eh   ::
         :: G(RRHO) w/o ZPVE           -0.074343400746 Eh   ::
         :: G(RRHO) contrib.            0.596735137207 Eh   ::
         :::::::::::::::::::::::::::::::::::::::::::::::::::::

           -------------------------------------------------
          | TOTAL ENERGY             -145.174724788604 Eh   |
          | TOTAL ENTHALPY           -144.455978381034 Eh   |
          | TOTAL FREE ENERGY        -144.577989651397 Eh   |
          | GRADIENT NORM               0.000085480884 Eh/α |
          | HOMO-LUMO GAP               0.546069273490 eV   |
           -------------------------------------------------

 * finished run on 2025/07/16 at 22:28:29.547
