   * xtb version 6.7.1 (edcfbbe) compiled by 'albert@albert-system' on 2024-07-22

   ID    Z sym.   atoms
    1    7 N      1, 4, 7, 10, 19, 40
    2    6 C      2, 3, 5, 6, 8, 9, 11-18, 20-39, 41-58
    3    1 H      59-90

          program call               : xtb data2507/toluene/BMIM/BMIM_toluene_S0_crest.xyz --gfn 2 --gbsa toluene --ohess vtight --parallel 40 --molden --ceasefiles --namespace data2507/toluene/BMIM/BMIM_toluene_S0_finalOpt
      * Solvation model:               GBSA
        Solvent                        toluene
        Solvent mass                       9.2140E+01 g/mol
          :  Hamiltonian                  GFN2-xTB          :
 * total energy  :  -145.2185949 Eh     change       -0.1425747E-08 Eh
 * total energy  :  -145.2187185 Eh     change       -0.1236133E-03 Eh
 * total energy  :  -145.2187645 Eh     change       -0.4598869E-04 Eh
 * total energy  :  -145.2187352 Eh     change        0.2935066E-04 Eh
 * total energy  :  -145.2188056 Eh     change       -0.7046683E-04 Eh
 * total energy  :  -145.2188020 Eh     change        0.3630820E-05 Eh
 * total energy  :  -145.2188360 Eh     change       -0.3397271E-04 Eh
 * total energy  :  -145.2188647 Eh     change       -0.2867407E-04 Eh
 * total energy  :  -145.2188942 Eh     change       -0.2956476E-04 Eh
 * total energy  :  -145.2189175 Eh     change       -0.2323144E-04 Eh
 * total energy  :  -145.2190174 Eh     change       -0.4615815E-06 Eh
 * total energy  :  -145.2190180 Eh     change       -0.6339475E-06 Eh
 * total energy  :  -145.2190187 Eh     change       -0.6875219E-06 Eh
 * total energy  :  -145.2190193 Eh     change       -0.6160810E-06 Eh
 * total energy  :  -145.2190198 Eh     change       -0.4142295E-06 Eh
 * total energy  :  -145.2190200 Eh     change       -0.2516347E-06 Eh
 * total energy  :  -145.2190202 Eh     change       -0.1897984E-06 Eh
 * total energy  :  -145.2190204 Eh     change       -0.1680365E-06 Eh
 * total energy  :  -145.2190205 Eh     change       -0.9034108E-07 Eh
   *** GEOMETRY OPTIMIZATION CONVERGED AFTER 37 ITERATIONS ***

 final structure:
================
90
 xtb: 6.7.1 (edcfbbe)
N          -10.93857580495976       -1.81926745335820        0.61311003353348
C           -9.91992316351530       -1.32020757116850        0.43933635760224
C           -8.68595315926655       -0.66863696092820        0.21632099512174
N           -7.55509099181253       -1.35215687009450        0.42943955715840
C           -6.43825040510055       -0.68950532813510        0.21239948354178
C           -6.43731712450929        0.69483110054045       -0.21585501761333
N           -7.55324001345114        1.35873772712648       -0.43379509061245
C           -8.68503209412419        0.67647088721122       -0.22163962573700
C           -9.91808647125816        1.32938158868144       -0.44583061615016
N          -10.93602049474106        1.82954181297947       -0.62065800287318
C           -5.07095282033497        1.12570937924324       -0.33968273587676
C           -4.43891217418037        2.30257105162409       -0.69074098265658
C           -3.04818642885046        2.34868268763881       -0.60753496946127
C           -2.25943486266494        1.26581931177945       -0.22626288313468
C           -0.84381130522501        1.49280173506188        0.06250505146393
C           -0.01527041500916        2.20271408650183       -0.80571023715123
C            1.30648170095113        2.43130777250688       -0.49483330479146
C            1.84390054477010        1.99117714556631        0.72065047697625
N            3.17581170296627        2.22502938647647        1.03124460204789
C            3.89400152670957        1.36669363111817        1.87823009995830
C            4.83659702554704        1.88985164122296        2.76333927328828
C            5.56592892144995        1.04885415757448        3.58205654181123
C            5.36464575626583       -0.32141588689069        3.53857916539273
C            4.42454566361423       -0.84524139694371        2.66627562202438
C            3.69569958478517       -0.01267102398676        1.83890662846032
C            3.84279080854999        3.34069790136205        0.49074000799563
C            3.22674808681109        4.59045978449808        0.46199411520265
C            3.89239196390902        5.67947268818352       -0.06876811228463
C            5.17755183494991        5.54019819561048       -0.56818056229914
C            5.79538691769879        4.30021211058563       -0.53511581795692
C            5.13510164765122        3.20427021672188       -0.01237695190864
C            1.00137422571052        1.31396487177437        1.60965106802661
C           -0.30892063094342        1.06009168638171        1.27856698452703
C           -2.87947588012420        0.00057353018771       -0.00086123425864
C           -2.26104057999694       -1.26542506161391        0.22471299466814
C           -0.84556031642799       -1.49388600648942       -0.06367870529490
C           -0.31007964941433       -1.06184085032927       -1.27971610839964
C            1.00017329226458       -1.31653535044000       -1.61031331050528
C            1.84206760505261       -1.99383497710150       -0.72078767133613
N            3.17408359274261       -2.22810032412872       -1.03081148772131
C            3.84035989149093       -3.34414890919710       -0.49028334720332
C            3.22369636944350       -4.59362074721430       -0.46200603508222
C            3.88859577521789       -5.68305747222460        0.06881392353729
C            5.17364312547424       -5.54452157878025        0.56871833314455
C            5.79209562857681       -4.30483152858870        0.53612858286563
C            5.13253593861171       -3.20845708655029        0.01338864409490
C            3.89301581313777       -1.36929073388213       -1.87666547522205
C            4.83666456951564       -1.89174472625066       -2.76106579114163
C            5.56671458092925       -1.05010441085365       -3.57848742889560
C            5.36511769913165        0.32010235762758       -3.53445019774060
C            4.42388015218572        0.84321420487018       -2.66295367266161
C            3.69433722838549        0.01000548508781       -1.83686535939337
C            1.30400107794413       -2.43351981266233        0.49454592791080
C           -0.01775949067227       -2.20417710551478        0.80491258152306
C           -3.05120762631249       -2.34734307133768        0.60569021798054
C           -4.44192376231014       -2.29957392803410        0.68832675691769
C           -5.07243780655580       -1.12196782094365        0.33701304261806
C           -4.27788635648335        0.00141126395433       -0.00112564565537
H           -5.00399134470214        3.17629976604642       -0.97682052029694
H           -2.55482327729848        3.29085722393993       -0.79689799259667
H           -0.40179818178706        2.53863631026406       -1.75645337355219
H            1.93873914969362        2.95132910901410       -1.19854104736715
H            4.99236681355996        2.95795793107944        2.80572646935253
H            6.29154330157965        1.46824805599553        4.26364309214186
H            5.93556935575544       -0.97577972683672        4.17997617662469
H            4.26584463500925       -1.91257091341641        2.61945293414316
H            2.96955597006910       -0.42872844632487        1.15827003310314
H            2.22897238183088        4.70158268369714        0.86113956235144
H            3.40729911605924        6.64450206416312       -0.08397668313496
H            5.69494067075576        6.39382351766490       -0.97962235411559
H            6.79524316167222        4.18244808806420       -0.92630306128172
H            5.61236085937175        2.23554723391972        0.00621196448440
H            1.38226883873990        1.00006931801109        2.56965133091205
H           -0.94715368970918        0.55282607365679        1.98674754250522
H           -0.94781921874793       -0.55439782754060       -1.98821707178970
H            1.38157192041911       -1.00312731200415       -2.57027488116364
H            2.22601567004826       -4.70418015316846       -0.86154488711858
H            3.40303355049141       -6.64785675826644        0.08362867033898
H            5.69047536082649       -6.39849062185977        0.98014751083761
H            6.79186268207256       -4.18763033965776        0.92771461842067
H            5.61026968670256       -2.23996044662363       -0.00477562886883
H            4.99272500514971       -2.95978817278312       -2.80391858545724
H            6.29317121575211       -1.46894683670557       -4.25951659650670
H            5.93663020180912        0.97496360900776       -4.17481236344651
H            4.26486465366056        1.91047535657735       -2.61569188332197
H            2.96729653435497        0.42549872157878       -1.15685403074877
H            1.93575906857943       -2.95372021258834        1.19857439882999
H           -0.40481600117060       -2.53971211719906        1.75557884192547
H           -2.55903978042782       -3.29010054572099        0.79527652969554
H           -5.00814006222473       -3.17262390623584        0.97423611872511

          :  Hamiltonian                  GFN2-xTB          :
         :: gradient norm              0.000038297825 Eh/a0 ::
         :: HOMO-LUMO gap              0.772781932449 eV    ::
         :: SCC energy              -147.979898232755 Eh    ::
         :: -> dispersion             -0.146034975212 Eh    ::
         :: -> Gsolv                  -0.066381589493 Eh    ::
         :: repulsion energy           2.760877773813 Eh    ::

    * Orbital Energies and Occupations

         #    Occupation            Energy/Eh            Energy/eV
      -------------------------------------------------------------
         1        2.0000           -0.7098308             -19.3155
       ...           ...                  ...                  ...
       123        2.0000           -0.4163894             -11.3305
       124        2.0000           -0.4143096             -11.2739
       125        2.0000           -0.4134978             -11.2518
       126        2.0000           -0.4125670             -11.2265
       127        2.0000           -0.4112417             -11.1905
       128        2.0000           -0.4105212             -11.1709
       129        2.0000           -0.4090996             -11.1322
       130        2.0000           -0.4090537             -11.1309
       131        2.0000           -0.4022248             -10.9451
       132        2.0000           -0.3993397             -10.8666
       133        2.0000           -0.3830530             -10.4234
       134        2.0000           -0.3586980              -9.7607
       135        2.0000           -0.3554130              -9.6713 (HOMO)
       136        0.0000           -0.3270135              -8.8985 (LUMO)
       137                         -0.3122630              -8.4971
       138                         -0.2910777              -7.9206
       139                         -0.2499467              -6.8014
       140                         -0.2462056              -6.6996
       141                         -0.2398632              -6.5270
       142                         -0.2392671              -6.5108
       143                         -0.2362813              -6.4295
       144                         -0.2359450              -6.4204
       145                         -0.2341384              -6.3712
       146                         -0.2318997              -6.3103
       ...                                ...                  ...
       264                          1.1509613              31.3193
      -------------------------------------------------------------
                  HL-Gap            0.0283995 Eh            0.7728 eV

     #   Z          covCN         q      C6AA      α(0)
     1   7 N        0.911    -0.239    26.252     7.410
     2   6 C        1.911     0.113    28.324     8.595
     3   6 C        2.978     0.095    25.892     8.347
     4   7 N        1.842    -0.246    27.266     7.739
     5   6 C        3.071     0.088    25.978     8.357
     6   6 C        3.071     0.088    25.978     8.357
     7   7 N        1.842    -0.246    27.267     7.739
     8   6 C        2.978     0.095    25.892     8.347
     9   6 C        1.911     0.113    28.324     8.595
    10   7 N        0.911    -0.239    26.252     7.410
    11   6 C        3.035    -0.019    28.443     8.748
    12   6 C        2.909    -0.014    28.360     8.732
    13   6 C        2.926    -0.035    28.874     8.812
    14   6 C        2.976     0.026    27.409     8.588
    15   6 C        2.977     0.003    27.946     8.671
    16   6 C        2.922    -0.032    28.790     8.799
    17   6 C        2.921    -0.050    29.237     8.867
    18   6 C        2.920     0.067    26.496     8.441
    19   7 N        2.751    -0.067    22.530     7.050
    20   6 C        2.924     0.063    26.580     8.455
    21   6 C        2.923    -0.046    29.149     8.854
    22   6 C        2.919    -0.029    28.725     8.789
    23   6 C        2.919    -0.037    28.915     8.818
    24   6 C        2.919    -0.028    28.703     8.786
    25   6 C        2.922    -0.047    29.173     8.857
    26   6 C        2.927     0.064    26.567     8.453
    27   6 C        2.921    -0.045    29.112     8.848
    28   6 C        2.919    -0.029    28.721     8.788
    29   6 C        2.919    -0.035    28.878     8.812
    30   6 C        2.919    -0.028    28.708     8.786
    31   6 C        2.922    -0.043    29.068     8.841
    32   6 C        2.920    -0.050    29.242     8.868
    33   6 C        2.924    -0.028    28.712     8.787
    34   6 C        2.976     0.009    27.815     8.651
    35   6 C        2.976     0.026    27.409     8.588
    36   6 C        2.977     0.003    27.946     8.671
    37   6 C        2.924    -0.028    28.712     8.787
    38   6 C        2.920    -0.050    29.241     8.868
    39   6 C        2.920     0.067    26.496     8.441
    40   7 N        2.751    -0.067    22.530     7.050
    41   6 C        2.927     0.064    26.567     8.453
    42   6 C        2.921    -0.045    29.112     8.848
    43   6 C        2.919    -0.029    28.721     8.788
    44   6 C        2.919    -0.035    28.878     8.812
    45   6 C        2.919    -0.028    28.708     8.786
    46   6 C        2.922    -0.043    29.068     8.841
    47   6 C        2.924     0.063    26.580     8.455
    48   6 C        2.923    -0.046    29.149     8.854
    49   6 C        2.919    -0.029    28.725     8.789
    50   6 C        2.919    -0.037    28.915     8.818
    51   6 C        2.919    -0.028    28.703     8.786
    52   6 C        2.922    -0.047    29.173     8.857
    53   6 C        2.921    -0.050    29.236     8.867
    54   6 C        2.922    -0.032    28.790     8.799
    55   6 C        2.926    -0.035    28.874     8.812
    56   6 C        2.909    -0.014    28.360     8.732
    57   6 C        3.035    -0.019    28.443     8.748
    58   6 C        3.144    -0.007    27.938     8.648
    59   1 H        0.926     0.055     2.258     2.350
    60   1 H        0.926     0.057     2.232     2.336
    61   1 H        0.926     0.043     2.414     2.430
    62   1 H        0.926     0.041     2.436     2.441
    63   1 H        0.926     0.033     2.540     2.492
    64   1 H        0.926     0.035     2.515     2.480
    65   1 H        0.926     0.034     2.529     2.487
    66   1 H        0.926     0.034     2.524     2.485
    67   1 H        0.926     0.036     2.498     2.472
    68   1 H        0.926     0.036     2.499     2.472
    69   1 H        0.926     0.037     2.490     2.468
    70   1 H        0.926     0.036     2.508     2.477
    71   1 H        0.926     0.037     2.485     2.465
    72   1 H        0.926     0.036     2.503     2.474
    73   1 H        0.926     0.040     2.452     2.449
    74   1 H        0.926     0.036     2.500     2.472
    75   1 H        0.926     0.036     2.500     2.472
    76   1 H        0.926     0.040     2.452     2.449
    77   1 H        0.926     0.036     2.499     2.472
    78   1 H        0.926     0.037     2.490     2.468
    79   1 H        0.926     0.036     2.509     2.477
    80   1 H        0.926     0.037     2.485     2.465
    81   1 H        0.926     0.036     2.503     2.474
    82   1 H        0.926     0.033     2.540     2.492
    83   1 H        0.926     0.035     2.515     2.480
    84   1 H        0.926     0.034     2.529     2.487
    85   1 H        0.926     0.034     2.525     2.485
    86   1 H        0.926     0.036     2.498     2.472
    87   1 H        0.926     0.041     2.436     2.441
    88   1 H        0.926     0.043     2.414     2.430
    89   1 H        0.926     0.057     2.232     2.336
    90   1 H        0.926     0.055     2.258     2.350

molecular dipole:
                 x           y           z       tot (Debye)
 q only:        8.085      -0.003       0.003
   full:        8.565      -0.004       0.003      21.770

 projected vibrational frequencies (cm⁻¹)
eigval :       -0.00     0.00     0.00     0.00     0.00     0.00
eigval :       15.56    17.24    18.10    21.37    27.00    27.93
eigval :       40.92    42.31    50.20    51.03    56.15    60.57
eigval :       65.99    66.63    70.80    75.36    78.93    86.15
eigval :       99.91   101.87   112.67   121.08   135.40   141.96
eigval :      143.49   163.53   164.52   171.24   184.11   196.76
eigval :      221.67   232.83   234.54   239.20   240.80   281.55
eigval :      281.95   296.00   307.03   313.85   324.04   328.72
eigval :      350.22   353.53   362.32   377.28   378.35   381.23
eigval :      382.43   389.29   391.40   394.33   396.07   398.16
eigval :      420.20   424.33   424.71   427.14   459.40   470.07
eigval :      478.80   482.28   493.91   496.37   504.60   513.98
eigval :      521.39   528.57   539.09   543.05   555.65   576.86
eigval :      584.29   585.66   585.92   587.90   593.87   595.16
eigval :      604.76   608.41   612.76   628.62   635.44   647.67
eigval :      659.04   661.72   663.68   666.41   668.73   674.07
eigval :      683.98   685.09   699.03   701.42   724.21   742.94
eigval :      747.24   748.05   756.74   759.83   760.06   761.40
eigval :      777.95   812.72   816.80   832.16   838.57   841.69
eigval :      864.45   865.00   875.33   876.10   877.17   878.59
eigval :      894.24   896.60   896.97   899.01   902.66   908.59
eigval :      909.30   912.56   913.27   914.64   918.33   918.54
eigval :      925.85   926.21   929.63   929.85   930.21   930.75
eigval :      931.60   931.72   933.83   937.89   942.76   974.43
eigval :      986.15   995.75  1004.45  1004.74  1016.21  1029.11
eigval :     1072.81  1080.10  1080.13  1083.69  1085.27  1112.16
eigval :     1118.51  1118.79  1122.19  1125.94  1129.68  1131.52
eigval :     1145.27  1146.14  1166.69  1176.90  1177.03  1179.39
eigval :     1179.66  1184.22  1185.18  1186.49  1193.20  1194.57
eigval :     1196.19  1199.41  1212.32  1215.54  1233.73  1239.93
eigval :     1266.81  1269.23  1270.16  1275.28  1276.05  1279.15
eigval :     1282.34  1291.85  1300.39  1300.74  1311.83  1312.73
eigval :     1316.64  1318.93  1321.61  1322.30  1324.28  1324.66
eigval :     1325.92  1328.91  1333.06  1360.62  1363.70  1377.65
eigval :     1415.31  1415.45  1417.35  1432.66  1434.16  1436.08
eigval :     1439.10  1439.65  1459.15  1467.61  1467.74  1470.95
eigval :     1470.99  1488.50  1490.79  1511.41  1513.97  1543.45
eigval :     1543.60  1553.32  1572.27  1576.37  1576.51  1580.12
eigval :     1580.37  1584.49  1585.98  1590.09  1590.32  1591.31
eigval :     1597.60  1598.90  2351.72  2354.95  3074.80  3074.85
eigval :     3075.02  3075.04  3076.96  3076.98  3078.30  3078.33
eigval :     3081.06  3081.54  3082.85  3083.32  3084.50  3084.59
eigval :     3085.43  3085.58  3085.97  3086.06  3088.91  3089.20
eigval :     3094.06  3094.10  3094.73  3095.46  3096.45  3096.48
eigval :     3097.01  3097.54  3098.34  3099.08  3107.96  3109.68

   temp. (K)  partition function   enthalpy   heat capacity  entropy
                                   cal/mol     cal/K/mol   cal/K/mol   J/K/mol
 298.15  VIB  0.169E+22            27389.753    170.311    171.491
         ROT  0.666E+08              888.752      2.981     38.779
         INT  0.113E+30            28278.505    173.292    210.271
         TR   0.195E+29             1481.254      4.968     45.667
         TOT                       29759.7589   178.2604   255.9373  1070.8417

       T/K    H(0)-H(T)+PV         H(T)/Eh          T*S/Eh         G(T)/Eh
   ------------------------------------------------------------------------
    298.15    0.474252E-01    0.721176E+00    0.121604E+00    0.599572E+00
   ------------------------------------------------------------------------

         :::::::::::::::::::::::::::::::::::::::::::::::::::::
         ::                  THERMODYNAMIC                  ::
         :::::::::::::::::::::::::::::::::::::::::::::::::::::
         :: total free energy        -144.619448708493 Eh   ::
         ::.................................................::
         :: total energy             -145.219020459638 Eh   ::
         :: zero point energy           0.673750635382 Eh   ::
         :: G(RRHO) w/o ZPVE           -0.074178884238 Eh   ::
         :: G(RRHO) contrib.            0.599571751144 Eh   ::
         :::::::::::::::::::::::::::::::::::::::::::::::::::::

           -------------------------------------------------
          | TOTAL ENERGY             -145.219020459638 Eh   |
          | TOTAL ENTHALPY           -144.497844629663 Eh   |
          | TOTAL FREE ENERGY        -144.619448708493 Eh   |
          | GRADIENT NORM               0.000037834114 Eh/α |
          | HOMO-LUMO GAP               0.772788967691 eV   |
           -------------------------------------------------

 * finished run on 2025/07/16 at 22:17:28.050
