   * xtb version 6.7.1 (edcfbbe) compiled by 'albert@albert-system' on 2024-07-22

   ID    Z sym.   atoms
    1    6 C      1-9, 11-15, 17-38
    2    7 N      10, 16
    3    1 H      39-70

          program call               : xtb data2507/toluene/mAP/mAP_toluene_S0_crest.xyz --gfn 2 --gbsa toluene --ohess vtight --parallel 40 --molden --ceasefiles --namespace data2507/toluene/mAP/mAP_toluene_S0_finalOpt
      * Solvation model:               GBSA
        Solvent                        toluene
        Solvent mass                       9.2140E+01 g/mol
          :  Hamiltonian                  GFN2-xTB          :
 * total energy  :   -99.3547360 Eh     change       -0.3066731E-08 Eh
 * total energy  :   -99.3547696 Eh     change       -0.3356677E-04 Eh
 * total energy  :   -99.3547824 Eh     change       -0.1288003E-04 Eh
 * total energy  :   -99.3547886 Eh     change       -0.6158436E-05 Eh
 * total energy  :   -99.3547962 Eh     change       -0.7648727E-05 Eh
 * total energy  :   -99.3548010 Eh     change       -0.4769930E-05 Eh
 * total energy  :   -99.3548058 Eh     change       -0.4782691E-05 Eh
 * total energy  :   -99.3548103 Eh     change       -0.4528982E-05 Eh
 * total energy  :   -99.3548129 Eh     change       -0.2533066E-05 Eh
 * total energy  :   -99.3548145 Eh     change       -0.1598974E-05 Eh
 * total energy  :   -99.3548182 Eh     change       -0.4777879E-06 Eh
 * total energy  :   -99.3548187 Eh     change       -0.4799336E-06 Eh
 * total energy  :   -99.3548192 Eh     change       -0.5291863E-06 Eh
 * total energy  :   -99.3548196 Eh     change       -0.4010711E-06 Eh
 * total energy  :   -99.3548199 Eh     change       -0.2880683E-06 Eh
 * total energy  :   -99.3548201 Eh     change       -0.2322618E-06 Eh
 * total energy  :   -99.3548204 Eh     change       -0.2681079E-06 Eh
 * total energy  :   -99.3548208 Eh     change       -0.3786675E-06 Eh
 * total energy  :   -99.3548208 Eh     change       -0.3828902E-08 Eh
   *** GEOMETRY OPTIMIZATION CONVERGED AFTER 22 ITERATIONS ***

 final structure:
================
70
 xtb: 6.7.1 (edcfbbe)
C            6.34728901103125       -0.37031359888632        0.25638176042939
C            4.97037573291349       -0.25274308806244        0.93687089481602
C            5.12184589720404       -0.35910823275085        2.46610052164545
C            4.09259043981937       -1.39168053428424        0.45171736878198
C            4.49198503593077       -2.70340396281918        0.67008795132256
C            3.74560978311521       -3.78285440816664        0.23359331829113
C            2.56818979574803       -3.55503280928747       -0.45573153107164
C            2.14918395248125       -2.26181404468020       -0.68740913726026
C            2.88970615223496       -1.16903937307479       -0.22728881857340
N            2.43281375329355        0.11865744622560       -0.46413960360787
C            1.20286755280988        0.29803693060299       -1.15499772511530
C            1.20342802767733        0.62726922285151       -2.50598697786479
C            0.00385672020604        0.79738331103004       -3.17520091892191
C           -1.19776573411079        0.63258925467155       -2.50831460094483
C           -1.20110288405180        0.30316247754454       -1.15740939773674
N           -2.43310330083387        0.12872656401575       -0.46882480762964
C           -3.14144066826384        1.24795768814507       -0.05912378460334
C           -2.61762473251289        2.52256149468603       -0.29518033840469
C           -3.30385272848809        3.65594102844139        0.08787545305451
C           -4.52744544450303        3.53755695961877        0.72211110163400
C           -5.03782181096424        2.27736056975044        0.97544081744048
C           -4.36827231514846        1.11996724129599        0.60143162655411
C           -4.97382575324056       -0.23258746557216        0.92888579420957
C           -6.35082062426588       -0.33866751817310        0.24665478844452
C           -5.12734554347959       -0.34443453446384        2.45751785144568
C           -4.10285129500997       -1.37498434666758        0.43957512675423
C           -4.51050324263647       -2.68509685537280        0.65219271189284
C           -3.77062430486747       -3.76730394041495        0.21143386623435
C           -2.59139652315730       -3.54392272444429       -0.47624937638150
C           -2.16405965790900       -2.25237766467493       -0.70197595629068
C           -2.89822201635922       -1.15701531148957       -0.23784668431635
C           -0.00015247708527        0.14191741900595       -0.47844406719345
C            3.14809588255405        1.23514671478183       -0.05880697418572
C            2.63256543924941        2.51209656340136       -0.30043289527782
C            3.32586117567758        3.64269376501344        0.07809054529342
C            4.54836150201048        3.51920193223857        0.71345605629546
C            5.05040868916219        2.25685242481526        0.97259564000679
C            4.37366114343766        1.10218240314331        0.60312199477231
H            6.23454591593506       -0.29694625837798       -0.82413777094858
H            6.81426376285104       -1.32353985841671        0.48809241087043
H            7.01210125393804        0.42309255357296        0.58631057481162
H            4.14685968183935       -0.26953335688352        2.94258523284491
H            5.76355791174965        0.43014753209088        2.84797030507552
H            5.55414335973328       -1.31539769722447        2.74746936569260
H            5.41479669922496       -2.89578631103738        1.19628617485357
H            4.08504144712978       -4.78996970876745        0.42421311579129
H            1.97419812622249       -4.38168623673298       -0.81738578781170
H            1.23678798791260       -2.09197793729161       -1.23736014065942
H            2.14455274118072        0.75028339164704       -3.02064687686439
H            0.00545570904431        1.05269503101279       -4.22397826279250
H           -2.13738932174181        0.75968603376941       -3.02471645813716
H           -1.66046392158124        2.62263781796799       -0.78325215726836
H           -2.87946221346507        4.62965221262074       -0.10903384769332
H           -5.07761606025585        4.41629609905500        1.02375023484144
H           -5.98802296077462        2.20008660302392        1.48204163452716
H           -6.82425681919402       -1.28964872027754        0.47446072513977
H           -7.01074903202195        0.45790544300318        0.57877580198262
H           -6.23650132794699       -0.26218237394334       -0.83348550485066
H           -5.56512623074736       -1.29949356443631        2.73453725809262
H           -4.15235669616267       -0.26210024637776        2.93531061262569
H           -5.76513057730302        0.44671810975860        2.84203936088454
H           -5.43473417204185       -2.87397397066392        1.17716273550471
H           -4.11650216256396       -4.77309059772320        0.39743683892196
H           -2.00240247790563       -4.37270797187898       -0.84117990918082
H           -1.25011996184163       -2.08580135688973       -1.25038766383845
H           -0.00185847579464       -0.11540493322367        0.57074386208260
H            1.67625960300629        2.61631096630530       -0.78928554840080
H            2.90782373162247        4.61824975117763       -0.12324713546502
H            5.10404999239316        4.39566863987265        1.01157047624419
H            5.99977751808934        2.17568537697286        1.48014969118494

          :  Hamiltonian                  GFN2-xTB          :
         :: gradient norm              0.000051842906 Eh/a0 ::
         :: HOMO-LUMO gap              2.752772891968 eV    ::
         :: SCC energy              -101.154315807542 Eh    ::
         :: -> dispersion             -0.096823658358 Eh    ::
         :: -> Gsolv                  -0.036873805487 Eh    ::
         :: repulsion energy           1.799495019279 Eh    ::

    * Orbital Energies and Occupations

         #    Occupation            Energy/Eh            Energy/eV
      -------------------------------------------------------------
         1        2.0000           -0.6749057             -18.3651
       ...           ...                  ...                  ...
        81        2.0000           -0.4175190             -11.3613
        82        2.0000           -0.4084717             -11.1151
        83        2.0000           -0.4074622             -11.0876
        84        2.0000           -0.4062599             -11.0549
        85        2.0000           -0.4050433             -11.0218
        86        2.0000           -0.4024818             -10.9521
        87        2.0000           -0.4024718             -10.9518
        88        2.0000           -0.3971011             -10.8057
        89        2.0000           -0.3970629             -10.8046
        90        2.0000           -0.3917923             -10.6612
        91        2.0000           -0.3917386             -10.6598
        92        2.0000           -0.3471456              -9.4463
        93        2.0000           -0.3447327              -9.3807 (HOMO)
        94                         -0.2435702              -6.6279 (LUMO)
        95                         -0.2425125              -6.5991
        96                         -0.2234499              -6.0804
        97                         -0.2234381              -6.0801
        98                         -0.2184252              -5.9437
        99                         -0.2183038              -5.9403
       100                         -0.2174108              -5.9160
       101                         -0.2173153              -5.9135
       102                         -0.1899122              -5.1678
       103                         -0.1883191              -5.1244
       104                         -0.1153578              -3.1390
       ...                                ...                  ...
       184                          0.6813834              18.5414
      -------------------------------------------------------------
                  HL-Gap            0.1011625 Eh            2.7528 eV

     #   Z          covCN         q      C6AA      α(0)
     1   6 C        3.761    -0.103    22.518     6.765
     2   6 C        3.908     0.021    20.165     6.383
     3   6 C        3.761    -0.103    22.514     6.764
     4   6 C        2.979    -0.014    28.365     8.736
     5   6 C        2.928    -0.038    28.939     8.822
     6   6 C        2.917    -0.047    29.159     8.855
     7   6 C        2.919    -0.035    28.863     8.810
     8   6 C        2.924    -0.059    29.470     8.902
     9   6 C        2.927     0.059    26.684     8.471
    10   7 N        2.754    -0.075    22.693     7.075
    11   6 C        2.926     0.072    26.382     8.423
    12   6 C        2.921    -0.040    29.003     8.831
    13   6 C        2.919    -0.027    28.668     8.780
    14   6 C        2.921    -0.040    29.003     8.832
    15   6 C        2.926     0.072    26.382     8.423
    16   7 N        2.754    -0.075    22.694     7.075
    17   6 C        2.927     0.059    26.684     8.471
    18   6 C        2.924    -0.060    29.490     8.905
    19   6 C        2.919    -0.035    28.870     8.811
    20   6 C        2.917    -0.047    29.160     8.855
    21   6 C        2.928    -0.038    28.939     8.822
    22   6 C        2.979    -0.014    28.366     8.736
    23   6 C        3.908     0.021    20.165     6.383
    24   6 C        3.761    -0.103    22.518     6.765
    25   6 C        3.761    -0.103    22.514     6.764
    26   6 C        2.979    -0.014    28.366     8.736
    27   6 C        2.928    -0.038    28.939     8.822
    28   6 C        2.917    -0.047    29.159     8.855
    29   6 C        2.919    -0.035    28.863     8.810
    30   6 C        2.924    -0.059    29.470     8.902
    31   6 C        2.927     0.059    26.684     8.471
    32   6 C        2.924    -0.047    29.169     8.857
    33   6 C        2.927     0.059    26.684     8.471
    34   6 C        2.924    -0.060    29.490     8.905
    35   6 C        2.919    -0.035    28.870     8.811
    36   6 C        2.917    -0.047    29.160     8.855
    37   6 C        2.928    -0.038    28.939     8.822
    38   6 C        2.979    -0.014    28.365     8.736
    39   1 H        0.925     0.030     2.589     2.516
    40   1 H        0.925     0.041     2.433     2.439
    41   1 H        0.925     0.041     2.431     2.438
    42   1 H        0.925     0.029     2.596     2.520
    43   1 H        0.925     0.041     2.433     2.439
    44   1 H        0.925     0.041     2.433     2.439
    45   1 H        0.926     0.032     2.559     2.502
    46   1 H        0.926     0.025     2.657     2.549
    47   1 H        0.926     0.026     2.644     2.543
    48   1 H        0.926     0.021     2.716     2.577
    49   1 H        0.926     0.050     2.322     2.383
    50   1 H        0.926     0.052     2.290     2.367
    51   1 H        0.926     0.050     2.322     2.383
    52   1 H        0.926     0.022     2.698     2.568
    53   1 H        0.926     0.026     2.640     2.541
    54   1 H        0.926     0.025     2.657     2.549
    55   1 H        0.926     0.032     2.560     2.502
    56   1 H        0.925     0.041     2.433     2.439
    57   1 H        0.925     0.041     2.431     2.438
    58   1 H        0.925     0.030     2.589     2.516
    59   1 H        0.925     0.041     2.433     2.439
    60   1 H        0.925     0.029     2.596     2.520
    61   1 H        0.925     0.041     2.433     2.439
    62   1 H        0.926     0.032     2.560     2.502
    63   1 H        0.926     0.025     2.657     2.549
    64   1 H        0.926     0.026     2.644     2.543
    65   1 H        0.926     0.021     2.717     2.578
    66   1 H        0.926     0.048     2.340     2.392
    67   1 H        0.926     0.022     2.697     2.568
    68   1 H        0.926     0.026     2.640     2.541
    69   1 H        0.926     0.025     2.656     2.549
    70   1 H        0.926     0.032     2.560     2.502

molecular dipole:
                 x           y           z       tot (Debye)
 q only:        0.002       0.077      -0.298
   full:        0.002       0.085      -0.338       0.885

 projected vibrational frequencies (cm⁻¹)
eigval :       -0.00    -0.00    -0.00     0.00     0.00     0.00
eigval :      -10.25    13.44    19.92    26.95    42.25    61.46
eigval :       65.20    67.43    97.74    98.82   107.18   107.54
eigval :      136.69   136.96   143.05   195.38   198.42   198.75
eigval :      208.68   217.60   220.51   224.85   238.62   243.77
eigval :      250.29   266.71   307.04   308.89   331.03   331.15
eigval :      334.73   345.66   354.20   367.48   370.31   383.94
eigval :      385.25   408.14   410.25   429.39   436.53   450.81
eigval :      452.68   487.43   498.11   516.33   516.36   529.70
eigval :      543.58   546.47   548.14   548.64   569.60   586.01
eigval :      589.89   611.61   621.59   658.27   660.54   676.65
eigval :      677.51   683.00   683.10   694.23   694.45   721.60
eigval :      764.30   772.97   774.87   775.73   777.15   795.29
eigval :      824.36   826.04   860.62   862.50   865.42   867.31
eigval :      882.50   889.07   899.94   910.37   911.03   911.76
eigval :      912.56   916.94   917.98   918.47   919.65   919.68
eigval :      920.47   926.69   938.09   938.71   958.23   958.34
eigval :      995.62  1004.19  1015.35  1015.58  1076.67  1077.05
eigval :     1086.39  1086.57  1110.92  1112.25  1117.40  1117.99
eigval :     1120.74  1138.67  1139.76  1153.27  1158.35  1158.36
eigval :     1174.65  1175.16  1182.23  1184.30  1185.82  1186.86
eigval :     1187.27  1211.77  1236.72  1245.32  1246.86  1249.41
eigval :     1250.15  1264.57  1268.09  1292.94  1293.36  1296.42
eigval :     1297.85  1323.92  1324.64  1329.25  1333.42  1335.10
eigval :     1337.93  1338.34  1401.55  1401.64  1419.97  1420.13
eigval :     1424.69  1435.21  1436.45  1440.47  1441.15  1461.75
eigval :     1476.65  1478.15  1487.50  1487.61  1488.30  1488.36
eigval :     1493.45  1496.69  1497.61  1497.70  1503.57  1503.88
eigval :     1569.80  1573.71  1574.09  1579.43  1589.37  1589.74
eigval :     1590.61  1591.12  1600.79  1601.56  3020.91  3020.93
eigval :     3023.44  3023.45  3038.21  3038.34  3040.01  3040.15
eigval :     3046.91  3047.05  3050.65  3050.81  3071.26  3071.66
eigval :     3071.94  3072.05  3077.91  3078.30  3078.41  3078.46
eigval :     3085.23  3089.13  3089.39  3089.99  3090.23  3091.80
eigval :     3093.25  3097.74  3098.84  3099.84  3100.69  3101.45

   temp. (K)  partition function   enthalpy   heat capacity  entropy
                                   cal/mol     cal/K/mol   cal/K/mol   J/K/mol
 298.15  VIB  0.517E+14            18701.004    121.334    114.303
         ROT  0.349E+08              888.752      2.981     37.493
         INT  0.180E+22            19589.756    124.315    151.796
         TR   0.106E+29             1481.254      4.968     44.451
         TOT                       21071.0099   129.2830   196.2472   821.0982

       T/K    H(0)-H(T)+PV         H(T)/Eh          T*S/Eh         G(T)/Eh
   ------------------------------------------------------------------------
    298.15    0.335788E-01    0.600465E+00    0.932434E-01    0.507222E+00
   ------------------------------------------------------------------------

         :::::::::::::::::::::::::::::::::::::::::::::::::::::
         ::                  THERMODYNAMIC                  ::
         :::::::::::::::::::::::::::::::::::::::::::::::::::::
         :: total free energy         -98.847598923176 Eh   ::
         ::.................................................::
         :: total energy              -99.354820786450 Eh   ::
         :: zero point energy           0.566886435575 Eh   ::
         :: G(RRHO) w/o ZPVE           -0.059664572302 Eh   ::
         :: G(RRHO) contrib.            0.507221863274 Eh   ::
         :::::::::::::::::::::::::::::::::::::::::::::::::::::

           -------------------------------------------------
          | TOTAL ENERGY              -99.354820786450 Eh   |
          | TOTAL ENTHALPY            -98.754355559244 Eh   |
          | TOTAL FREE ENERGY         -98.847598923176 Eh   |
          | GRADIENT NORM               0.000051843306 Eh/α |
          | HOMO-LUMO GAP               2.752772944071 eV   |
           -------------------------------------------------

 * finished run on 2025/08/22 at 17:16:43.385
