   * xtb version 6.7.1 (edcfbbe) compiled by 'albert@albert-system' on 2024-07-22

   ID    Z sym.   atoms
    1    6 C      1-9, 11-15, 17-38
    2    7 N      10, 16
    3    1 H      39-70

          program call               : xtb data2507/toluene/mAP/mAP.xyz --gfn 2 --gbsa toluene --ohess vtight --parallel 40 --molden --ceasefiles --namespace data2507/toluene/mAP/mAP_toluene_S0_preOpt
      * Solvation model:               GBSA
        Solvent                        toluene
        Solvent mass                       9.2140E+01 g/mol
          :  Hamiltonian                  GFN2-xTB          :
 * total energy  :   -99.3314405 Eh     change       -0.3453692E-08 Eh
 * total energy  :   -99.3479125 Eh     change       -0.1647201E-01 Eh
 * total energy  :   -99.3534018 Eh     change       -0.5489339E-02 Eh
 * total energy  :   -99.3542732 Eh     change       -0.8713736E-03 Eh
 * total energy  :   -99.3546866 Eh     change       -0.4133482E-03 Eh
 * total energy  :   -99.3547768 Eh     change       -0.9025452E-04 Eh
 * total energy  :   -99.3548069 Eh     change       -0.3012842E-04 Eh
 * total energy  :   -99.3548273 Eh     change       -0.2040257E-04 Eh
 * total energy  :   -99.3548184 Eh     change        0.8974379E-05 Eh
 * total energy  :   -99.3548330 Eh     change       -0.1463859E-04 Eh
 * total energy  :   -99.3548532 Eh     change       -0.3730336E-05 Eh
 * total energy  :   -99.3548569 Eh     change       -0.3768732E-05 Eh
 * total energy  :   -99.3548614 Eh     change       -0.4485786E-05 Eh
 * total energy  :   -99.3548670 Eh     change       -0.5612771E-05 Eh
 * total energy  :   -99.3548717 Eh     change       -0.4691028E-05 Eh
 * total energy  :   -99.3548728 Eh     change       -0.1122761E-05 Eh
 * total energy  :   -99.3548733 Eh     change       -0.4043680E-06 Eh
 * total energy  :   -99.3548736 Eh     change       -0.3471532E-06 Eh
 * total energy  :   -99.3548736 Eh     change       -0.3621864E-08 Eh
   *** GEOMETRY OPTIMIZATION CONVERGED AFTER 22 ITERATIONS ***

 final structure:
================
70
 xtb: 6.7.1 (edcfbbe)
C            6.37463110591712        0.00063390722488        0.08572761684917
C            5.00538719509703        0.00041460671345        0.79120184210553
C            5.19504066446625        0.00077918480674        2.31997233785457
C            4.25390595938439       -1.25745237761502        0.39475737463393
C            4.79471982513725       -2.50135452175415        0.69091056056270
C            4.15433907668641       -3.68096562415457        0.35652756655904
C            2.93493524816541       -3.62769142425649       -0.29450586068175
C            2.37632282947740       -2.40527888936260       -0.60398052231552
C            3.02213931571599       -1.21204668034976       -0.26722002834221
N            2.43428197073608       -0.00056152191425       -0.59349248171100
C            1.20099362608640       -0.00103888048862       -1.30382626190917
C            1.20026416596753       -0.00197660079464       -2.69390581573495
C           -0.00009613465327       -0.00242320637386       -3.38321237935836
C           -1.20041285037784       -0.00190026874255       -2.69382907958285
C           -1.20105441815095       -0.00096163617786       -1.30375015327831
N           -2.43430155330120       -0.00039184809360       -0.59334521658361
C           -3.02133465279843        1.21159308557527       -0.26744507227535
C           -2.37479890595695        2.40428991169684       -0.60471914796594
C           -2.93257904136870        3.62717263907893       -0.29560544773192
C           -4.15186868767047        3.68146805483683        0.35555568725729
C           -4.79300607372254        2.50239054181346        0.69036801492028
C           -4.25303581876067        1.25803307888713        0.39458773556395
C           -5.00539363397499        0.00079643501926        0.79137037859350
C           -6.37456089519453        0.00128268240257        0.08574580268807
C           -5.19520881417956        0.00102577395149        2.32011929043816
C           -4.25405601580182       -1.25713307338226        0.39485244605142
C           -4.79502087035813       -2.50099082687717        0.69091536982107
C           -4.15478852754737       -3.68065558032514        0.35643759724620
C           -2.93538541678214       -3.62748220964959       -0.29460515525945
C           -2.37662723751850       -2.40511538001219       -0.60399698072130
C           -3.02229535782178       -1.21182923568160       -0.26714301629704
C           -0.00000794517310       -0.00055289666469       -0.60676701640648
C            3.02151893715496        1.21137614197054       -0.26778494980128
C            2.37516583205761        2.40412826155627       -0.60521345434365
C            2.93315838604504        3.62696643192400       -0.29630613609869
C            4.15247478585272        3.68115995558259        0.35481330418942
C            4.79342013518761        2.50202762306043        0.68979994908310
C            4.25324301055968        1.25771409160840        0.39421271628034
H            6.23608560396263        0.00047608220983       -0.99426550430670
H            6.95052746581781       -0.87974620270073        0.35746298209951
H            6.95013829706829        0.88133133475045        0.35725718322617
H            4.22473765746380        0.00043807961054        2.81413076837075
H            5.74378014451242        0.88128901923680        2.64236810571036
H            5.74456870716139       -0.87912192521318        2.64268788997118
H            5.74591496575502       -2.55901282397714        1.19828629612883
H            4.60428907798810       -4.63100939891280        0.60319310174308
H            2.41603239636323       -4.53611781562292       -0.56385001186386
H            1.42644206244168       -2.36924804526954       -1.11493811461108
H            2.14105704625767       -0.00235161400860       -3.22359261400798
H           -0.00013033383902       -0.00315147701227       -4.46261036372623
H           -2.14123889861226       -0.00221669073273       -3.22345685751941
H           -1.42502519575851        2.36746833204415       -1.11581587668134
H           -2.41311618631359        4.53516539715773       -0.56533292411079
H           -4.60116552986827        4.63188871413800        0.60195696232004
H           -5.74414014523697        2.56084871311326        1.19776613360797
H           -6.94995666027314        0.88205355829875        0.35727508914437
H           -6.23589513920218        0.00118086133385       -0.99423205595512
H           -6.95062130438457       -0.87902972634974        0.35735415373425
H           -5.74481888404973       -0.87887283539374        2.64269835954171
H           -4.22495801147064        0.00058591131044        2.81437986957088
H           -5.74393724352540        0.88153099180421        2.64254366889952
H           -5.74622316688732       -2.55857062525312        1.19828649640876
H           -4.60485207550965       -4.63066220706833        0.60303927494076
H           -2.41659466710422       -4.53595238856720       -0.56401747200009
H           -1.42674833271356       -2.36916132668267       -1.11496364753357
H            0.00002654805397        0.00018151502010        0.47336260954623
H            1.42536431027559        2.36738466274920       -1.11626428740086
H            2.41384107738455        4.53500411165383       -0.56616259183322
H            4.60193756627356        4.63154412310076        0.60105311701207
H            5.74456962938786        2.56040497019431        1.19717884527662

          :  Hamiltonian                  GFN2-xTB          :
         :: gradient norm              0.000046912883 Eh/a0 ::
         :: HOMO-LUMO gap              2.730557628422 eV    ::
         :: SCC energy              -101.154595021690 Eh    ::
         :: -> dispersion             -0.096641797793 Eh    ::
         :: -> Gsolv                  -0.036940462194 Eh    ::
         :: repulsion energy           1.799721419634 Eh    ::

    * Orbital Energies and Occupations

         #    Occupation            Energy/Eh            Energy/eV
      -------------------------------------------------------------
         1        2.0000           -0.6756569             -18.3856
       ...           ...                  ...                  ...
        81        2.0000           -0.4182612             -11.3815
        82        2.0000           -0.4084471             -11.1144
        83        2.0000           -0.4075341             -11.0896
        84        2.0000           -0.4064930             -11.0612
        85        2.0000           -0.4051229             -11.0240
        86        2.0000           -0.4024590             -10.9515
        87        2.0000           -0.4024312             -10.9507
        88        2.0000           -0.3971529             -10.8071
        89        2.0000           -0.3971447             -10.8069
        90        2.0000           -0.3918393             -10.6625
        91        2.0000           -0.3918268             -10.6622
        92        2.0000           -0.3470422              -9.4435
        93        2.0000           -0.3446070              -9.3772 (HOMO)
        94                         -0.2442608              -6.6467 (LUMO)
        95                         -0.2434488              -6.6246
        96                         -0.2233646              -6.0781
        97                         -0.2233456              -6.0775
        98                         -0.2184006              -5.9430
        99                         -0.2183448              -5.9415
       100                         -0.2174502              -5.9171
       101                         -0.2173167              -5.9135
       102                         -0.1897266              -5.1627
       103                         -0.1886349              -5.1330
       104                         -0.1161759              -3.1613
       ...                                ...                  ...
       184                          0.6808292              18.5263
      -------------------------------------------------------------
                  HL-Gap            0.1003461 Eh            2.7306 eV

     #   Z          covCN         q      C6AA      α(0)
     1   6 C        3.761    -0.103    22.515     6.764
     2   6 C        3.908     0.021    20.166     6.383
     3   6 C        3.761    -0.103    22.517     6.765
     4   6 C        2.979    -0.015    28.369     8.737
     5   6 C        2.928    -0.038    28.938     8.822
     6   6 C        2.917    -0.047    29.163     8.856
     7   6 C        2.919    -0.035    28.867     8.811
     8   6 C        2.924    -0.060    29.481     8.904
     9   6 C        2.928     0.059    26.681     8.471
    10   7 N        2.755    -0.076    22.709     7.078
    11   6 C        2.927     0.073    26.366     8.421
    12   6 C        2.921    -0.040    28.982     8.828
    13   6 C        2.919    -0.026    28.652     8.778
    14   6 C        2.921    -0.040    28.982     8.828
    15   6 C        2.927     0.073    26.366     8.421
    16   7 N        2.755    -0.076    22.709     7.078
    17   6 C        2.928     0.059    26.681     8.471
    18   6 C        2.924    -0.060    29.481     8.904
    19   6 C        2.919    -0.035    28.867     8.811
    20   6 C        2.917    -0.047    29.163     8.856
    21   6 C        2.928    -0.038    28.938     8.822
    22   6 C        2.979    -0.015    28.369     8.737
    23   6 C        3.908     0.021    20.166     6.383
    24   6 C        3.761    -0.103    22.515     6.764
    25   6 C        3.761    -0.103    22.517     6.765
    26   6 C        2.979    -0.015    28.369     8.737
    27   6 C        2.928    -0.038    28.938     8.822
    28   6 C        2.917    -0.047    29.163     8.856
    29   6 C        2.919    -0.035    28.867     8.811
    30   6 C        2.924    -0.060    29.481     8.904
    31   6 C        2.928     0.059    26.681     8.471
    32   6 C        2.923    -0.046    29.152     8.854
    33   6 C        2.928     0.059    26.681     8.471
    34   6 C        2.924    -0.060    29.481     8.904
    35   6 C        2.919    -0.035    28.867     8.811
    36   6 C        2.917    -0.047    29.163     8.856
    37   6 C        2.928    -0.038    28.938     8.822
    38   6 C        2.979    -0.015    28.369     8.737
    39   1 H        0.925     0.030     2.589     2.516
    40   1 H        0.925     0.041     2.433     2.439
    41   1 H        0.925     0.041     2.433     2.439
    42   1 H        0.925     0.029     2.596     2.520
    43   1 H        0.925     0.041     2.433     2.439
    44   1 H        0.925     0.041     2.433     2.439
    45   1 H        0.926     0.032     2.561     2.503
    46   1 H        0.926     0.025     2.658     2.549
    47   1 H        0.926     0.026     2.643     2.542
    48   1 H        0.926     0.021     2.722     2.580
    49   1 H        0.926     0.050     2.315     2.379
    50   1 H        0.926     0.053     2.278     2.360
    51   1 H        0.926     0.050     2.315     2.379
    52   1 H        0.926     0.021     2.722     2.580
    53   1 H        0.926     0.026     2.643     2.542
    54   1 H        0.926     0.025     2.658     2.549
    55   1 H        0.926     0.032     2.561     2.503
    56   1 H        0.925     0.041     2.433     2.439
    57   1 H        0.925     0.030     2.589     2.516
    58   1 H        0.925     0.041     2.433     2.439
    59   1 H        0.925     0.041     2.433     2.439
    60   1 H        0.925     0.029     2.596     2.520
    61   1 H        0.925     0.041     2.433     2.439
    62   1 H        0.926     0.032     2.561     2.503
    63   1 H        0.926     0.025     2.658     2.549
    64   1 H        0.926     0.026     2.643     2.542
    65   1 H        0.926     0.021     2.722     2.580
    66   1 H        0.926     0.049     2.330     2.387
    67   1 H        0.926     0.021     2.722     2.580
    68   1 H        0.926     0.026     2.643     2.542
    69   1 H        0.926     0.025     2.658     2.549
    70   1 H        0.926     0.032     2.561     2.503

molecular dipole:
                 x           y           z       tot (Debye)
 q only:       -0.000      -0.000      -0.350
   full:       -0.000      -0.000      -0.391       0.994

 projected vibrational frequencies (cm⁻¹)
eigval :       -0.00    -0.00     0.00     0.00     0.00     0.00
eigval :       -6.29    15.36    19.51    27.91    44.21    59.72
eigval :       60.97    64.35    97.34   100.28   101.11   104.30
eigval :      131.17   131.41   141.18   192.82   192.84   198.72
eigval :      209.86   220.38   220.65   220.86   238.13   238.30
eigval :      250.76   263.54   306.47   308.39   329.42   329.61
eigval :      334.17   344.84   353.05   368.11   370.95   383.71
eigval :      385.01   407.41   409.99   428.41   437.95   449.79
eigval :      450.85   485.32   499.26   514.69   514.82   525.74
eigval :      542.83   546.03   547.20   547.28   569.13   586.37
eigval :      589.92   612.14   621.49   659.40   660.75   677.14
eigval :      677.71   682.08   682.11   692.71   692.91   721.54
eigval :      764.05   772.03   773.26   774.61   775.47   796.25
eigval :      824.13   825.95   859.18   859.83   863.66   864.24
eigval :      886.88   889.37   898.13   910.05   910.84   910.89
eigval :      911.65   917.40   918.28   918.44   919.10   919.19
eigval :      919.29   929.99   938.36   938.93   958.38   958.53
eigval :      995.89  1003.40  1014.95  1015.00  1076.92  1077.11
eigval :     1085.99  1087.02  1109.86  1111.61  1116.62  1117.44
eigval :     1118.55  1138.66  1139.72  1151.78  1158.59  1158.61
eigval :     1173.04  1174.66  1183.51  1183.81  1184.41  1186.03
eigval :     1186.59  1212.16  1236.27  1245.20  1246.87  1247.78
eigval :     1248.46  1263.64  1267.31  1292.75  1292.85  1296.24
eigval :     1297.79  1324.31  1324.44  1330.11  1333.47  1335.84
eigval :     1339.16  1339.44  1401.54  1401.55  1420.48  1420.63
eigval :     1425.48  1435.15  1436.31  1440.68  1440.93  1461.63
eigval :     1477.01  1478.55  1486.84  1486.84  1488.19  1488.24
eigval :     1493.91  1496.30  1496.39  1497.11  1503.50  1503.82
eigval :     1571.53  1573.71  1573.77  1581.04  1589.42  1589.97
eigval :     1590.24  1590.80  1600.55  1601.32  3020.93  3020.93
eigval :     3023.49  3023.50  3038.01  3038.02  3039.78  3039.84
eigval :     3046.50  3046.51  3050.24  3050.27  3071.04  3071.10
eigval :     3071.13  3071.19  3077.83  3077.86  3077.96  3077.97
eigval :     3085.40  3088.44  3088.47  3088.75  3088.93  3092.79
eigval :     3093.46  3096.32  3096.67  3097.51  3097.83  3101.19

   temp. (K)  partition function   enthalpy   heat capacity  entropy
                                   cal/mol     cal/K/mol   cal/K/mol   J/K/mol
 298.15  VIB  0.947E+14            18766.598    121.378    115.318
         ROT  0.175E+08              888.752      2.981     36.122
         INT  0.166E+22            19655.350    124.359    151.441
         TR   0.106E+29             1481.254      4.968     44.451
         TOT                       21136.6041   129.3270   195.8916   819.6105

       T/K    H(0)-H(T)+PV         H(T)/Eh          T*S/Eh         G(T)/Eh
   ------------------------------------------------------------------------
    298.15    0.336833E-01    0.600314E+00    0.930744E-01    0.507240E+00
   ------------------------------------------------------------------------

         :::::::::::::::::::::::::::::::::::::::::::::::::::::
         ::                  THERMODYNAMIC                  ::
         :::::::::::::::::::::::::::::::::::::::::::::::::::::
         :: total free energy         -98.847633883334 Eh   ::
         ::.................................................::
         :: total energy              -99.354873602031 Eh   ::
         :: zero point energy           0.566630819295 Eh   ::
         :: G(RRHO) w/o ZPVE           -0.059391100597 Eh   ::
         :: G(RRHO) contrib.            0.507239718698 Eh   ::
         :::::::::::::::::::::::::::::::::::::::::::::::::::::

           -------------------------------------------------
          | TOTAL ENERGY              -99.354873602031 Eh   |
          | TOTAL ENTHALPY            -98.754559459989 Eh   |
          | TOTAL FREE ENERGY         -98.847633883334 Eh   |
          | GRADIENT NORM               0.000046906936 Eh/α |
          | HOMO-LUMO GAP               2.730557626691 eV   |
           -------------------------------------------------

 * finished run on 2025/08/22 at 17:14:18.013
