   * xtb version 6.7.1 (edcfbbe) compiled by 'albert@albert-system' on 2024-07-22

   ID    Z sym.   atoms
    1    6 C      1-9, 11-15, 17-38
    2    7 N      10, 16
    3    1 H      39-70

          program call               : xtb data2507/toluene/mAP/mAP_toluene_T1_crest.xyz --gfn 2 --uhf 2 --gbsa toluene --ohess vtight --parallel 40 --molden --ceasefiles --namespace data2507/toluene/mAP/mAP_toluene_T1_finalOpt
      * Solvation model:               GBSA
        Solvent                        toluene
        Solvent mass                       9.2140E+01 g/mol
          :  Hamiltonian                  GFN2-xTB          :
 * total energy  :   -99.2408421 Eh     change       -0.1034465E-07 Eh
 * total energy  :   -99.2408926 Eh     change       -0.5048882E-04 Eh
 * total energy  :   -99.2409216 Eh     change       -0.2893261E-04 Eh
 * total energy  :   -99.2409371 Eh     change       -0.1548654E-04 Eh
 * total energy  :   -99.2409583 Eh     change       -0.2122901E-04 Eh
 * total energy  :   -99.2409661 Eh     change       -0.7813084E-05 Eh
 * total energy  :   -99.2409730 Eh     change       -0.6931436E-05 Eh
 * total energy  :   -99.2409791 Eh     change       -0.6069339E-05 Eh
 * total energy  :   -99.2409871 Eh     change       -0.8004162E-05 Eh
 * total energy  :   -99.2409982 Eh     change       -0.1110226E-04 Eh
 * total energy  :   -99.2411058 Eh     change       -0.1457886E-05 Eh
 * total energy  :   -99.2411076 Eh     change       -0.1757390E-05 Eh
 * total energy  :   -99.2411091 Eh     change       -0.1507112E-05 Eh
 * total energy  :   -99.2411101 Eh     change       -0.9770625E-06 Eh
 * total energy  :   -99.2411108 Eh     change       -0.7466999E-06 Eh
 * total energy  :   -99.2411114 Eh     change       -0.6018693E-06 Eh
 * total energy  :   -99.2411119 Eh     change       -0.4644046E-06 Eh
 * total energy  :   -99.2411123 Eh     change       -0.3567222E-06 Eh
 * total energy  :   -99.2411123 Eh     change       -0.1122275E-07 Eh
   *** GEOMETRY OPTIMIZATION CONVERGED AFTER 44 ITERATIONS ***

 final structure:
================
70
 xtb: 6.7.1 (edcfbbe)
C            6.31385484614876        0.29593706241039        0.36926415649449
C            4.90762719957768        0.22079467188778        0.99786138553182
C            5.00674892177494        0.38450968506729        2.52792714550051
C            4.31134209466746       -1.13671346583993        0.69713950048502
C            4.94760655809644       -2.28522747158983        1.13642553609879
C            4.43100286046135       -3.55105598486647        0.90644107651035
C            3.22220250557603       -3.68247140889783        0.22237923299322
C            2.56545483143833       -2.56433279487233       -0.22558843266980
C            3.09689550358501       -1.27713151532627       -0.01545788545605
N            2.42325110365039       -0.17478202404216       -0.48891011213560
C            1.19388646660467       -0.36511679769308       -1.17975316120243
C            1.20163389053746       -0.76123544961442       -2.53866281112170
C           -0.00122181138646       -0.93023414004755       -3.19909132734989
C           -1.20651536657910       -0.72405797344119       -2.55554176516803
C           -1.20622614689433       -0.32908070867850       -1.19605007511788
N           -2.43768210945518       -0.10235049748439       -0.52095648206041
C           -2.85362823836831        1.19258014257516       -0.31499685817186
C           -2.10769148266630        2.26158283377578       -0.85091234748146
C           -2.47748541315921        3.56320567956007       -0.63285379955939
C           -3.61397784640637        3.84495259811304        0.12778236813468
C           -4.37056996540098        2.79697320268834        0.63147319516942
C           -4.02877315140451        1.47245495166393        0.42444698093336
C           -4.90967914201487        0.36812546264959        0.96492368588964
C           -6.31133324247677        0.51203878758565        0.33804918436290
C           -5.00258263726669        0.50888513492718        2.49768209464442
C           -4.36953004415048       -1.00699163714535        0.63988985316846
C           -5.05444149676290       -2.13599250885522        1.05613100887684
C           -4.59086699491068       -3.41776335216750        0.80310488646160
C           -3.38548574471564       -3.58684786254572        0.12065907035038
C           -2.68041043666401       -2.48898402232933       -0.30308430115395
C           -3.15874365887790       -1.18466359031424       -0.07148515864912
C           -0.00720962760715       -0.15334270480899       -0.52309461366607
C            2.88802354870356        1.10618219372353       -0.29936013020895
C            2.18432852522394        2.19496367010372       -0.85108915541669
C            2.60618119112509        3.48440141877027       -0.65425413887532
C            3.75379080451997        3.73243410093330        0.10054764596402
C            4.46739364761098        2.66359623876059        0.62223423724001
C            4.07212932274208        1.35044232057726        0.43733345502508
H            6.24360358502000        0.17988338786378       -0.71089317873633
H            6.95320675303430       -0.49077609003131        0.75930269344115
H            6.78042434362738        1.25345637984133        0.58223716207247
H            4.01471536963565        0.32669885150954        2.97250643391245
H            5.44380868069655        1.34492913199011        2.78535614700503
H            5.62315215879691       -0.39844752118561        2.96020239949560
H            5.87709902870343       -2.20357862671985        1.67949496239776
H            4.95576890068301       -4.42454105169667        1.26145751688783
H            2.80045057399023       -4.66114730382575        0.04783124912412
H            1.62722132077656       -2.66494197392058       -0.74799998682219
H            2.14427935478698       -0.91713809771723       -3.03869252039889
H            0.00148034820289       -1.22773903783978       -4.23816308480498
H           -2.14656770127079       -0.85065850895297       -3.06877215233835
H           -1.23645199172925        2.04200054392771       -1.44764540537889
H           -1.89109411311823        4.36764040601238       -1.05152661450305
H           -3.90924563721908        4.86626257541919        0.31201444842397
H           -5.25756653562969        3.03489024586840        1.19930390067218
H           -6.98276680881178       -0.25456659047981        0.71384248264234
H           -6.73804087736690        1.48397157578615        0.56839795513564
H           -6.24518431537378        0.41255013363685       -0.74401763050190
H           -5.64787041408631       -0.25782315043263        2.91673932012579
H           -4.01333947811029        0.40618730577275        2.94037303040803
H           -5.40304738055231        1.48054656374869        2.77201020647604
H           -5.98136621184525       -2.02586471185957        1.59858828424380
H           -5.15352394404631       -4.27498804843986        1.13922445820405
H           -3.00449516436988       -4.57889186855172       -0.07132581885748
H           -1.74479402608939       -2.61933795936686       -0.82346366988880
H           -0.00949748655609        0.15318370710123        0.51379070765518
H            1.30380600636675        2.00102314893084       -1.44297098784423
H            2.05143281931030        4.30461648033307       -1.08523220639978
H            4.09047437225798        4.74390780323657        0.26725771734298
H            5.36300783421120        2.87498562394234        1.18696924054412

          :  Hamiltonian                  GFN2-xTB          :
         :: gradient norm              0.000058128249 Eh/a0 ::
         :: HOMO-LUMO gap              0.023509376348 eV    ::
         :: SCC energy              -101.017010273590 Eh    ::
         :: -> dispersion             -0.096664614623 Eh    ::
         :: -> Gsolv                  -0.036731584190 Eh    ::
         :: repulsion energy           1.775898007564 Eh    ::

    * Orbital Energies and Occupations

         #    Occupation            Energy/Eh            Energy/eV
      -------------------------------------------------------------
         1        2.0000           -0.6700965             -18.2343
       ...           ...                  ...                  ...
        82        2.0000           -0.4083269             -11.1111
        83        2.0000           -0.4057725             -11.0416
        84        2.0000           -0.4053695             -11.0307
        85        2.0000           -0.4022397             -10.9455
        86        2.0000           -0.4011599             -10.9161
        87        2.0000           -0.3997671             -10.8782
        88        2.0000           -0.3996722             -10.8756
        89        2.0000           -0.3951115             -10.7515
        90        2.0000           -0.3947196             -10.7409
        91        2.0000           -0.3916519             -10.6574
        92        1.7746           -0.3497416              -9.5170
        93        1.2254           -0.3473962              -9.4531
        94        0.5118           -0.2299818              -6.2581 (HOMO)
        95        0.2969           -0.2291177              -6.2346 (LUMO)
        96        0.1902           -0.2285603              -6.2194
        97        0.0011           -0.2234426              -6.0802
        98        0.0000           -0.2191466              -5.9633
        99        0.0000           -0.2189671              -5.9584
       100        0.0000           -0.2177057              -5.9241
       101        0.0000           -0.2171643              -5.9093
       102                         -0.1939582              -5.2779
       103                         -0.1921600              -5.2289
       104                         -0.1008836              -2.7452
       105                         -0.0952116              -2.5908
       ...                                ...                  ...
       184                          0.6732507              18.3201
      -------------------------------------------------------------
                  HL-Gap            0.0008641 Eh            0.0235 eV

     #   Z          covCN         q      C6AA      α(0)
     1   6 C        3.761    -0.103    22.510     6.763
     2   6 C        3.909     0.023    20.135     6.378
     3   6 C        3.761    -0.103    22.509     6.763
     4   6 C        2.976    -0.011    28.275     8.722
     5   6 C        2.922    -0.038    28.937     8.822
     6   6 C        2.916    -0.046    29.143     8.852
     7   6 C        2.915    -0.036    28.905     8.816
     8   6 C        2.920    -0.051    29.277     8.873
     9   6 C        2.929     0.049    26.906     8.507
    10   7 N        2.753    -0.023    21.685     6.916
    11   6 C        2.928     0.038    27.140     8.544
    12   6 C        2.915    -0.064    29.593     8.920
    13   6 C        2.914    -0.031    28.763     8.794
    14   6 C        2.915    -0.063    29.577     8.918
    15   6 C        2.928     0.037    27.161     8.547
    16   7 N        2.753    -0.021    21.663     6.913
    17   6 C        2.929     0.046    26.958     8.515
    18   6 C        2.919    -0.051    29.261     8.871
    19   6 C        2.915    -0.036    28.899     8.815
    20   6 C        2.916    -0.047    29.178     8.858
    21   6 C        2.922    -0.038    28.939     8.822
    22   6 C        2.976    -0.011    28.279     8.723
    23   6 C        3.909     0.023    20.134     6.378
    24   6 C        3.761    -0.103    22.510     6.763
    25   6 C        3.761    -0.103    22.507     6.763
    26   6 C        2.976    -0.011    28.276     8.722
    27   6 C        2.922    -0.038    28.937     8.822
    28   6 C        2.916    -0.046    29.142     8.852
    29   6 C        2.915    -0.037    28.910     8.817
    30   6 C        2.919    -0.051    29.275     8.873
    31   6 C        2.929     0.049    26.912     8.508
    32   6 C        2.917    -0.047    29.158     8.855
    33   6 C        2.929     0.047    26.943     8.512
    34   6 C        2.920    -0.051    29.264     8.871
    35   6 C        2.915    -0.036    28.895     8.815
    36   6 C        2.916    -0.047    29.171     8.857
    37   6 C        2.922    -0.038    28.937     8.822
    38   6 C        2.976    -0.011    28.279     8.723
    39   1 H        0.925     0.033     2.550     2.497
    40   1 H        0.925     0.045     2.380     2.413
    41   1 H        0.925     0.045     2.382     2.414
    42   1 H        0.925     0.032     2.554     2.499
    43   1 H        0.925     0.045     2.381     2.413
    44   1 H        0.925     0.045     2.382     2.413
    45   1 H        0.926     0.034     2.529     2.487
    46   1 H        0.926     0.027     2.623     2.533
    47   1 H        0.926     0.028     2.614     2.528
    48   1 H        0.926     0.031     2.566     2.505
    49   1 H        0.926     0.026     2.651     2.546
    50   1 H        0.926     0.030     2.583     2.513
    51   1 H        0.926     0.026     2.646     2.544
    52   1 H        0.926     0.029     2.607     2.525
    53   1 H        0.926     0.027     2.626     2.534
    54   1 H        0.926     0.026     2.637     2.539
    55   1 H        0.926     0.033     2.538     2.491
    56   1 H        0.925     0.045     2.379     2.412
    57   1 H        0.925     0.045     2.381     2.413
    58   1 H        0.925     0.033     2.549     2.497
    59   1 H        0.925     0.045     2.382     2.414
    60   1 H        0.925     0.032     2.554     2.499
    61   1 H        0.925     0.045     2.380     2.413
    62   1 H        0.926     0.034     2.529     2.487
    63   1 H        0.926     0.027     2.624     2.533
    64   1 H        0.926     0.028     2.615     2.529
    65   1 H        0.926     0.032     2.563     2.503
    66   1 H        0.925     0.030     2.586     2.515
    67   1 H        0.926     0.029     2.605     2.524
    68   1 H        0.926     0.027     2.623     2.533
    69   1 H        0.926     0.027     2.634     2.538
    70   1 H        0.926     0.034     2.535     2.490

molecular dipole:
                 x           y           z       tot (Debye)
 q only:        0.005       0.089       0.561
   full:        0.005       0.083       0.519       1.336

 projected vibrational frequencies (cm⁻¹)
eigval :       -0.00    -0.00     0.00     0.00     0.00     0.00
eigval :       -4.84    11.09    17.22    21.50    47.06    54.68
eigval :       63.44    65.47    87.10    92.00    94.48   104.81
eigval :      137.23   140.19   147.81   187.72   191.45   206.16
eigval :      211.60   216.32   217.63   220.89   227.23   238.52
eigval :      245.69   273.82   304.51   308.41   323.61   324.99
eigval :      329.54   342.47   355.87   359.11   360.59   383.90
eigval :      385.31   394.41   396.53   404.30   413.12   414.66
eigval :      423.62   434.46   488.78   489.47   492.32   498.28
eigval :      521.62   529.73   530.39   538.15   543.07   559.13
eigval :      580.68   582.58   601.27   619.16   629.64   634.02
eigval :      654.51   660.32   660.58   674.59   674.72   713.19
eigval :      722.35   739.33   743.72   745.43   746.81   749.13
eigval :      771.35   797.93   801.99   821.07   821.65   839.98
eigval :      840.18   841.82   845.70   871.52   875.07   896.40
eigval :      897.98   899.00   899.38   899.68   901.46   902.70
eigval :      903.62   904.27   905.38   916.19   932.96   940.84
eigval :      957.06   957.54   959.66   992.96  1012.17  1012.55
eigval :     1058.06  1059.10  1075.62  1076.16  1087.11  1088.84
eigval :     1094.61  1111.64  1117.87  1132.82  1133.74  1142.62
eigval :     1142.92  1154.58  1157.35  1164.98  1167.17  1174.29
eigval :     1175.49  1194.10  1199.95  1201.49  1205.69  1209.88
eigval :     1235.85  1237.00  1244.12  1260.44  1275.49  1289.64
eigval :     1290.01  1308.74  1309.65  1318.03  1319.62  1329.28
eigval :     1330.66  1331.44  1337.94  1344.28  1345.81  1346.75
eigval :     1354.32  1366.60  1394.64  1396.32  1396.43  1412.87
eigval :     1414.75  1415.44  1416.31  1426.64  1428.99  1444.72
eigval :     1447.81  1459.22  1459.31  1470.15  1476.34  1484.23
eigval :     1485.02  1485.44  1485.60  1495.08  1495.48  1498.42
eigval :     1498.73  1518.65  1521.45  1567.51  3023.16  3023.22
eigval :     3025.56  3025.60  3041.92  3042.27  3043.63  3044.06
eigval :     3049.61  3049.96  3053.13  3053.69  3068.76  3073.68
eigval :     3075.50  3076.25  3076.71  3076.96  3078.60  3079.17
eigval :     3079.59  3080.25  3092.40  3092.59  3093.03  3093.99
eigval :     3094.35  3099.72  3101.63  3101.70  3103.25  3104.35

   temp. (K)  partition function   enthalpy   heat capacity  entropy
                                   cal/mol     cal/K/mol   cal/K/mol   J/K/mol
 298.15  VIB  0.409E+15            19339.631    125.646    119.056
         ROT  0.346E+08              888.752      2.981     37.479
         INT  0.142E+23            20228.383    128.627    156.535
         TR   0.106E+29             1481.254      4.968     44.451
         TOT                       21709.6371   133.5950   200.9858   840.9246

       T/K    H(0)-H(T)+PV         H(T)/Eh          T*S/Eh         G(T)/Eh
   ------------------------------------------------------------------------
    298.15    0.345965E-01    0.590570E+00    0.954948E-01    0.495075E+00
   ------------------------------------------------------------------------

         :::::::::::::::::::::::::::::::::::::::::::::::::::::
         ::                  THERMODYNAMIC                  ::
         :::::::::::::::::::::::::::::::::::::::::::::::::::::
         :: total free energy         -98.746037496607 Eh   ::
         ::.................................................::
         :: total energy              -99.241112264003 Eh   ::
         :: zero point energy           0.555973100440 Eh   ::
         :: G(RRHO) w/o ZPVE           -0.060898333044 Eh   ::
         :: G(RRHO) contrib.            0.495074767396 Eh   ::
         :::::::::::::::::::::::::::::::::::::::::::::::::::::

           -------------------------------------------------
          | TOTAL ENERGY              -99.241112264003 Eh   |
          | TOTAL ENTHALPY            -98.650542654659 Eh   |
          | TOTAL FREE ENERGY         -98.746037496607 Eh   |
          | GRADIENT NORM               0.000057993639 Eh/α |
          | HOMO-LUMO GAP               0.023512616566 eV   |
           -------------------------------------------------

 * finished run on 2025/08/22 at 17:20:42.777
