   * xtb version 6.7.1 (edcfbbe) compiled by 'albert@albert-system' on 2024-07-22

   ID    Z sym.   atoms
    1    6 C      1-9, 11-15, 17-38
    2    7 N      10, 16
    3    1 H      39-70

          program call               : xtb data2507/toluene/mAP/mAP_toluene_S0_finalOpt.xtbopt.xyz --gfn 2 --uhf 2 --gbsa toluene --ohess vtight --parallel 40 --molden --ceasefiles --namespace data2507/toluene/mAP/mAP_toluene_T1_preOpt
      * Solvation model:               GBSA
        Solvent                        toluene
        Solvent mass                       9.2140E+01 g/mol
          :  Hamiltonian                  GFN2-xTB          :
 * total energy  :   -99.2382735 Eh     change       -0.2825956E-08 Eh
 * total energy  :   -99.2404245 Eh     change       -0.2151010E-02 Eh
 * total energy  :   -99.2409038 Eh     change       -0.4792949E-03 Eh
 * total energy  :   -99.2410043 Eh     change       -0.1004622E-03 Eh
 * total energy  :   -99.2410587 Eh     change       -0.5447923E-04 Eh
 * total energy  :   -99.2410766 Eh     change       -0.1784592E-04 Eh
 * total energy  :   -99.2410824 Eh     change       -0.5773504E-05 Eh
 * total energy  :   -99.2410856 Eh     change       -0.3215877E-05 Eh
 * total energy  :   -99.2410877 Eh     change       -0.2139149E-05 Eh
 * total energy  :   -99.2410914 Eh     change       -0.3683815E-05 Eh
 * total energy  :   -99.2410951 Eh     change       -0.1079485E-05 Eh
 * total energy  :   -99.2410956 Eh     change       -0.4721600E-06 Eh
 * total energy  :   -99.2410960 Eh     change       -0.4117930E-06 Eh
 * total energy  :   -99.2410964 Eh     change       -0.4486528E-06 Eh
 * total energy  :   -99.2410968 Eh     change       -0.4050060E-06 Eh
 * total energy  :   -99.2410972 Eh     change       -0.3785363E-06 Eh
 * total energy  :   -99.2410976 Eh     change       -0.4074571E-06 Eh
 * total energy  :   -99.2410981 Eh     change       -0.5163138E-06 Eh
 * total energy  :   -99.2410981 Eh     change       -0.4690293E-08 Eh
   *** GEOMETRY OPTIMIZATION CONVERGED AFTER 22 ITERATIONS ***

 final structure:
================
70
 xtb: 6.7.1 (edcfbbe)
C            6.34425553111559       -0.37229825768988        0.27363304500759
C            4.96251914890273       -0.25457629264518        0.94841359450209
C            5.11445838155065       -0.35906810531738        2.47938871898109
C            4.09395475895263       -1.39473428339994        0.46467951236648
C            4.48181335625573       -2.70413357495301        0.68757456012599
C            3.73553997113449       -3.78435060302945        0.24006823212863
C            2.56051791800181       -3.55250602417821       -0.47677935978682
C            2.14808263478698       -2.26690233910285       -0.71430017236165
C            2.88616799957194       -1.16526820779748       -0.23777296462870
N            2.43397760383305        0.11319833543962       -0.47025724249414
C            1.20111667655120        0.29529141082347       -1.15707332455398
C            1.20706011235041        0.64705990939263       -2.52818217917397
C            0.00431678462173        0.81620463309323       -3.18755769788456
C           -1.20080776509264        0.65284459198349       -2.53068997624967
C           -1.19923483490202        0.30094231770950       -1.15965014635288
N           -2.43435387174658        0.12430109202586       -0.47537130603966
C           -3.13103466076318        1.23860993774906       -0.06795785558121
C           -2.60256502720900        2.52148375092251       -0.31297675290529
C           -3.28163944727788        3.65080097643100        0.06795878713971
C           -4.51121061915798        3.53681488504580        0.71734485320720
C           -5.02583082038114        2.27640771385886        0.98153773346027
C           -4.36751700651349        1.11690529867489        0.60964175032033
C           -4.96583080463395       -0.23255586198660        0.94071927955197
C           -6.34792298116544       -0.34129401364271        0.26516501637903
C           -5.11889605268332       -0.33943043113620        2.47141859467018
C           -4.10334093948501       -1.37644466584195        0.45489020455753
C           -4.49860720320600       -2.68417212368348        0.67463396882521
C           -3.75806384754635       -3.76748220402787        0.22514029978134
C           -2.58127614230756       -3.54056539030273       -0.49032913934823
C           -2.16142250278208       -2.25672680650537       -0.72449287304469
C           -2.89386463363659       -1.15214243409233       -0.24621570126154
C           -0.00029788496300        0.12607789058848       -0.48699299247891
C            3.13641832094395        1.22449986283198       -0.06449973495140
C            2.61516602827973        2.50983460061814       -0.31248919316110
C            3.30028244737391        3.63615677731046        0.06637919270847
C            4.52892506278687        3.51676735033767        0.71660835618459
C            5.03637714003453        2.25405885591174        0.98387549217003
C            4.37183232037768        1.09744534628133        0.61417476821504
H            6.23634876982702       -0.29916350893153       -0.80718991248468
H            6.80820415315387       -1.32583184705299        0.50893778608894
H            7.00557139097761        0.42195224538654        0.60772640244757
H            4.13944201015290       -0.27147942290820        2.95559026849152
H            5.75448962297459        0.43254383460832        2.85826308668272
H            5.54960481510243       -1.31402073048337        2.75965427216840
H            5.39701696549931       -2.90344796807750        1.22452370935407
H            4.06681708106843       -4.79236353915957        0.43598244634347
H            1.97797673791025       -4.38249256568737       -0.84827901124102
H            1.24837713823687       -2.08634625301775       -1.28092275461485
H            2.14943229698757        0.77188349887924       -3.03750344346144
H            0.00605338286247        1.08064739486478       -4.23550565729884
H           -2.14149374492141        0.78216355628419       -3.04197149408424
H           -1.64846924124716        2.60929065012597       -0.80815651310873
H           -2.86163397418231        4.62528729555354       -0.13255493793128
H           -5.05393132048162        4.41921566799297        1.01932514277448
H           -5.97224606642490        2.20893168142063        1.49661727231231
H           -6.81753715323078       -1.29243379696861        0.49891704095799
H           -7.00477510167638        0.45633076788811        0.60004490370269
H           -6.23907951300492       -0.26730719655327       -0.81550496664021
H           -5.55832832261727       -1.29303369974916        2.74959294909881
H           -4.14371434741162       -0.25704214321742        2.94821497699091
H           -5.75562659290531        0.45421756089747        2.85160212793424
H           -5.41520691813431       -2.87955310453358        1.21063922054057
H           -4.09509203022736       -4.77408853777384        0.41846728062216
H           -2.00309863806808       -4.37294588371531       -0.86329098357385
H           -1.26016853046560       -2.07987420752784       -1.28983224309672
H           -0.00213248138543       -0.14503257482203        0.55971605908213
H            1.66179154066749        2.60188154132625       -0.80826424277715
H            2.88577858750197        4.61253107697516       -0.13641969036309
H            5.07644024785249        4.39678277485504        1.01688296148560
H            5.98213094505268        2.18251555320626        1.49962618927443

          :  Hamiltonian                  GFN2-xTB          :
         :: gradient norm              0.000061993755 Eh/a0 ::
         :: HOMO-LUMO gap              0.015962811363 eV    ::
         :: SCC energy              -101.016828802571 Eh    ::
         :: -> dispersion             -0.096719970537 Eh    ::
         :: -> Gsolv                  -0.036737970709 Eh    ::
         :: repulsion energy           1.775730658867 Eh    ::

    * Orbital Energies and Occupations

         #    Occupation            Energy/Eh            Energy/eV
      -------------------------------------------------------------
         1        2.0000           -0.6700855             -18.2340
       ...           ...                  ...                  ...
        82        2.0000           -0.4084148             -11.1135
        83        2.0000           -0.4057224             -11.0403
        84        2.0000           -0.4052005             -11.0261
        85        2.0000           -0.4022476             -10.9457
        86        2.0000           -0.4012504             -10.9186
        87        2.0000           -0.3998048             -10.8792
        88        2.0000           -0.3997786             -10.8785
        89        2.0000           -0.3951481             -10.7525
        90        2.0000           -0.3947606             -10.7420
        91        2.0000           -0.3916965             -10.6586
        92        1.7638           -0.3497047              -9.5159
        93        1.2362           -0.3474744              -9.4553
        94        0.4517           -0.2297377              -6.2515 (HOMO)
        95        0.3076           -0.2291510              -6.2355 (LUMO)
        96        0.2396           -0.2288246              -6.2266
        97        0.0012           -0.2235256              -6.0824
        98        0.0000           -0.2190846              -5.9616
        99        0.0000           -0.2189414              -5.9577
       100        0.0000           -0.2178042              -5.9268
       101        0.0000           -0.2171784              -5.9097
       102                         -0.1938636              -5.2753
       103                         -0.1922295              -5.2308
       104                         -0.1009023              -2.7457
       105                         -0.0951983              -2.5905
       ...                                ...                  ...
       184                          0.6733677              18.3233
      -------------------------------------------------------------
                  HL-Gap            0.0005867 Eh            0.0160 eV

     #   Z          covCN         q      C6AA      α(0)
     1   6 C        3.761    -0.103    22.509     6.763
     2   6 C        3.909     0.023    20.135     6.378
     3   6 C        3.761    -0.103    22.509     6.763
     4   6 C        2.976    -0.011    28.274     8.722
     5   6 C        2.922    -0.038    28.938     8.822
     6   6 C        2.916    -0.047    29.170     8.857
     7   6 C        2.915    -0.036    28.894     8.814
     8   6 C        2.920    -0.051    29.264     8.871
     9   6 C        2.929     0.047    26.945     8.513
    10   7 N        2.752    -0.022    21.672     6.914
    11   6 C        2.928     0.038    27.152     8.545
    12   6 C        2.915    -0.063    29.577     8.918
    13   6 C        2.914    -0.031    28.763     8.794
    14   6 C        2.915    -0.064    29.581     8.919
    15   6 C        2.928     0.038    27.148     8.545
    16   7 N        2.753    -0.022    21.675     6.915
    17   6 C        2.929     0.048    26.918     8.509
    18   6 C        2.919    -0.052    29.279     8.873
    19   6 C        2.915    -0.036    28.903     8.816
    20   6 C        2.916    -0.046    29.150     8.853
    21   6 C        2.922    -0.038    28.942     8.822
    22   6 C        2.976    -0.010    28.271     8.722
    23   6 C        3.909     0.023    20.135     6.378
    24   6 C        3.761    -0.103    22.509     6.763
    25   6 C        3.761    -0.103    22.509     6.763
    26   6 C        2.976    -0.011    28.274     8.722
    27   6 C        2.922    -0.038    28.937     8.822
    28   6 C        2.916    -0.047    29.170     8.857
    29   6 C        2.915    -0.036    28.894     8.814
    30   6 C        2.920    -0.051    29.264     8.871
    31   6 C        2.929     0.047    26.944     8.513
    32   6 C        2.916    -0.047    29.165     8.856
    33   6 C        2.929     0.048    26.919     8.509
    34   6 C        2.919    -0.052    29.279     8.873
    35   6 C        2.915    -0.036    28.902     8.816
    36   6 C        2.916    -0.046    29.150     8.854
    37   6 C        2.922    -0.038    28.942     8.822
    38   6 C        2.976    -0.010    28.270     8.722
    39   1 H        0.925     0.033     2.551     2.498
    40   1 H        0.925     0.045     2.382     2.413
    41   1 H        0.925     0.045     2.380     2.413
    42   1 H        0.925     0.032     2.552     2.498
    43   1 H        0.925     0.045     2.381     2.413
    44   1 H        0.925     0.045     2.380     2.413
    45   1 H        0.926     0.034     2.534     2.489
    46   1 H        0.926     0.027     2.633     2.537
    47   1 H        0.926     0.028     2.622     2.532
    48   1 H        0.926     0.029     2.604     2.523
    49   1 H        0.926     0.025     2.652     2.547
    50   1 H        0.926     0.030     2.583     2.513
    51   1 H        0.926     0.025     2.653     2.547
    52   1 H        0.926     0.031     2.571     2.507
    53   1 H        0.926     0.028     2.617     2.530
    54   1 H        0.926     0.027     2.627     2.534
    55   1 H        0.926     0.034     2.531     2.488
    56   1 H        0.925     0.045     2.382     2.413
    57   1 H        0.925     0.045     2.380     2.413
    58   1 H        0.925     0.033     2.551     2.498
    59   1 H        0.925     0.045     2.380     2.413
    60   1 H        0.925     0.032     2.552     2.498
    61   1 H        0.925     0.045     2.382     2.413
    62   1 H        0.926     0.034     2.534     2.489
    63   1 H        0.926     0.027     2.632     2.537
    64   1 H        0.926     0.028     2.622     2.532
    65   1 H        0.926     0.029     2.605     2.524
    66   1 H        0.925     0.031     2.576     2.510
    67   1 H        0.926     0.031     2.571     2.507
    68   1 H        0.926     0.028     2.617     2.530
    69   1 H        0.926     0.027     2.627     2.535
    70   1 H        0.926     0.034     2.532     2.488

molecular dipole:
                 x           y           z       tot (Debye)
 q only:       -0.001      -0.098       0.541
   full:       -0.000      -0.091       0.492       1.272

 projected vibrational frequencies (cm⁻¹)
eigval :       -0.00    -0.00     0.00     0.00     0.00     0.00
eigval :       12.12    14.65    18.41    22.74    48.78    56.73
eigval :       62.28    65.60    87.83    89.47   100.60   105.99
eigval :      137.29   141.75   141.94   187.29   192.36   204.36
eigval :      204.73   214.37   215.61   219.06   226.08   237.90
eigval :      247.31   273.42   302.85   306.41   323.81   323.98
eigval :      330.18   343.16   355.66   358.08   362.46   383.41
eigval :      384.93   394.21   395.68   404.11   410.01   413.98
eigval :      424.57   430.48   491.06   491.44   492.04   497.56
eigval :      522.24   531.34   531.66   539.13   543.16   558.96
eigval :      580.79   582.88   601.55   618.13   627.48   633.18
eigval :      654.80   661.96   662.54   673.84   674.14   713.06
eigval :      713.76   738.27   746.18   748.39   749.54   750.41
eigval :      764.68   794.44   800.48   821.68   821.85   842.54
eigval :      842.83   844.64   848.35   866.48   874.46   896.22
eigval :      896.41   898.75   899.38   899.75   900.82   902.31
eigval :      902.46   903.35   904.04   905.84   933.48   941.15
eigval :      958.35   958.41   959.07   991.78  1013.45  1013.49
eigval :     1057.90  1058.52  1075.06  1075.71  1086.16  1087.20
eigval :     1093.95  1111.06  1118.72  1132.40  1133.42  1142.86
eigval :     1142.94  1153.78  1155.29  1161.89  1163.82  1173.30
eigval :     1173.74  1192.53  1200.20  1200.62  1205.65  1207.42
eigval :     1235.82  1236.34  1243.27  1259.15  1274.66  1288.99
eigval :     1289.19  1305.80  1306.32  1315.77  1316.53  1325.56
eigval :     1327.35  1328.63  1337.25  1344.69  1345.24  1346.46
eigval :     1353.51  1366.61  1388.14  1397.76  1397.87  1412.42
eigval :     1414.57  1416.66  1416.74  1425.91  1428.54  1442.00
eigval :     1447.73  1459.06  1459.27  1470.07  1476.32  1484.36
eigval :     1484.48  1485.70  1485.77  1494.78  1494.95  1498.89
eigval :     1499.08  1520.01  1520.44  1567.61  3023.89  3023.93
eigval :     3026.19  3026.24  3041.52  3041.59  3043.17  3043.30
eigval :     3049.32  3049.37  3052.68  3052.99  3068.67  3073.93
eigval :     3075.75  3076.07  3076.20  3076.51  3079.31  3079.51
eigval :     3079.55  3079.69  3092.47  3093.23  3093.39  3094.03
eigval :     3094.38  3101.35  3102.57  3103.16  3104.37  3105.45

   temp. (K)  partition function   enthalpy   heat capacity  entropy
                                   cal/mol     cal/K/mol   cal/K/mol   J/K/mol
 298.15  VIB  0.110E+15            19338.849    125.824    117.914
         ROT  0.348E+08              888.752      2.981     37.491
         INT  0.384E+22            20227.601    128.805    155.405
         TR   0.106E+29             1481.254      4.968     44.451
         TOT                       21708.8551   133.7731   199.8566   836.1998

       T/K    H(0)-H(T)+PV         H(T)/Eh          T*S/Eh         G(T)/Eh
   ------------------------------------------------------------------------
    298.15    0.345953E-01    0.590403E+00    0.949583E-01    0.495444E+00
   ------------------------------------------------------------------------

         :::::::::::::::::::::::::::::::::::::::::::::::::::::
         ::                  THERMODYNAMIC                  ::
         :::::::::::::::::::::::::::::::::::::::::::::::::::::
         :: total free energy         -98.745653806118 Eh   ::
         ::.................................................::
         :: total energy              -99.241098141643 Eh   ::
         :: zero point energy           0.555807371736 Eh   ::
         :: G(RRHO) w/o ZPVE           -0.060363036210 Eh   ::
         :: G(RRHO) contrib.            0.495444335526 Eh   ::
         :::::::::::::::::::::::::::::::::::::::::::::::::::::

           -------------------------------------------------
          | TOTAL ENERGY              -99.241098141643 Eh   |
          | TOTAL ENTHALPY            -98.650695507162 Eh   |
          | TOTAL FREE ENERGY         -98.745653806118 Eh   |
          | GRADIENT NORM               0.000061720349 Eh/α |
          | HOMO-LUMO GAP               0.015964750918 eV   |
           -------------------------------------------------

 * finished run on 2025/08/22 at 17:16:48.144
