   * xtb version 6.7.1 (edcfbbe) compiled by 'albert@albert-system' on 2024-07-22

   ID    Z sym.   atoms
    1    6 C      1-20, 22-44, 46-59, 61-80
    2    7 N      21, 45, 60
    3    1 H      81-141

          program call               : xtb data2507/toluene/PTPC/PTPC_toluene_S0_crest.xyz --gfn 2 --gbsa toluene --ohess vtight --parallel 40 --molden --ceasefiles --namespace data2507/toluene/PTPC/PTPC_toluene_S0_finalOpt
      * Solvation model:               GBSA
        Solvent                        toluene
        Solvent mass                       9.2140E+01 g/mol
          :  Hamiltonian                  GFN2-xTB          :
 * total energy  :  -204.9678739 Eh     change       -0.4620205E-08 Eh
 * total energy  :  -204.9679274 Eh     change       -0.5348674E-04 Eh
 * total energy  :  -204.9679568 Eh     change       -0.2935103E-04 Eh
 * total energy  :  -204.9679720 Eh     change       -0.1527416E-04 Eh
 * total energy  :  -204.9679871 Eh     change       -0.1509993E-04 Eh
 * total energy  :  -204.9679957 Eh     change       -0.8560499E-05 Eh
 * total energy  :  -204.9679991 Eh     change       -0.3401348E-05 Eh
 * total energy  :  -204.9680021 Eh     change       -0.3037911E-05 Eh
 * total energy  :  -204.9680048 Eh     change       -0.2705423E-05 Eh
 * total energy  :  -204.9680075 Eh     change       -0.2711907E-05 Eh
 * total energy  :  -204.9682257 Eh     change       -0.5138074E-06 Eh
 * total energy  :  -204.9682262 Eh     change       -0.5679825E-06 Eh
 * total energy  :  -204.9682268 Eh     change       -0.5459526E-06 Eh
 * total energy  :  -204.9682273 Eh     change       -0.5540328E-06 Eh
 * total energy  :  -204.9682279 Eh     change       -0.5540844E-06 Eh
 * total energy  :  -204.9682285 Eh     change       -0.6055538E-06 Eh
 * total energy  :  -204.9682292 Eh     change       -0.7230121E-06 Eh
 * total energy  :  -204.9682300 Eh     change       -0.7820599E-06 Eh
 * total energy  :  -204.9682300 Eh     change       -0.5626703E-08 Eh
   *** GEOMETRY OPTIMIZATION CONVERGED AFTER 122 ITERATIONS ***

 final structure:
================
141
 xtb: 6.7.1 (edcfbbe)
C          -13.21380888251034       -4.19108895514300        3.22539945166229
C          -13.39305342556861       -2.67770628156105        3.41814514939143
C          -13.15916561854596       -2.31080072118972        4.89135112364153
C          -14.84109268224098       -2.32330312133372        3.06522682813006
C          -12.38166635871802       -1.94086616224027        2.54999309184968
C          -11.01443543243323       -2.16616828712686        2.76356397778444
C          -10.02689509928922       -1.54945716681813        2.02255258232389
C          -10.41520826824076       -0.67577977251048        1.01825883219859
C          -11.78375517656412       -0.41301917912190        0.79686386129369
C          -12.75629947964050       -1.04802710567328        1.55927748054565
C          -11.84585702786497        0.55597438095639       -0.26278238305764
C          -12.90105364531012        1.17544168894602       -0.92098919836041
C          -12.64373532986299        2.07159106562637       -1.94558004710059
C          -13.74990030288143        2.78869241044943       -2.70837104988091
C          -13.67267890296292        2.40048209800323       -4.19269353093948
C          -15.14798443404781        2.42866186377913       -2.19581319323889
C          -13.56617821851897        4.30637837339027       -2.55835343105339
C          -11.30927773612979        2.31605051388929       -2.29935742414558
C          -10.24171920491725        1.71633862557956       -1.66287626354181
C          -10.51150418837195        0.83940556120780       -0.62321557777422
N           -9.65299927150665        0.08810780942704        0.15578344518325
C           -8.25359171750769        0.10662914724146        0.08959677206956
C           -7.53642823612753       -1.08298408651109       -0.00932647767216
C           -6.15759331217165       -1.05969171487828       -0.06738488488744
C           -5.45832396279665        0.14626063595194       -0.04099407765996
C           -3.99082489814904        0.16660733047607       -0.10549952802114
C           -3.23249703775492       -0.77867961399074        0.58404817327847
C           -1.85428121371855       -0.76285174479805        0.52240708478369
C           -1.18728342554116        0.19869477501074       -0.23316188373941
C            0.28386218048401        0.23273832501086       -0.28490125504479
C            0.94128602894391        1.42673957032184       -0.01503875943756
C            2.32688859574043        1.52199721709547        0.01009876528892
C            2.95007196891515        2.83562580447603        0.25094964956133
C            3.93155858073259        3.32572197955542       -0.60699563530848
C            4.49938887993354        4.56670463559683       -0.38678645045040
C            4.09603545409073        5.33653112738342        0.69219669715621
C            3.11435526607370        4.86169290747919        1.54595963677577
C            2.54110363497801        3.62256219652982        1.32446476562354
C            3.08764273601824        0.36990157588013       -0.23213106767397
C            4.55740562621613        0.37281304838606       -0.14829692671809
C            5.32463641928436       -0.20763072892689       -1.15540499885373
C            6.70296134690741       -0.22919303367352       -1.07632802829826
C            7.35268284755039        0.31909096078324        0.02778924787967
C            8.80023287396395        0.33549107149315        0.16731225055732
N            9.45439060128491        1.34052772942869        0.69728618468481
C           10.76932694983370        0.99714294103641        0.65021369197248
C           11.88808627233087        1.77048388489559        1.06940791263130
C           11.72592917486459        3.05627440511792        1.59774817510749
C           12.81975241426196        3.79769296842404        1.96944761517520
C           14.09600089578388        3.25974419828340        1.81244186827981
C           14.26715134579290        1.99521151174395        1.29891873841399
C           13.17385854462691        1.20244437525375        0.91534434103564
C           13.32047032168943       -0.14902708438005        0.40145123395484
C           14.57602043491514       -0.76726631522345        0.30690131640655
C           14.72203595205051       -2.06072017789452       -0.13623746152117
C           13.60268298896719       -2.80679163924256       -0.49227959813264
C           12.35562826906226       -2.23600461330850       -0.42262573897939
C           12.18703866958671       -0.90894244000811       -0.00082412646766
C           10.91797058422361       -0.26941705272422        0.08791744489638
N            9.64171486962635       -0.67912052145116       -0.23077078414345
C            9.22567717754819       -1.88351992834119       -0.83911350279460
C            8.42022202769794       -2.76870627852470       -0.13284424333431
C            7.98522711341164       -3.93285219282865       -0.74178877436089
C            8.35055469833230       -4.21578638245923       -2.04757515895084
C            9.15319869146085       -3.33125942587001       -2.75085503241973
C            9.58968116467859       -2.16274263079856       -2.15332381375650
C            6.58609509617347        0.90957485761520        1.03401639147178
C            5.21080796434957        0.93219313800429        0.94903409543433
C            2.43030620601976       -0.81970523046896       -0.52299311278092
C            1.04482924957190       -0.91123224441214       -0.56172780056357
C            0.41809794423499       -2.19488795195872       -0.92461255639065
C            0.81025216074709       -3.37320685980160       -0.29485569895228
C            0.22845727114275       -4.58051614666389       -0.63735647829547
C           -0.74505962003397       -4.62940439805380       -1.62122527299451
C           -1.13048822904488       -3.46429401813478       -2.26442479888714
C           -0.55415691029529       -2.25583185125705       -1.91991836430343
C           -1.94201652036831        1.15159121470889       -0.91267035655091
C           -3.32118265901914        1.13353924822999       -0.85315611224590
C           -6.18616172975512        1.33204292196512        0.05024628082616
C           -7.56429832152621        1.31621615649064        0.12211316464172
H          -12.21970639018231       -4.51390253150554        3.52243871535537
H          -13.36013763577544       -4.45670229478668        2.18001365984983
H          -13.94140856665803       -4.73432953964052        3.82520670316469
H          -13.89239579071982       -2.80910933985162        5.52255892735516
H          -12.16793159041343       -2.60831939802500        5.22242439193810
H          -13.25637435060771       -1.23573783895801        5.03137006435114
H          -15.06801419455571       -2.58591331967793        2.03430930685399
H          -15.51797899705668       -2.88026932224184        3.71041844161837
H          -15.03216586045573       -1.26285053080002        3.21425487282595
H          -10.70597306656592       -2.84744921411419        3.54224548571538
H           -8.98416586680838       -1.73776499432460        2.23150803443471
H          -13.79177399161914       -0.82506795725289        1.36249670518416
H          -13.90735163687607        0.93738183312182       -0.61872437056659
H          -13.77716965276918        1.32292339027398       -4.30545266234785
H          -12.72431475078086        2.69769381817611       -4.63210606036036
H          -14.47265763047379        2.88517697533116       -4.74894871051754
H          -15.26233913509774        2.69957699133249       -1.14852260087208
H          -15.34686168443546        1.36579626313135       -2.31396723879135
H          -15.89534883835538        2.97524358000552       -2.76800554729113
H          -14.36053600529238        4.83371919067842       -3.08295630438695
H          -12.61418426875254        4.63389450888442       -2.96700116940666
H          -13.60052094969176        4.58704818315557       -1.50724587538787
H          -11.09275985824839        2.99893696808712       -3.10706594312744
H           -9.22890215204735        1.92006917371274       -1.97758770280060
H           -8.06850363264920       -2.02174346964429       -0.05645765752831
H           -5.61415759501389       -1.98834250794954       -0.16287985515043
H           -3.72944232738727       -1.51989660943397        1.19295082509308
H           -1.28406878044726       -1.49472533864806        1.07570011533187
H            0.35391493887717        2.31200675318554        0.18418892577165
H            4.24222835670622        2.73270286218646       -1.45497894817814
H            5.26085059420909        4.93475869274077       -1.05937262579923
H            4.54454311687913        6.30389050207366        0.86587573567245
H            2.79499538229081        5.45864683474196        2.38841458813053
H            1.78377623914952        3.24876690186617        1.99939541369921
H            4.83547939514272       -0.62517887740264       -2.02386743768065
H            7.27244510183873       -0.65473606856352       -1.88862803826489
H           10.72109461764111        3.43888540621657        1.69436535331178
H           12.69745246361603        4.79065584926783        2.37678838148299
H           14.96091650861532        3.84167823951155        2.09721563431384
H           15.27348608149949        1.62215805097065        1.19356973114164
H           15.46245399700370       -0.22605598745269        0.59559309067709
H           15.70628042233105       -2.50202768831233       -0.19496519917459
H           13.71176046519837       -3.83091118566809       -0.81758920739057
H           11.48916783869794       -2.82251945240227       -0.68259596902843
H            8.13992143922545       -2.53681227730686        0.88423565871258
H            7.36052982585077       -4.62040144789574       -0.19196896562252
H            8.00977547997318       -5.12532092982447       -2.51849301427743
H            9.43805932586955       -3.54737817189231       -3.76957400952381
H           10.21344111350602       -1.46401751207304       -2.69232306328151
H            7.09279147222543        1.34507694693377        1.88167854621466
H            4.63216760476901        1.37720204250989        1.74458369688970
H            3.01784750272357       -1.70464392841471       -0.72313144164675
H            1.56097017052815       -3.33565420671017        0.48219049925419
H            0.53465443436044       -5.48656226712567       -0.13384682745333
H           -1.20033703470765       -5.57231315047806       -1.88762236160518
H           -1.88372340368171       -3.49754478822164       -3.03863753702137
H           -0.85086601059460       -1.35109791240994       -2.43037636120103
H           -1.43983949011483        1.89900917103575       -1.51093733342190
H           -3.88844914686039        1.86482114728280       -1.41067366694423
H           -5.66364417188845        2.27622649871090        0.09629853610771
H           -8.11588434882957        2.23970385528671        0.21950419531886

          :  Hamiltonian                  GFN2-xTB          :
         :: gradient norm              0.000054904079 Eh/a0 ::
         :: HOMO-LUMO gap              2.374806558477 eV    ::
         :: SCC energy              -208.797345596872 Eh    ::
         :: -> dispersion             -0.196954600976 Eh    ::
         :: -> Gsolv                  -0.083941189674 Eh    ::
         :: repulsion energy           3.829115608521 Eh    ::

    * Orbital Energies and Occupations

         #    Occupation            Energy/Eh            Energy/eV
      -------------------------------------------------------------
         1        2.0000           -0.6882592             -18.7285
       ...           ...                  ...                  ...
       180        2.0000           -0.4025918             -10.9551
       181        2.0000           -0.4022099             -10.9447
       182        2.0000           -0.3998329             -10.8800
       183        2.0000           -0.3972727             -10.8103
       184        2.0000           -0.3932345             -10.7005
       185        2.0000           -0.3921757             -10.6716
       186        2.0000           -0.3850640             -10.4781
       187        2.0000           -0.3830393             -10.4230
       188        2.0000           -0.3794512             -10.3254
       189        2.0000           -0.3749162             -10.2020
       190        2.0000           -0.3698283             -10.0635
       191        2.0000           -0.3639667              -9.9040
       192        2.0000           -0.3528751              -9.6022 (HOMO)
       193                         -0.2656025              -7.2274 (LUMO)
       194                         -0.2553454              -6.9483
       195                         -0.2511159              -6.8332
       196                         -0.2466900              -6.7128
       197                         -0.2431678              -6.6169
       198                         -0.2403248              -6.5396
       199                         -0.2397227              -6.5232
       200                         -0.2369503              -6.4477
       201                         -0.2276984              -6.1960
       202                         -0.2274866              -6.1902
       203                         -0.2243734              -6.1055
       ...                                ...                  ...
       381                          0.7450822              20.2747
      -------------------------------------------------------------
                  HL-Gap            0.0872725 Eh            2.3748 eV

     #   Z          covCN         q      C6AA      α(0)
     1   6 C        3.761    -0.104    22.536     6.767
     2   6 C        3.902     0.025    20.106     6.374
     3   6 C        3.761    -0.104    22.535     6.767
     4   6 C        3.761    -0.106    22.569     6.772
     5   6 C        2.972    -0.004    28.121     8.698
     6   6 C        2.931    -0.041    29.026     8.835
     7   6 C        2.908    -0.055    29.371     8.887
     8   6 C        3.080     0.044    26.929     8.508
     9   6 C        3.067    -0.022    28.492     8.753
    10   6 C        2.918    -0.046    29.141     8.852
    11   6 C        3.067    -0.022    28.492     8.753
    12   6 C        2.918    -0.046    29.141     8.852
    13   6 C        2.972    -0.004    28.120     8.698
    14   6 C        3.902     0.025    20.106     6.374
    15   6 C        3.761    -0.104    22.534     6.767
    16   6 C        3.761    -0.106    22.569     6.772
    17   6 C        3.761    -0.104    22.537     6.767
    18   6 C        2.931    -0.041    29.026     8.835
    19   6 C        2.908    -0.055    29.371     8.887
    20   6 C        3.080     0.044    26.929     8.508
    21   7 N        2.801    -0.051    22.233     7.003
    22   6 C        2.912     0.063    26.588     8.455
    23   6 C        2.920    -0.044    29.092     8.845
    24   6 C        2.924    -0.034    28.846     8.808
    25   6 C        2.975     0.007    27.871     8.660
    26   6 C        2.976     0.008    27.843     8.655
    27   6 C        2.923    -0.035    28.873     8.812
    28   6 C        2.923    -0.032    28.805     8.801
    29   6 C        2.977     0.011    27.755     8.642
    30   6 C        2.978     0.004    27.924     8.668
    31   6 C        2.931    -0.040    29.006     8.833
    32   6 C        2.977     0.004    27.927     8.668
    33   6 C        2.977     0.012    27.737     8.639
    34   6 C        2.924    -0.032    28.798     8.800
    35   6 C        2.918    -0.030    28.744     8.792
    36   6 C        2.920    -0.032    28.790     8.799
    37   6 C        2.918    -0.031    28.765     8.795
    38   6 C        2.925    -0.035    28.876     8.812
    39   6 C        2.977     0.003    27.949     8.672
    40   6 C        2.977     0.016    27.652     8.626
    41   6 C        2.924    -0.035    28.868     8.811
    42   6 C        2.920    -0.036    28.904     8.816
    43   6 C        2.974    -0.004    28.113     8.697
    44   6 C        3.191     0.137    24.560     8.083
    45   7 N        1.894    -0.320    29.140     8.003
    46   6 C        3.205     0.060    26.083     8.318
    47   6 C        2.985    -0.003    28.099     8.695
    48   6 C        2.921    -0.033    28.834     8.806
    49   6 C        2.917    -0.032    28.796     8.800
    50   6 C        2.917    -0.034    28.857     8.809
    51   6 C        2.921    -0.037    28.910     8.817
    52   6 C        2.979    -0.005    28.143     8.702
    53   6 C        2.979    -0.002    28.065     8.690
    54   6 C        2.922    -0.035    28.876     8.812
    55   6 C        2.916    -0.034    28.853     8.808
    56   6 C        2.917    -0.033    28.813     8.802
    57   6 C        2.919    -0.041    29.030     8.836
    58   6 C        2.978    -0.005    28.148     8.703
    59   6 C        3.073     0.022    27.443     8.589
    60   7 N        2.840    -0.055    22.305     7.014
    61   6 C        2.912     0.067    26.502     8.442
    62   6 C        2.921    -0.038    28.941     8.822
    63   6 C        2.920    -0.025    28.625     8.774
    64   6 C        2.919    -0.029    28.714     8.787
    65   6 C        2.920    -0.026    28.656     8.778
    66   6 C        2.921    -0.037    28.919     8.819
    67   6 C        2.926    -0.029    28.728     8.790
    68   6 C        2.923    -0.030    28.757     8.794
    69   6 C        2.931    -0.041    29.011     8.833
    70   6 C        2.977     0.004    27.941     8.671
    71   6 C        2.977     0.013    27.721     8.636
    72   6 C        2.925    -0.035    28.874     8.812
    73   6 C        2.918    -0.031    28.770     8.796
    74   6 C        2.920    -0.032    28.806     8.801
    75   6 C        2.918    -0.030    28.758     8.794
    76   6 C        2.924    -0.032    28.793     8.800
    77   6 C        2.923    -0.035    28.881     8.813
    78   6 C        2.923    -0.036    28.884     8.814
    79   6 C        2.924    -0.034    28.850     8.808
    80   6 C        2.920    -0.044    29.094     8.845
    81   1 H        0.925     0.035     2.514     2.479
    82   1 H        0.925     0.032     2.563     2.503
    83   1 H        0.925     0.037     2.490     2.468
    84   1 H        0.925     0.037     2.489     2.467
    85   1 H        0.925     0.035     2.515     2.480
    86   1 H        0.925     0.031     2.565     2.505
    87   1 H        0.925     0.035     2.516     2.481
    88   1 H        0.925     0.036     2.505     2.475
    89   1 H        0.925     0.035     2.517     2.481
    90   1 H        0.926     0.028     2.615     2.529
    91   1 H        0.926     0.024     2.668     2.554
    92   1 H        0.926     0.036     2.505     2.475
    93   1 H        0.926     0.036     2.505     2.475
    94   1 H        0.925     0.031     2.565     2.505
    95   1 H        0.925     0.035     2.516     2.480
    96   1 H        0.925     0.037     2.488     2.467
    97   1 H        0.925     0.035     2.516     2.481
    98   1 H        0.925     0.035     2.517     2.481
    99   1 H        0.925     0.036     2.505     2.475
   100   1 H        0.925     0.037     2.491     2.468
   101   1 H        0.925     0.035     2.513     2.479
   102   1 H        0.925     0.032     2.563     2.503
   103   1 H        0.926     0.028     2.614     2.529
   104   1 H        0.926     0.024     2.667     2.554
   105   1 H        0.926     0.039     2.457     2.451
   106   1 H        0.926     0.039     2.460     2.453
   107   1 H        0.926     0.032     2.552     2.498
   108   1 H        0.926     0.029     2.596     2.520
   109   1 H        0.926     0.037     2.490     2.468
   110   1 H        0.926     0.027     2.632     2.537
   111   1 H        0.926     0.029     2.594     2.519
   112   1 H        0.926     0.031     2.575     2.509
   113   1 H        0.926     0.032     2.563     2.503
   114   1 H        0.926     0.032     2.553     2.499
   115   1 H        0.926     0.039     2.466     2.456
   116   1 H        0.926     0.029     2.603     2.523
   117   1 H        0.926     0.043     2.410     2.428
   118   1 H        0.926     0.032     2.554     2.499
   119   1 H        0.926     0.032     2.560     2.502
   120   1 H        0.926     0.035     2.523     2.484
   121   1 H        0.926     0.037     2.492     2.469
   122   1 H        0.926     0.033     2.551     2.498
   123   1 H        0.926     0.032     2.562     2.503
   124   1 H        0.926     0.029     2.597     2.520
   125   1 H        0.926     0.038     2.479     2.462
   126   1 H        0.926     0.047     2.354     2.399
   127   1 H        0.926     0.048     2.347     2.396
   128   1 H        0.926     0.047     2.353     2.399
   129   1 H        0.926     0.041     2.434     2.440
   130   1 H        0.926     0.043     2.412     2.429
   131   1 H        0.926     0.038     2.480     2.462
   132   1 H        0.926     0.036     2.496     2.470
   133   1 H        0.926     0.031     2.567     2.505
   134   1 H        0.926     0.031     2.574     2.509
   135   1 H        0.926     0.030     2.583     2.514
   136   1 H        0.926     0.030     2.591     2.517
   137   1 H        0.926     0.028     2.611     2.527
   138   1 H        0.926     0.033     2.551     2.498
   139   1 H        0.926     0.034     2.535     2.490
   140   1 H        0.926     0.039     2.456     2.451
   141   1 H        0.926     0.039     2.456     2.451

molecular dipole:
                 x           y           z       tot (Debye)
 q only:       -0.532      -1.149      -0.573
   full:       -0.243      -1.439      -0.708       4.124

 projected vibrational frequencies (cm⁻¹)
eigval :       -0.00    -0.00    -0.00     0.00     0.00     0.00
eigval :       -3.74     5.14     6.34     9.88    13.47    14.22
eigval :       21.29    24.79    30.49    32.65    34.78    35.09
eigval :       36.29    43.65    45.34    49.92    52.43    53.02
eigval :       57.21    62.21    64.51    67.60    70.60    79.17
eigval :       86.22    87.48    89.84    94.38    98.06   101.81
eigval :      114.81   121.21   129.09   133.54   147.04   161.51
eigval :      161.93   171.37   179.20   181.15   187.91   203.53
eigval :      204.73   212.63   217.80   221.04   222.19   225.40
eigval :      231.43   233.75   235.02   244.96   253.81   258.86
eigval :      260.53   266.83   275.33   283.49   286.09   298.79
eigval :      318.75   320.04   323.32   325.87   331.78   340.56
eigval :      349.77   351.14   357.65   360.00   367.57   372.99
eigval :      375.00   375.15   376.29   380.21   386.49   388.57
eigval :      395.37   398.85   399.65   408.55   411.32   413.28
eigval :      430.10   436.61   439.41   442.37   442.98   443.70
eigval :      462.05   465.96   467.71   471.89   478.60   481.75
eigval :      492.24   497.62   508.36   516.63   518.08   523.51
eigval :      531.90   535.37   547.95   550.11   575.04   578.21
eigval :      583.68   584.46   585.05   585.78   587.68   589.54
eigval :      596.52   603.94   604.96   609.73   626.65   629.86
eigval :      631.92   639.67   642.89   649.66   653.27   666.05
eigval :      667.38   671.50   677.73   679.55   681.99   684.40
eigval :      687.79   693.61   695.81   705.48   707.55   711.23
eigval :      716.80   720.06   721.17   730.95   734.71   747.22
eigval :      759.01   762.72   763.06   767.94   778.66   784.04
eigval :      797.34   806.82   820.37   821.16   822.64   830.66
eigval :      833.08   860.57   868.42   870.21   871.45   872.03
eigval :      872.89   873.73   874.39   874.79   875.25   876.12
eigval :      879.61   882.30   892.66   899.78   901.70   903.16
eigval :      907.26   910.19   913.48   916.04   917.27   919.92
eigval :      921.08   924.57   926.95   927.24   927.93   928.16
eigval :      928.59   929.09   929.15   929.64   929.74   930.39
eigval :      931.61   934.23   938.66   940.37   947.74   959.24
eigval :      959.40   959.66   962.69   963.06   963.91   964.03
eigval :      973.80   982.84   995.00  1011.38  1016.36  1025.76
eigval :     1030.81  1035.36  1036.56  1036.62  1039.29  1041.22
eigval :     1067.84  1074.15  1077.04  1080.68  1083.04  1084.91
eigval :     1088.41  1102.51  1107.19  1112.67  1115.48  1119.71
eigval :     1120.53  1128.29  1133.71  1134.70  1139.26  1141.14
eigval :     1144.53  1152.06  1173.08  1174.51  1177.48  1179.17
eigval :     1180.12  1181.07  1185.23  1186.72  1188.15  1196.89
eigval :     1197.59  1200.52  1202.20  1207.93  1212.24  1225.52
eigval :     1225.85  1229.28  1230.40  1237.18  1240.35  1241.99
eigval :     1243.68  1247.74  1252.53  1255.48  1258.69  1260.34
eigval :     1266.90  1270.88  1272.94  1274.51  1281.02  1281.40
eigval :     1282.49  1283.87  1293.41  1301.54  1305.64  1306.85
eigval :     1309.14  1310.91  1313.15  1314.25  1315.54  1316.81
eigval :     1318.54  1329.57  1336.93  1344.52  1345.54  1350.91
eigval :     1358.03  1371.13  1377.86  1383.91  1393.01  1400.13
eigval :     1402.03  1403.19  1403.53  1403.93  1406.60  1409.84
eigval :     1416.14  1417.06  1427.30  1427.63  1427.67  1428.89
eigval :     1430.66  1432.04  1434.95  1440.50  1453.29  1470.52
eigval :     1477.40  1480.62  1481.13  1482.55  1484.01  1489.79
eigval :     1490.43  1492.39  1492.46  1499.19  1499.56  1500.26
eigval :     1503.07  1503.61  1510.84  1511.95  1512.25  1512.47
eigval :     1515.00  1518.20  1519.64  1534.28  1541.38  1553.36
eigval :     1557.16  1563.19  1563.53  1568.24  1570.20  1577.19
eigval :     1580.56  1580.83  1581.64  1582.15  1590.83  1590.93
eigval :     1593.12  1596.54  1598.62  1599.54  1603.09  1603.19
eigval :     1603.23  1616.30  3017.75  3018.20  3018.78  3018.87
eigval :     3022.23  3022.34  3023.56  3023.74  3025.91  3026.01
eigval :     3029.55  3029.94  3034.30  3035.08  3042.17  3043.26
eigval :     3045.19  3047.71  3064.21  3064.89  3067.15  3067.52
eigval :     3068.07  3068.81  3073.06  3073.07  3073.53  3074.03
eigval :     3074.17  3074.23  3074.63  3075.64  3076.05  3077.41
eigval :     3078.61  3078.96  3079.11  3080.13  3080.18  3081.23
eigval :     3081.97  3083.14  3086.19  3086.60  3087.16  3087.52
eigval :     3088.31  3088.36  3088.82  3088.87  3091.85  3092.09
eigval :     3094.88  3095.54  3098.06  3098.72  3101.63  3109.02
eigval :     3113.16  3115.87  3115.93

   temp. (K)  partition function   enthalpy   heat capacity  entropy
                                   cal/mol     cal/K/mol   cal/K/mol   J/K/mol
 298.15  VIB  0.348E+35            41143.194    252.551    261.327
         ROT  0.662E+09              888.752      2.981     43.345
         INT  0.231E+44            42031.947    255.532    304.672
         TR   0.319E+29             1481.254      4.968     46.644
         TOT                       43513.2004   260.5001   351.3155  1469.9041

       T/K    H(0)-H(T)+PV         H(T)/Eh          T*S/Eh         G(T)/Eh
   ------------------------------------------------------------------------
    298.15    0.693427E-01    0.119509E+01    0.166921E+00    0.102817E+01
   ------------------------------------------------------------------------

         :::::::::::::::::::::::::::::::::::::::::::::::::::::
         ::                  THERMODYNAMIC                  ::
         :::::::::::::::::::::::::::::::::::::::::::::::::::::
         :: total free energy        -203.940057334777 Eh   ::
         ::.................................................::
         :: total energy             -204.968229988506 Eh   ::
         :: zero point energy           1.125751287050 Eh   ::
         :: G(RRHO) w/o ZPVE           -0.097578633320 Eh   ::
         :: G(RRHO) contrib.            1.028172653729 Eh   ::
         :::::::::::::::::::::::::::::::::::::::::::::::::::::

           -------------------------------------------------
          | TOTAL ENERGY             -204.968229988506 Eh   |
          | TOTAL ENTHALPY           -203.773136002729 Eh   |
          | TOTAL FREE ENERGY        -203.940057334777 Eh   |
          | GRADIENT NORM               0.000054903431 Eh/α |
          | HOMO-LUMO GAP               2.374806653199 eV   |
           -------------------------------------------------

 * finished run on 2025/09/02 at 21:50:01.366
