   * xtb version 6.7.1 (edcfbbe) compiled by 'albert@albert-system' on 2024-07-22

   ID    Z sym.   atoms
    1    6 C      1-20, 22-44, 46-59, 61-80
    2    7 N      21, 45, 60
    3    1 H      81-141

          program call               : xtb data2507/toluene/PTPC/PTPC_toluene_T1_crest.xyz --gfn 2 --uhf 2 --gbsa toluene --ohess vtight --parallel 40 --molden --ceasefiles --namespace data2507/toluene/PTPC/PTPC_toluene_T1_finalOpt
      * Solvation model:               GBSA
        Solvent                        toluene
        Solvent mass                       9.2140E+01 g/mol
          :  Hamiltonian                  GFN2-xTB          :
 * total energy  :  -204.8811252 Eh     change       -0.5242839E-08 Eh
 * total energy  :  -204.8812059 Eh     change       -0.8070956E-04 Eh
 * total energy  :  -204.8812726 Eh     change       -0.6667784E-04 Eh
 * total energy  :  -204.8813173 Eh     change       -0.4468160E-04 Eh
 * total energy  :  -204.8813565 Eh     change       -0.3926445E-04 Eh
 * total energy  :  -204.8814131 Eh     change       -0.5654015E-04 Eh
 * total energy  :  -204.8814530 Eh     change       -0.3988944E-04 Eh
 * total energy  :  -204.8814847 Eh     change       -0.3171968E-04 Eh
 * total energy  :  -204.8815420 Eh     change       -0.5732057E-04 Eh
 * total energy  :  -204.8815841 Eh     change       -0.4207038E-04 Eh
 * total energy  :  -204.8822367 Eh     change       -0.5804824E-06 Eh
 * total energy  :  -204.8822376 Eh     change       -0.9052881E-06 Eh
 * total energy  :  -204.8822386 Eh     change       -0.9428836E-06 Eh
 * total energy  :  -204.8822394 Eh     change       -0.8198500E-06 Eh
 * total energy  :  -204.8822404 Eh     change       -0.9837688E-06 Eh
 * total energy  :  -204.8822417 Eh     change       -0.1304780E-05 Eh
 * total energy  :  -204.8822420 Eh     change       -0.3221892E-06 Eh
 * total energy  :  -204.8822428 Eh     change       -0.7785674E-06 Eh
 * total energy  :  -204.8822428 Eh     change       -0.6087390E-08 Eh
   *** GEOMETRY OPTIMIZATION CONVERGED AFTER 70 ITERATIONS ***

 final structure:
================
141
 xtb: 6.7.1 (edcfbbe)
C          -14.84595891408434       -3.14491642036110        1.48043268676817
C          -13.96985141647449       -2.50867407848919        2.57038602825774
C          -13.58220446718897       -3.60426133838081        3.56826137155609
C          -14.77592501102926       -1.44145881298373        3.32648523904645
C          -12.76407928391742       -1.84949759532251        1.91457414435886
C          -11.45095222314880       -2.24312434028340        2.18785435999766
C          -10.35303282635857       -1.64328857874558        1.59718678440268
C          -10.57143566518069       -0.60420007308576        0.70710888015270
C          -11.88989570238384       -0.20615964414681        0.39169956598432
C          -12.97063204062648       -0.82480978020976        0.99711020793491
C          -11.77558203801013        0.83939486543161       -0.59055085511584
C          -12.71146069729258        1.61811818886658       -1.25642154335222
C          -12.28865243459436        2.58570570412124       -2.15607676508719
C          -13.25858414622651        3.46561236333617       -2.93198739821062
C          -13.04607912369010        3.24012920470062       -4.43667896834230
C          -14.72346178967007        3.15596152699846       -2.60791589713258
C          -12.99503376731770        4.93874506665841       -2.58515329349661
C          -10.91146923216553        2.76073126401985       -2.34926655809994
C           -9.95911358596551        2.00194660488986       -1.69926947315202
C          -10.39529800636404        1.01670478088431       -0.82534435300249
N           -9.67536216948294        0.14109950814408       -0.03531458042347
C           -8.28116459621309        0.02918030234361        0.00386990377668
C           -7.54711660399271       -0.06527877303971       -1.17786852667779
C           -6.17339364315308       -0.16830438508166       -1.13650973408920
C           -5.48431415010681       -0.18208100569825        0.08003804354161
C           -4.02655030954149       -0.27916477331206        0.11704877301081
C           -3.28306672447713        0.39520907190602        1.09247979570334
C           -1.90999483370442        0.32660254769546        1.11369725306640
C           -1.20511245713400       -0.44398106483828        0.17697325502684
C            0.24545574403523       -0.49136199254962        0.19461259148080
C            0.96711651035489        0.67801833106743        0.45709478774490
C            2.34184028436936        0.75381502868758        0.36678959532018
C            2.97204349549672        2.07531341611703        0.46188326418973
C            3.89373301439030        2.49845435541048       -0.49871737615358
C            4.45385957083486        3.75879886349310       -0.42856529097370
C            4.11022158820023        4.62130284264824        0.60077495163836
C            3.18997821090000        4.21675269018849        1.55476027790993
C            2.61969877309831        2.96021905521669        1.48208625843907
C            3.09037629420402       -0.42356836932354        0.04705841377226
C            4.51849800914628       -0.45556594424420        0.05773657439229
C            5.28553149375910        0.35329044356908        0.94025684849609
C            6.64581566195273        0.37439104610533        0.90793511458731
C            7.37211055862721       -0.40753069416761       -0.03108845831549
C            8.76972438405620       -0.41606596991485       -0.19367729767672
N            9.38987360248993       -1.33573817344887       -0.94863187838446
C           10.69654152847473       -1.08160477974456       -0.86898829427868
C           11.76273709421057       -1.80346138612616       -1.48126530495595
C           11.50808641379913       -2.93186582847718       -2.26592087263641
C           12.54447534134938       -3.63311100833172       -2.83705723233669
C           13.85242902957908       -3.20918959881514       -2.61982452097760
C           14.11473239541913       -2.09568668060643       -1.85165611517960
C           13.08426986154701       -1.34892934932563       -1.26083825515519
C           13.32644317108662       -0.15374735004768       -0.47164855658347
C           14.61787593506529        0.35142209766861       -0.28355886361786
C           14.86044656616279        1.50315954361223        0.43134915341916
C           13.79897138519639        2.21491543763816        0.98924104829173
C           12.51769890707740        1.75246235231232        0.83880884401911
C           12.24416695555881        0.56681379186619        0.12734930687801
C           10.94269729679613        0.05044828949220       -0.05637210102334
N            9.70530314066284        0.46256341844516        0.37318289661120
C            9.41929168160168        1.58244266108678        1.18347432132596
C            8.88948536982686        2.73449054067709        0.61051930727151
C            8.60900159445579        3.82890977741055        1.40862240380686
C            8.85330131971263        3.77956056674779        2.77163414188031
C            9.38258026634391        2.63197366572431        3.34131209212419
C            9.66749841915092        1.53187080092707        2.55292902991206
C            6.60764972086407       -1.28713091881973       -0.85648165625607
C            5.25069859267062       -1.31914448143319       -0.80298399668875
C            2.35495417954171       -1.59598608585413       -0.22258943547710
C            0.98411281109234       -1.66359912283737       -0.13437700254059
C            0.33139187609398       -2.97418304895814       -0.27944907254187
C           -0.58949229326736       -3.41933767908065        0.66840840575722
C           -1.17909129300144       -4.66293258608780        0.54515394043661
C           -0.86125085543688       -5.48353016036233       -0.52549440004080
C            0.05944446218925       -5.05544965278542       -1.46792261936828
C            0.65573877977037       -3.81417591658219       -1.34340231220989
C           -1.95282974638224       -1.12141541669954       -0.79773160956062
C           -3.32438878370234       -1.03430390767143       -0.82956106356561
C           -6.23285189950146       -0.09124571315234        1.25752528544284
C           -7.60694488245953        0.01293989310864        1.22420065358662
H          -14.27448444941419       -3.88412492951423        0.92211083699874
H          -15.21255950952530       -2.39896850655012        0.78058295095475
H          -15.70388177573768       -3.63994994594221        1.93100892817415
H          -14.48348086441994       -4.02508037877807        4.01003666417005
H          -13.04323072960807       -4.41092864800618        3.07640620091681
H          -12.97026300366390       -3.20333893962360        4.37326423575755
H          -15.13706254625422       -0.66646876757728        2.65609351634023
H          -15.63560792957447       -1.89713309427513        3.81373098828869
H          -14.15641034694258       -0.97162524638503        4.08814849147661
H          -11.26395833881726       -3.04757310747641        2.87967953124167
H           -9.35604840284321       -1.99124582251193        1.82175165691395
H          -13.96791794458535       -0.50283473057313        0.74055071293414
H          -13.75683622976680        1.45442307818621       -1.05510696851538
H          -13.21440325806342        2.19449530090773       -4.68780566581579
H          -12.03667083182082        3.50457204207104       -4.73964575686048
H          -13.74334191958242        3.84915419968137       -5.00853564095177
H          -14.93714577725089        3.32990226832845       -1.55562760297537
H          -14.97087320120105        2.12672503494055       -2.85831740662070
H          -15.36919774514448        3.80780409926343       -3.19319569848936
H          -13.69922931233627        5.57877068091048       -3.11294189667885
H          -11.98888059383674        5.23963129536791       -2.86381021340969
H          -13.11536189764971        5.10110857511304       -1.51563348259966
H          -10.56597653698273        3.52236078988783       -3.03153041246328
H           -8.90775480831562        2.18390793056243       -1.86328552868914
H           -8.06430258984324       -0.07222526302166       -2.12591533586434
H           -5.62089776002138       -0.22158823155676       -2.06262231519292
H           -3.79375698718707        1.00361183190394        1.82495649301809
H           -1.36416442828964        0.85213444160075        1.88420948270073
H            0.41562830691573        1.58898396893074        0.64264233006173
H            4.15411160693491        1.83668951013272       -1.31202821549229
H            5.16040234993523        4.07224588600235       -1.18388525739660
H            4.55226451832676        5.60537309256721        0.65663051116502
H            2.91703639920480        4.88428162066921        2.35980646585492
H            1.91433861662505        2.64363182510392        2.23755026708285
H            4.77147670014856        0.92785047588824        1.69596168930186
H            7.17375476203496        0.97034928531504        1.63397844672642
H           10.47950885740356       -3.22957987286156       -2.40176932706923
H           12.34891429638735       -4.50462235978633       -3.44396629228733
H           14.67334860585590       -3.75792277606580       -3.05877972108251
H           15.14454444212253       -1.80820209593560       -1.71213151935623
H           15.46165637634513       -0.16350660431240       -0.71374641490454
H           15.87271385821604        1.85954667403241        0.55182647360800
H           13.98461654474568        3.12777632732787        1.53572609306807
H           11.69945972147715        2.31116822590285        1.26237765642351
H            8.69909332836108        2.75824046707232       -0.45238150353072
H            8.20234166834489        4.72390424541178        0.96321767536267
H            8.63173826577297        4.63556574492929        3.39073375039888
H            9.57308999039622        2.59053862721342        4.40326195058438
H           10.08066110208044        0.63150268491228        2.98433238259875
H            7.15248518315056       -1.91186361454197       -1.54679083940509
H            4.71137651931233       -1.96737425457944       -1.47775555491809
H            2.90003957222607       -2.50922261377072       -0.41161603417562
H           -0.83234593147556       -2.78766348137339        1.51061608508566
H           -1.88948030847327       -4.99531485105226        1.28861537805835
H           -1.32688801496114       -6.45347417819410       -0.62346299128043
H            0.31294486465072       -5.69126513625985       -2.30437411800364
H            1.36315818214706       -3.47787033862545       -2.08842050918251
H           -1.44019822644096       -1.69787275241036       -1.55303805541181
H           -3.86847083663779       -1.57694194867850       -1.58883694438255
H           -5.72988922269732       -0.11796546733530        2.21265479767002
H           -8.16771012798933        0.10003978901801        2.14301423777535

          :  Hamiltonian                  GFN2-xTB          :
         :: gradient norm              0.000084375971 Eh/a0 ::
         :: HOMO-LUMO gap              0.499056312235 eV    ::
         :: SCC energy              -208.690706641893 Eh    ::
         :: -> dispersion             -0.197779168053 Eh    ::
         :: -> Gsolv                  -0.083956407612 Eh    ::
         :: repulsion energy           3.808463667213 Eh    ::

    * Orbital Energies and Occupations

         #    Occupation            Energy/Eh            Energy/eV
      -------------------------------------------------------------
         1        2.0000           -0.6840494             -18.6139
       ...           ...                  ...                  ...
       181        2.0000           -0.4002959             -10.8926
       182        2.0000           -0.3985293             -10.8445
       183        2.0000           -0.3974092             -10.8141
       184        2.0000           -0.3951324             -10.7521
       185        2.0000           -0.3887452             -10.5783
       186        2.0000           -0.3835175             -10.4360
       187        2.0000           -0.3827005             -10.4138
       188        2.0000           -0.3765136             -10.2455
       189        2.0000           -0.3759736             -10.2308
       190        2.0000           -0.3696010             -10.0574
       191        1.9462           -0.3575340              -9.7290
       192        1.0538           -0.3520872              -9.5808
       193        0.9999           -0.2761303              -7.5139 (HOMO)
       194        0.0001           -0.2577906              -7.0148 (LUMO)
       195                         -0.2513208              -6.8388
       196                         -0.2481586              -6.7527
       197                         -0.2433976              -6.6232
       198                         -0.2419134              -6.5828
       199                         -0.2395412              -6.5182
       200                         -0.2382891              -6.4842
       201                         -0.2284674              -6.2169
       202                         -0.2250067              -6.1227
       203                         -0.2224713              -6.0538
       204                         -0.2223644              -6.0508
       ...                                ...                  ...
       381                          0.7420430              20.1920
      -------------------------------------------------------------
                  HL-Gap            0.0183397 Eh            0.4990 eV

     #   Z          covCN         q      C6AA      α(0)
     1   6 C        3.761    -0.105    22.548     6.769
     2   6 C        3.902     0.025    20.093     6.372
     3   6 C        3.761    -0.107    22.592     6.776
     4   6 C        3.761    -0.105    22.551     6.769
     5   6 C        2.972     0.001    28.006     8.681
     6   6 C        2.928    -0.044    29.097     8.846
     7   6 C        2.909    -0.052    29.294     8.875
     8   6 C        3.076     0.044    26.936     8.509
     9   6 C        3.065    -0.019    28.408     8.740
    10   6 C        2.920    -0.039    28.976     8.827
    11   6 C        3.064    -0.019    28.416     8.741
    12   6 C        2.917    -0.043    29.080     8.843
    13   6 C        2.972     0.001    28.006     8.681
    14   6 C        3.902     0.025    20.093     6.372
    15   6 C        3.761    -0.105    22.551     6.769
    16   6 C        3.761    -0.107    22.589     6.775
    17   6 C        3.761    -0.105    22.551     6.770
    18   6 C        2.930    -0.040    28.985     8.829
    19   6 C        2.908    -0.052    29.285     8.874
    20   6 C        3.077     0.044    26.929     8.508
    21   7 N        2.800    -0.038    21.968     6.961
    22   6 C        2.912     0.060    26.649     8.465
    23   6 C        2.919    -0.043    29.076     8.842
    24   6 C        2.924    -0.034    28.851     8.808
    25   6 C        2.974     0.009    27.824     8.652
    26   6 C        2.975     0.005    27.916     8.667
    27   6 C        2.921    -0.036    28.901     8.816
    28   6 C        2.922    -0.037    28.932     8.821
    29   6 C        2.974     0.010    27.781     8.646
    30   6 C        2.973    -0.002    28.077     8.692
    31   6 C        2.927    -0.042    29.036     8.837
    32   6 C        2.973    -0.001    28.048     8.687
    33   6 C        2.978     0.014    27.686     8.631
    34   6 C        2.924    -0.031    28.768     8.796
    35   6 C        2.918    -0.031    28.766     8.795
    36   6 C        2.919    -0.033    28.828     8.805
    37   6 C        2.918    -0.031    28.777     8.797
    38   6 C        2.924    -0.036    28.904     8.817
    39   6 C        2.970     0.000    28.017     8.682
    40   6 C        2.971     0.005    27.908     8.665
    41   6 C        2.916    -0.034    28.836     8.806
    42   6 C        2.911    -0.045    29.107     8.847
    43   6 C        2.969    -0.015    28.377     8.738
    44   6 C        3.143     0.131    24.904     8.166
    45   7 N        1.887    -0.323    29.232     8.015
    46   6 C        3.172     0.077    25.927     8.318
    47   6 C        2.984    -0.007    28.182     8.708
    48   6 C        2.922    -0.030    28.740     8.791
    49   6 C        2.916    -0.033    28.820     8.803
    50   6 C        2.917    -0.031    28.771     8.796
    51   6 C        2.921    -0.036    28.898     8.815
    52   6 C        2.977    -0.003    28.094     8.694
    53   6 C        2.977    -0.003    28.100     8.695
    54   6 C        2.920    -0.034    28.847     8.808
    55   6 C        2.916    -0.034    28.853     8.808
    56   6 C        2.915    -0.033    28.827     8.804
    57   6 C        2.918    -0.039    28.977     8.827
    58   6 C        2.974    -0.012    28.299     8.726
    59   6 C        3.046     0.035    27.163     8.548
    60   7 N        2.823    -0.070    22.593     7.060
    61   6 C        2.911     0.070    26.444     8.432
    62   6 C        2.921    -0.037    28.918     8.818
    63   6 C        2.920    -0.025    28.630     8.774
    64   6 C        2.919    -0.030    28.739     8.791
    65   6 C        2.919    -0.027    28.668     8.780
    66   6 C        2.921    -0.038    28.943     8.822
    67   6 C        2.922    -0.035    28.876     8.812
    68   6 C        2.914    -0.038    28.951     8.823
    69   6 C        2.927    -0.043    29.079     8.843
    70   6 C        2.972     0.002    27.984     8.677
    71   6 C        2.978     0.014    27.705     8.634
    72   6 C        2.924    -0.031    28.779     8.797
    73   6 C        2.918    -0.031    28.762     8.795
    74   6 C        2.920    -0.033    28.815     8.803
    75   6 C        2.918    -0.031    28.771     8.796
    76   6 C        2.924    -0.036    28.887     8.814
    77   6 C        2.921    -0.034    28.841     8.807
    78   6 C        2.921    -0.036    28.895     8.815
    79   6 C        2.924    -0.034    28.853     8.809
    80   6 C        2.919    -0.043    29.080     8.843
    81   1 H        0.925     0.032     2.554     2.499
    82   1 H        0.925     0.037     2.493     2.469
    83   1 H        0.925     0.038     2.471     2.458
    84   1 H        0.925     0.037     2.486     2.466
    85   1 H        0.925     0.036     2.508     2.477
    86   1 H        0.925     0.036     2.507     2.476
    87   1 H        0.925     0.037     2.491     2.468
    88   1 H        0.925     0.038     2.473     2.459
    89   1 H        0.925     0.032     2.551     2.498
    90   1 H        0.926     0.040     2.451     2.448
    91   1 H        0.926     0.030     2.586     2.515
    92   1 H        0.926     0.034     2.531     2.488
    93   1 H        0.926     0.040     2.445     2.445
    94   1 H        0.925     0.033     2.548     2.496
    95   1 H        0.925     0.036     2.499     2.472
    96   1 H        0.925     0.038     2.471     2.458
    97   1 H        0.925     0.036     2.504     2.475
    98   1 H        0.925     0.036     2.503     2.474
    99   1 H        0.925     0.037     2.489     2.467
   100   1 H        0.925     0.038     2.470     2.458
   101   1 H        0.925     0.036     2.500     2.473
   102   1 H        0.925     0.033     2.549     2.497
   103   1 H        0.926     0.033     2.548     2.496
   104   1 H        0.926     0.030     2.587     2.515
   105   1 H        0.926     0.041     2.434     2.440
   106   1 H        0.926     0.040     2.448     2.447
   107   1 H        0.926     0.032     2.551     2.498
   108   1 H        0.926     0.031     2.574     2.509
   109   1 H        0.926     0.033     2.541     2.493
   110   1 H        0.926     0.027     2.635     2.538
   111   1 H        0.926     0.028     2.616     2.529
   112   1 H        0.926     0.030     2.580     2.512
   113   1 H        0.926     0.031     2.567     2.506
   114   1 H        0.926     0.031     2.573     2.509
   115   1 H        0.926     0.028     2.609     2.526
   116   1 H        0.926     0.021     2.715     2.577
   117   1 H        0.926     0.045     2.384     2.414
   118   1 H        0.926     0.035     2.519     2.482
   119   1 H        0.926     0.035     2.513     2.479
   120   1 H        0.926     0.037     2.490     2.468
   121   1 H        0.926     0.038     2.479     2.462
   122   1 H        0.926     0.033     2.538     2.491
   123   1 H        0.926     0.032     2.561     2.503
   124   1 H        0.926     0.029     2.599     2.521
   125   1 H        0.926     0.038     2.479     2.462
   126   1 H        0.926     0.046     2.365     2.405
   127   1 H        0.926     0.046     2.364     2.404
   128   1 H        0.926     0.046     2.370     2.407
   129   1 H        0.926     0.039     2.461     2.453
   130   1 H        0.926     0.045     2.384     2.414
   131   1 H        0.926     0.033     2.544     2.494
   132   1 H        0.926     0.033     2.541     2.493
   133   1 H        0.926     0.028     2.619     2.531
   134   1 H        0.926     0.029     2.593     2.518
   135   1 H        0.926     0.030     2.587     2.515
   136   1 H        0.926     0.030     2.581     2.512
   137   1 H        0.926     0.030     2.587     2.515
   138   1 H        0.926     0.028     2.612     2.527
   139   1 H        0.926     0.031     2.574     2.509
   140   1 H        0.926     0.041     2.441     2.443
   141   1 H        0.926     0.041     2.431     2.438

molecular dipole:
                 x           y           z       tot (Debye)
 q only:       -2.823       0.994       0.624
   full:       -2.505       1.264       0.793       7.410

 projected vibrational frequencies (cm⁻¹)
eigval :       -0.00    -0.00    -0.00     0.00     0.00     0.00
eigval :       -6.02     5.02     6.65    10.17    13.42    16.71
eigval :       17.55    23.67    30.95    32.84    34.56    38.96
eigval :       41.33    46.44    51.62    53.88    54.37    57.56
eigval :       60.32    64.60    67.20    69.05    72.10    78.00
eigval :       80.93    88.11    90.57    90.79   100.85   110.37
eigval :      122.31   123.03   135.01   139.25   147.48   154.44
eigval :      161.12   168.69   173.12   184.47   189.99   191.61
eigval :      197.33   204.60   212.81   215.67   219.70   224.04
eigval :      229.48   238.15   240.42   243.89   251.46   254.90
eigval :      259.35   266.58   270.40   279.69   298.78   304.73
eigval :      310.89   319.34   321.53   327.55   327.95   331.01
eigval :      339.07   344.86   354.95   359.55   370.38   373.19
eigval :      374.19   376.37   377.44   380.81   382.48   383.93
eigval :      391.49   392.98   396.23   407.94   409.54   409.71
eigval :      416.81   428.20   434.98   441.15   442.20   443.83
eigval :      449.70   454.35   463.51   466.37   468.29   476.62
eigval :      479.41   488.99   500.69   504.36   509.99   514.61
eigval :      519.11   524.58   536.18   552.12   572.85   576.03
eigval :      582.27   583.17   584.25   585.77   586.22   586.72
eigval :      593.27   597.24   605.50   608.78   615.60   619.46
eigval :      627.75   628.81   633.37   640.33   641.82   656.05
eigval :      662.70   664.87   669.85   671.16   672.61   678.59
eigval :      679.64   684.12   689.33   693.90   698.08   703.88
eigval :      707.91   712.62   719.36   725.71   728.08   739.87
eigval :      756.60   757.02   761.11   763.13   773.32   773.97
eigval :      793.67   802.67   802.92   816.14   820.46   821.93
eigval :      831.40   831.95   851.95   854.86   864.68   866.41
eigval :      866.95   869.37   872.43   872.64   873.62   874.50
eigval :      875.87   878.97   883.10   898.38   898.77   899.23
eigval :      900.26   905.14   909.92   911.33   912.22   915.06
eigval :      915.29   915.45   916.75   920.65   921.62   922.32
eigval :      923.10   925.52   927.34   928.32   928.35   929.16
eigval :      932.36   933.20   934.08   935.09   938.88   947.21
eigval :      958.45   959.15   959.41   961.45   961.92   962.33
eigval :      964.15   974.19   984.77   987.15  1004.14  1009.58
eigval :     1021.97  1031.40  1034.02  1035.10  1035.58  1039.03
eigval :     1051.58  1060.78  1071.97  1076.94  1079.65  1082.66
eigval :     1084.63  1087.20  1100.33  1103.58  1112.33  1113.23
eigval :     1121.36  1122.22  1127.74  1135.47  1138.47  1140.61
eigval :     1141.46  1150.32  1158.94  1168.98  1171.73  1176.67
eigval :     1179.71  1180.48  1180.95  1183.52  1185.29  1187.59
eigval :     1197.12  1198.83  1202.98  1206.58  1210.77  1224.19
eigval :     1224.94  1225.49  1226.58  1230.01  1230.58  1232.19
eigval :     1244.05  1247.72  1249.14  1252.22  1255.98  1256.57
eigval :     1264.71  1268.28  1270.43  1272.55  1273.15  1277.29
eigval :     1281.16  1281.88  1282.74  1283.25  1290.58  1296.99
eigval :     1302.69  1306.77  1312.28  1314.23  1316.18  1317.89
eigval :     1322.49  1332.52  1337.25  1338.72  1341.27  1344.51
eigval :     1351.00  1360.96  1370.39  1381.41  1390.12  1392.99
eigval :     1397.16  1398.77  1401.80  1402.65  1403.02  1404.11
eigval :     1409.14  1414.05  1417.83  1420.64  1425.08  1426.85
eigval :     1427.55  1428.82  1429.72  1430.32  1435.29  1440.24
eigval :     1445.38  1453.18  1466.43  1468.13  1472.18  1476.92
eigval :     1477.48  1481.86  1483.04  1486.94  1487.97  1488.96
eigval :     1491.11  1491.95  1496.70  1498.48  1498.94  1501.58
eigval :     1502.45  1512.23  1512.45  1514.71  1516.08  1517.70
eigval :     1518.15  1525.81  1538.04  1543.50  1545.52  1552.13
eigval :     1565.60  1566.80  1567.70  1574.52  1574.84  1578.11
eigval :     1583.23  1586.49  1586.81  1589.36  1591.33  1593.95
eigval :     1594.78  1607.93  3018.23  3018.95  3019.80  3019.95
eigval :     3023.19  3023.25  3024.54  3024.66  3026.86  3026.89
eigval :     3030.25  3030.31  3034.92  3035.32  3043.50  3044.32
eigval :     3046.97  3047.85  3065.08  3065.12  3066.88  3067.24
eigval :     3067.89  3071.15  3073.70  3074.25  3075.05  3075.20
eigval :     3075.23  3076.51  3078.45  3079.25  3079.29  3079.87
eigval :     3080.01  3081.43  3082.22  3082.38  3082.77  3083.54
eigval :     3083.70  3085.10  3085.70  3087.27  3087.54  3087.75
eigval :     3089.97  3091.00  3091.55  3091.82  3093.60  3094.10
eigval :     3097.52  3100.18  3102.18  3104.52  3108.63  3116.88
eigval :     3117.71  3119.90  3123.94

   temp. (K)  partition function   enthalpy   heat capacity  entropy
                                   cal/mol     cal/K/mol   cal/K/mol   J/K/mol
 298.15  VIB  0.142E+35            41378.623    255.195    262.052
         ROT  0.668E+09              888.752      2.981     43.361
         INT  0.947E+43            42267.375    258.176    305.413
         TR   0.319E+29             1481.254      4.968     46.644
         TOT                       43748.6290   263.1440   352.0562  1473.0030

       T/K    H(0)-H(T)+PV         H(T)/Eh          T*S/Eh         G(T)/Eh
   ------------------------------------------------------------------------
    298.15    0.697179E-01    0.119112E+01    0.167273E+00    0.102384E+01
   ------------------------------------------------------------------------

         :::::::::::::::::::::::::::::::::::::::::::::::::::::
         ::                  THERMODYNAMIC                  ::
         :::::::::::::::::::::::::::::::::::::::::::::::::::::
         :: total free energy        -203.858400304605 Eh   ::
         ::.................................................::
         :: total energy             -204.882242971945 Eh   ::
         :: zero point energy           1.121398039550 Eh   ::
         :: G(RRHO) w/o ZPVE           -0.097555372210 Eh   ::
         :: G(RRHO) contrib.            1.023842667340 Eh   ::
         :::::::::::::::::::::::::::::::::::::::::::::::::::::

           -------------------------------------------------
          | TOTAL ENERGY             -204.882242971945 Eh   |
          | TOTAL ENTHALPY           -203.691127054322 Eh   |
          | TOTAL FREE ENERGY        -203.858400304605 Eh   |
          | GRADIENT NORM               0.000084434034 Eh/α |
          | HOMO-LUMO GAP               0.499048857220 eV   |
           -------------------------------------------------

 * finished run on 2025/09/02 at 22:21:16.621
