   * xtb version 6.7.1 (edcfbbe) compiled by 'albert@albert-system' on 2024-07-22

   ID    Z sym.   atoms
    1    6 C      1-20, 22-44, 46-59, 61-80
    2    7 N      21, 45, 60
    3    1 H      81-141

          program call               : xtb data2507/toluene/PTPC/PTPC_toluene_S0_finalOpt.xtbopt.xyz --gfn 2 --uhf 2 --gbsa toluene --ohess vtight --parallel 40 --molden --ceasefiles --namespace data2507/toluene/PTPC/PTPC_toluene_T1_preOpt
      * Solvation model:               GBSA
        Solvent                        toluene
        Solvent mass                       9.2140E+01 g/mol
          :  Hamiltonian                  GFN2-xTB          :
 * total energy  :  -204.8706327 Eh     change       -0.5404166E-07 Eh
 * total energy  :  -204.8748972 Eh     change       -0.4264532E-02 Eh
 * total energy  :  -204.8775848 Eh     change       -0.2687592E-02 Eh
 * total energy  :  -204.8784046 Eh     change       -0.8198301E-03 Eh
 * total energy  :  -204.8793351 Eh     change       -0.9305281E-03 Eh
 * total energy  :  -204.8798022 Eh     change       -0.4670316E-03 Eh
 * total energy  :  -204.8800962 Eh     change       -0.2940516E-03 Eh
 * total energy  :  -204.8803013 Eh     change       -0.2050978E-03 Eh
 * total energy  :  -204.8804532 Eh     change       -0.1519085E-03 Eh
 * total energy  :  -204.8805675 Eh     change       -0.1142537E-03 Eh
 * total energy  :  -204.8816213 Eh     change       -0.4637946E-06 Eh
 * total energy  :  -204.8816218 Eh     change       -0.5105687E-06 Eh
 * total energy  :  -204.8816224 Eh     change       -0.5546290E-06 Eh
 * total energy  :  -204.8816229 Eh     change       -0.4920353E-06 Eh
 * total energy  :  -204.8816233 Eh     change       -0.4304619E-06 Eh
 * total energy  :  -204.8816237 Eh     change       -0.4418951E-06 Eh
 * total energy  :  -204.8816244 Eh     change       -0.6842854E-06 Eh
 * total energy  :  -204.8816253 Eh     change       -0.8546763E-06 Eh
 * total energy  :  -204.8816253 Eh     change       -0.6739015E-08 Eh
   *** GEOMETRY OPTIMIZATION CONVERGED AFTER 152 ITERATIONS ***

 final structure:
================
141
 xtb: 6.7.1 (edcfbbe)
C          -13.20564370906313       -4.27915582767145        3.16762401765151
C          -13.39993645301393       -2.77494000618351        3.41191316059075
C          -13.17545170449471       -2.45656600511366        4.89791924292701
C          -14.84924269814362       -2.42117484145343        3.06377534529988
C          -12.39089092722672       -2.00062172341775        2.57560837361822
C          -11.02299218601013       -2.22447909615180        2.78449505337945
C          -10.03759283160395       -1.57619186633537        2.06750956601147
C          -10.42973552679392       -0.67190964754035        1.09119524646775
C          -11.79992811855702       -0.40666717391570        0.88037251048207
C          -12.76968196841757       -1.07186083466560        1.61727839561413
C          -11.86630388320745        0.60094587738426       -0.14472142209000
C          -12.92414627060660        1.23913628704184       -0.77693184627969
C          -12.67102094929907        2.17268238995103       -1.77136574775560
C          -13.78073009408541        2.91539344083262       -2.50221380259311
C          -13.70739007934479        2.58425012150409       -4.00059992325010
C          -15.17644229146110        2.53370342688190       -1.99910124006160
C          -13.59725544581227        4.42639377504165       -2.29425866567360
C          -11.33845049296790        2.43009188775908       -2.12175056400361
C          -10.26764323321429        1.81033896850565       -1.50986516162162
C          -10.53271912360830        0.89978397732379       -0.49731782277013
N           -9.67140929744197        0.12441753566244        0.25492577105828
C           -8.27454821800595        0.14099597619475        0.17850094531421
C           -7.55801792087986       -1.05069610631143        0.07454793814481
C           -6.18181287549901       -1.02935131036270       -0.00017557577348
C           -5.47583211785286        0.17692625592548        0.01220333867250
C           -4.01723150976293        0.19239437920457       -0.08342521782703
C           -3.24209489221027       -0.79187897067792        0.53899956365623
C           -1.87105090266351       -0.79063320483971        0.43393534521076
C           -1.20178858074842        0.19429289716064       -0.30633271521397
C            0.24781600304022        0.20081783566782       -0.42112971966841
C            0.94562153837527        1.40991710858178       -0.35502185861022
C            2.32384887239644        1.49058851259418       -0.37476406289772
C            2.94324618607577        2.81909126477262       -0.44793030124273
C            3.93402108469502        3.08961646598869       -1.39473753150622
C            4.48545234127589        4.35171279405914       -1.49535023540944
C            4.06150354541205        5.36925957342462       -0.65480569176321
C            3.07296526582230        5.11590150069462        0.28276371202788
C            2.51342444770565        3.85601020975068        0.38118380323468
C            3.09304724961447        0.28712125368580       -0.43356559651238
C            4.51681476598333        0.26324968539451       -0.29265520415965
C            5.31004087436059       -0.72265917670223       -0.93743730459648
C            6.66516911325835       -0.76342361003193       -0.81171112718656
C            7.35808563260007        0.16911377845946        0.01009599564927
C            8.74873648097037        0.21342845643807        0.21153119641057
N            9.35050372409016        1.27900486798569        0.76430788177361
C           10.65907443580138        1.03095771879731        0.75181618137244
C           11.71098415920450        1.88797596836705        1.19029696677590
C           11.43494502831886        3.16540873790235        1.68561061796885
C           12.45779568215198        3.99604712463811        2.08193830426654
C           13.77230803721852        3.55050531350334        1.98039933638841
C           14.05552748620351        2.29142660803199        1.49610217145356
C           13.03993283040931        1.41346642616106        1.08905349983178
C           13.30377217619583        0.07193299964095        0.59815343622932
C           14.60159190752064       -0.44776262711352        0.54747013155374
C           14.86545641239290       -1.72878002997769        0.11513146018239
C           13.81815272514724       -2.56193832955956       -0.27768639257321
C           12.53094544573562       -2.09317564355355       -0.25220445579227
C           12.23578884622390       -0.77825096451939        0.16362085149680
C           10.92851142843118       -0.24908113557520        0.20613629823412
N            9.70099851452028       -0.75776041054336       -0.14173368253863
C            9.42611940551814       -2.03133202966397       -0.68076539600311
C            8.81387128642106       -2.99919494173100        0.11045199282340
C            8.53675691032696       -4.24511129151151       -0.42262692495366
C            8.86846542267745       -4.53137444559746       -1.73741831427863
C            9.47925194431892       -3.56735450792066       -2.52472147531207
C            9.75952577389633       -2.31766798004935       -2.00286366917467
C            6.56295626933009        1.15991747201642        0.66082802518806
C            5.21330119567073        1.20345228296791        0.51747710528010
C            2.38012503578831       -0.91886944895766       -0.58993952795092
C            1.00620096018358       -0.99031302940954       -0.58467870763298
C            0.36566844203868       -2.29526937282909       -0.81851707834293
C            0.76999237907213       -3.42265109919654       -0.10639351513831
C            0.18499943027900       -4.65309538919016       -0.34366472704412
C           -0.80574735831156       -4.77991346670639       -1.30344554318354
C           -1.20411826885625       -3.66815993566547       -2.02847816956515
C           -0.62481200874486       -2.43644294428330       -1.78960136308488
C           -1.97903684911288        1.19229112368710       -0.90984202331968
C           -3.35071410970150        1.18997632599467       -0.80237994429416
C           -6.20565479712823        1.36465252422271        0.11273826631744
C           -7.58108080704302        1.35048166798547        0.20223257719106
H          -12.21105857085667       -4.60431134094676        3.46022549108556
H          -13.34336005957690       -4.50978954776687        2.11284477862612
H          -13.93246298277736       -4.84870669150186        3.74329794425511
H          -13.90771572280737       -2.98193979114881        5.50775794792686
H          -12.18367811625170       -2.75765000862517        5.22394533790317
H          -13.28229394210506       -1.38782129811785        5.07424387059436
H          -15.06833682647616       -2.64741681548587        2.02262975683125
H          -15.52377551032754       -3.00863817028456        3.68371552042015
H          -15.05214261736113       -1.36927173987928        3.25213800638734
H          -10.71202536277444       -2.92994276605140        3.53987775267594
H           -8.99469853884578       -1.76379138417522        2.27443165738927
H          -13.80606924790278       -0.84666416686979        1.42953122028126
H          -13.92921191646457        0.98866163301215       -0.48163526310306
H          -13.81002983497187        1.51164714391070       -4.15445687009367
H          -12.76193468265302        2.90092588125114       -4.43240735473087
H          -14.51075210163618        3.08787697396125       -4.53447681521315
H          -15.28860865011922        2.76554732943839       -0.94229470659060
H          -15.37436547941711        1.47583255004580       -2.15679247915748
H          -15.92621500220650        3.10004699215244       -2.54830082235146
H          -14.39299526331254        4.97257313691237       -2.79679404993063
H          -12.64647167891163        4.77043574282329       -2.69186922238371
H          -13.63016966254452        4.66679510423973       -1.23319915621206
H          -11.12570371231904        3.13958383233815       -2.90679516984326
H           -9.25736794208760        2.02501898886773       -1.82390028277121
H           -8.09095533564169       -1.98880963967870        0.02750496817608
H           -5.64269986663706       -1.95912994343017       -0.10549336850644
H           -3.72571281895065       -1.54911023429927        1.13899717642603
H           -1.29732120825346       -1.54296456268116        0.95411431645634
H            0.37920703468150        2.32810906466818       -0.28800473568280
H            4.25918951978586        2.30401253276461       -2.06154253032574
H            5.25049326542902        4.54426516435537       -2.23394978910653
H            4.49855205527136        6.35421450062626       -0.73091236501323
H            2.73898887568105        5.90446119574725        0.94228069448986
H            1.75583790593784        3.65984343493969        1.12696278970727
H            4.83064135986362       -1.42291119513084       -1.60622699224198
H            7.21985507126411       -1.49096874547502       -1.38145458809790
H           10.40157172687810        3.47265241134062        1.73933022690471
H           12.24612539742753        4.98340626462573        2.46455306470808
H           14.58270952241155        4.19764120702594        2.28392998980299
H           15.09001312054347        1.99372223239512        1.43438906034415
H           15.43404884296376        0.16096522926470        0.86160736694391
H           15.88253575902969       -2.09097575137704        0.09114917612751
H           14.01966684133848       -3.57385769138241       -0.59701349470706
H           11.72382778586166       -2.74519864105953       -0.54261115781171
H            8.55634311127140       -2.76250955049574        1.13244860318246
H            8.06298813963345       -4.99494769156975        0.19291586903156
H            8.65049678531427       -5.50495166239367       -2.14945830167724
H            9.73634582695282       -3.78675009243101       -3.55016879005446
H           10.23484113283377       -1.55794801555054       -2.60655607834958
H            7.07504743031407        1.86325270115372        1.29848800565555
H            4.64594491320372        1.93511690516360        1.07180510747374
H            2.93773854015811       -1.83867189492899       -0.68990254000821
H            1.53290234713008       -3.32446111526815        0.65343722206878
H            0.50177152048050       -5.51654084508475        0.22425444287051
H           -1.26390140270374       -5.74103225313834       -1.48688336267678
H           -1.97003754823012       -3.76187349298428       -2.78516871363412
H           -0.93127345782955       -1.57517525279324       -2.36543180138198
H           -1.49460463902328        1.95302312947241       -1.50528856313365
H           -3.92349822657747        1.95082920576738       -1.31278153090767
H           -5.68269986935386        2.30843745964781        0.15550237234696
H           -8.12848946927276        2.27472206964279        0.31352997594246

          :  Hamiltonian                  GFN2-xTB          :
         :: gradient norm              0.000055209803 Eh/a0 ::
         :: HOMO-LUMO gap              0.488988158908 eV    ::
         :: SCC energy              -208.689453705792 Eh    ::
         :: -> dispersion             -0.196891682601 Eh    ::
         :: -> Gsolv                  -0.084052167568 Eh    ::
         :: repulsion energy           3.807828410720 Eh    ::

    * Orbital Energies and Occupations

         #    Occupation            Energy/Eh            Energy/eV
      -------------------------------------------------------------
         1        2.0000           -0.6842137             -18.6184
       ...           ...                  ...                  ...
       181        2.0000           -0.3999079             -10.8820
       182        2.0000           -0.3991172             -10.8605
       183        2.0000           -0.3982990             -10.8383
       184        2.0000           -0.3939316             -10.7194
       185        2.0000           -0.3870191             -10.5313
       186        2.0000           -0.3836879             -10.4407
       187        2.0000           -0.3814194             -10.3790
       188        2.0000           -0.3766816             -10.2500
       189        2.0000           -0.3754178             -10.2156
       190        2.0000           -0.3705001             -10.0818
       191        1.9337           -0.3580033              -9.7418
       192        1.0663           -0.3529774              -9.6050
       193        0.9999           -0.2757931              -7.5047 (HOMO)
       194        0.0001           -0.2578232              -7.0157 (LUMO)
       195        0.0000           -0.2516784              -6.8485
       196                         -0.2479221              -6.7463
       197                         -0.2426576              -6.6030
       198                         -0.2413821              -6.5683
       199                         -0.2389487              -6.5021
       200                         -0.2381258              -6.4797
       201                         -0.2287606              -6.2249
       202                         -0.2245339              -6.1099
       203                         -0.2227984              -6.0627
       204                         -0.2208732              -6.0103
       ...                                ...                  ...
       381                          0.7393897              20.1198
      -------------------------------------------------------------
                  HL-Gap            0.0179699 Eh            0.4890 eV

     #   Z          covCN         q      C6AA      α(0)
     1   6 C        3.761    -0.105    22.551     6.770
     2   6 C        3.902     0.025    20.093     6.372
     3   6 C        3.761    -0.105    22.551     6.770
     4   6 C        3.761    -0.107    22.593     6.776
     5   6 C        2.972     0.001    28.000     8.680
     6   6 C        2.930    -0.040    28.986     8.829
     7   6 C        2.908    -0.051    29.278     8.872
     8   6 C        3.078     0.044    26.938     8.509
     9   6 C        3.066    -0.019    28.414     8.741
    10   6 C        2.917    -0.044    29.081     8.843
    11   6 C        3.065    -0.019    28.414     8.741
    12   6 C        2.917    -0.043    29.080     8.843
    13   6 C        2.972     0.001    28.000     8.680
    14   6 C        3.902     0.025    20.093     6.372
    15   6 C        3.761    -0.105    22.550     6.769
    16   6 C        3.761    -0.107    22.593     6.776
    17   6 C        3.761    -0.105    22.552     6.770
    18   6 C        2.930    -0.040    28.987     8.830
    19   6 C        2.908    -0.052    29.279     8.873
    20   6 C        3.078     0.044    26.937     8.509
    21   7 N        2.801    -0.037    21.951     6.959
    22   6 C        2.912     0.060    26.646     8.464
    23   6 C        2.919    -0.043    29.072     8.842
    24   6 C        2.924    -0.034    28.844     8.807
    25   6 C        2.974     0.009    27.823     8.652
    26   6 C        2.975     0.004    27.918     8.667
    27   6 C        2.921    -0.036    28.891     8.814
    28   6 C        2.921    -0.034    28.837     8.806
    29   6 C        2.974     0.011    27.775     8.645
    30   6 C        2.974    -0.002    28.074     8.691
    31   6 C        2.927    -0.042    29.050     8.839
    32   6 C        2.973    -0.001    28.038     8.686
    33   6 C        2.978     0.014    27.694     8.632
    34   6 C        2.924    -0.031    28.765     8.795
    35   6 C        2.918    -0.030    28.753     8.793
    36   6 C        2.919    -0.033    28.817     8.803
    37   6 C        2.918    -0.031    28.771     8.796
    38   6 C        2.924    -0.037    28.911     8.818
    39   6 C        2.970     0.001    28.007     8.681
    40   6 C        2.971     0.005    27.897     8.664
    41   6 C        2.916    -0.037    28.929     8.820
    42   6 C        2.911    -0.044    29.096     8.845
    43   6 C        2.968    -0.014    28.369     8.737
    44   6 C        3.142     0.131    24.914     8.168
    45   7 N        1.886    -0.322    29.214     8.013
    46   6 C        3.172     0.078    25.898     8.313
    47   6 C        2.984    -0.007    28.183     8.708
    48   6 C        2.922    -0.029    28.731     8.790
    49   6 C        2.916    -0.033    28.819     8.803
    50   6 C        2.917    -0.030    28.761     8.794
    51   6 C        2.921    -0.036    28.898     8.815
    52   6 C        2.977    -0.003    28.086     8.693
    53   6 C        2.977    -0.003    28.105     8.696
    54   6 C        2.920    -0.034    28.843     8.807
    55   6 C        2.916    -0.034    28.855     8.809
    56   6 C        2.915    -0.033    28.827     8.804
    57   6 C        2.918    -0.039    28.976     8.827
    58   6 C        2.974    -0.012    28.308     8.727
    59   6 C        3.043     0.036    27.157     8.547
    60   7 N        2.822    -0.070    22.597     7.060
    61   6 C        2.910     0.069    26.461     8.435
    62   6 C        2.921    -0.038    28.937     8.821
    63   6 C        2.919    -0.026    28.645     8.777
    64   6 C        2.919    -0.030    28.756     8.794
    65   6 C        2.919    -0.027    28.674     8.781
    66   6 C        2.920    -0.038    28.950     8.823
    67   6 C        2.921    -0.035    28.870     8.811
    68   6 C        2.914    -0.035    28.863     8.810
    69   6 C        2.928    -0.044    29.097     8.846
    70   6 C        2.973     0.001    27.997     8.679
    71   6 C        2.978     0.013    27.715     8.635
    72   6 C        2.924    -0.036    28.898     8.816
    73   6 C        2.918    -0.031    28.780     8.797
    74   6 C        2.920    -0.033    28.831     8.805
    75   6 C        2.918    -0.031    28.769     8.796
    76   6 C        2.924    -0.031    28.786     8.799
    77   6 C        2.922    -0.037    28.927     8.820
    78   6 C        2.921    -0.036    28.900     8.816
    79   6 C        2.924    -0.034    28.848     8.808
    80   6 C        2.919    -0.043    29.075     8.842
    81   1 H        0.925     0.036     2.499     2.472
    82   1 H        0.925     0.033     2.547     2.496
    83   1 H        0.925     0.038     2.471     2.458
    84   1 H        0.925     0.038     2.470     2.458
    85   1 H        0.925     0.036     2.501     2.473
    86   1 H        0.925     0.033     2.549     2.497
    87   1 H        0.925     0.036     2.499     2.472
    88   1 H        0.925     0.037     2.489     2.467
    89   1 H        0.925     0.036     2.501     2.473
    90   1 H        0.926     0.033     2.548     2.496
    91   1 H        0.926     0.030     2.586     2.515
    92   1 H        0.926     0.041     2.430     2.438
    93   1 H        0.926     0.041     2.430     2.438
    94   1 H        0.925     0.033     2.549     2.497
    95   1 H        0.925     0.036     2.501     2.473
    96   1 H        0.925     0.038     2.469     2.457
    97   1 H        0.925     0.036     2.500     2.472
    98   1 H        0.925     0.036     2.501     2.473
    99   1 H        0.925     0.037     2.489     2.467
   100   1 H        0.925     0.038     2.472     2.459
   101   1 H        0.925     0.036     2.499     2.472
   102   1 H        0.925     0.033     2.547     2.496
   103   1 H        0.926     0.033     2.547     2.496
   104   1 H        0.926     0.030     2.585     2.514
   105   1 H        0.926     0.042     2.429     2.437
   106   1 H        0.926     0.040     2.445     2.445
   107   1 H        0.926     0.031     2.578     2.511
   108   1 H        0.926     0.028     2.613     2.528
   109   1 H        0.926     0.034     2.529     2.487
   110   1 H        0.926     0.026     2.641     2.541
   111   1 H        0.926     0.028     2.611     2.527
   112   1 H        0.926     0.030     2.587     2.515
   113   1 H        0.926     0.031     2.574     2.509
   114   1 H        0.926     0.031     2.568     2.506
   115   1 H        0.926     0.031     2.573     2.508
   116   1 H        0.926     0.023     2.685     2.562
   117   1 H        0.926     0.045     2.379     2.412
   118   1 H        0.926     0.035     2.514     2.480
   119   1 H        0.926     0.036     2.506     2.476
   120   1 H        0.926     0.037     2.485     2.465
   121   1 H        0.926     0.038     2.478     2.462
   122   1 H        0.926     0.033     2.538     2.491
   123   1 H        0.926     0.032     2.561     2.503
   124   1 H        0.926     0.030     2.592     2.518
   125   1 H        0.926     0.037     2.487     2.466
   126   1 H        0.926     0.046     2.375     2.410
   127   1 H        0.926     0.046     2.373     2.409
   128   1 H        0.926     0.046     2.376     2.410
   129   1 H        0.926     0.039     2.462     2.454
   130   1 H        0.926     0.042     2.419     2.432
   131   1 H        0.926     0.031     2.568     2.506
   132   1 H        0.926     0.033     2.545     2.495
   133   1 H        0.926     0.029     2.596     2.519
   134   1 H        0.926     0.030     2.592     2.517
   135   1 H        0.926     0.029     2.594     2.519
   136   1 H        0.926     0.029     2.599     2.521
   137   1 H        0.926     0.027     2.633     2.537
   138   1 H        0.926     0.031     2.572     2.508
   139   1 H        0.926     0.032     2.556     2.500
   140   1 H        0.926     0.041     2.440     2.443
   141   1 H        0.926     0.042     2.426     2.436

molecular dipole:
                 x           y           z       tot (Debye)
 q only:       -2.909      -0.915      -0.313
   full:       -2.553      -1.227      -0.461       7.295

 projected vibrational frequencies (cm⁻¹)
eigval :       -0.00     0.00     0.00     0.00     0.00     0.00
eigval :        5.02     6.27     8.01    11.47    12.46    15.10
eigval :       23.33    24.86    30.51    31.26    36.16    38.25
eigval :       39.75    41.66    46.96    48.85    52.61    55.70
eigval :       62.04    63.96    64.68    71.41    75.67    76.55
eigval :       88.27    90.46    92.97    97.35    99.89   105.80
eigval :      116.29   127.74   128.01   137.26   148.97   157.78
eigval :      159.96   169.72   179.26   186.79   189.68   202.91
eigval :      204.59   206.06   217.99   221.50   223.58   225.80
eigval :      232.67   234.28   236.10   240.79   252.78   258.69
eigval :      258.93   262.46   273.28   279.39   286.07   289.90
eigval :      313.31   318.51   321.47   323.91   325.77   331.49
eigval :      341.86   350.95   356.59   359.15   371.11   373.55
eigval :      374.42   376.89   378.61   384.62   388.50   389.56
eigval :      391.86   394.70   397.10   406.39   408.39   409.63
eigval :      417.55   427.42   435.62   439.93   442.19   442.87
eigval :      452.29   455.81   463.46   466.09   469.52   471.48
eigval :      481.54   483.85   499.40   504.03   511.28   515.07
eigval :      520.37   527.51   538.62   551.63   573.45   575.91
eigval :      582.39   582.98   584.20   585.55   586.54   588.61
eigval :      592.79   596.93   603.73   607.86   614.10   619.31
eigval :      628.30   630.01   632.49   640.84   641.96   657.87
eigval :      661.35   663.47   669.70   672.16   674.09   675.88
eigval :      681.73   689.27   690.18   690.97   695.64   705.11
eigval :      707.17   712.48   719.81   725.14   729.08   740.04
eigval :      756.92   759.21   761.04   761.92   774.22   777.11
eigval :      793.21   801.88   804.92   820.06   822.16   826.53
eigval :      830.49   831.80   853.72   858.46   860.70   864.32
eigval :      867.51   869.26   870.40   872.51   872.87   874.24
eigval :      875.31   876.18   882.91   897.48   899.61   900.93
eigval :      901.83   908.55   910.86   913.22   913.67   916.05
eigval :      917.79   920.33   921.85   923.33   923.79   924.06
eigval :      924.55   925.48   927.07   927.39   929.10   929.18
eigval :      929.43   930.22   932.51   933.09   940.06   947.54
eigval :      958.56   959.33   959.48   960.41   963.85   964.18
eigval :      964.47   974.33   985.11   987.65  1002.84  1010.02
eigval :     1022.74  1030.27  1034.20  1035.72  1036.13  1040.78
eigval :     1052.48  1059.29  1074.32  1076.15  1080.62  1081.99
eigval :     1083.79  1088.28  1097.75  1103.26  1113.46  1113.83
eigval :     1120.84  1121.04  1127.98  1134.98  1136.31  1140.37
eigval :     1141.29  1148.04  1158.78  1169.99  1170.50  1177.06
eigval :     1179.29  1179.73  1180.49  1184.24  1184.93  1188.32
eigval :     1197.16  1199.00  1202.56  1207.16  1210.42  1222.51
eigval :     1224.42  1225.01  1228.83  1229.69  1230.89  1233.71
eigval :     1241.10  1246.23  1248.15  1252.50  1254.01  1257.26
eigval :     1266.09  1267.31  1271.42  1272.02  1272.46  1278.32
eigval :     1280.99  1282.49  1282.90  1283.48  1291.39  1299.63
eigval :     1302.42  1307.70  1311.89  1313.76  1315.54  1317.05
eigval :     1320.92  1331.44  1337.32  1337.97  1339.75  1344.35
eigval :     1348.23  1359.77  1370.14  1377.43  1389.45  1392.95
eigval :     1398.69  1401.46  1402.35  1402.67  1403.80  1403.99
eigval :     1408.33  1412.41  1416.47  1420.70  1425.11  1426.66
eigval :     1427.68  1428.05  1430.33  1432.14  1435.71  1437.70
eigval :     1445.48  1454.91  1468.96  1470.60  1470.92  1477.09
eigval :     1480.02  1480.84  1482.89  1485.15  1489.28  1489.32
eigval :     1491.47  1491.80  1498.23  1498.44  1498.65  1502.68
eigval :     1502.86  1511.65  1512.43  1514.25  1517.58  1519.19
eigval :     1519.66  1526.55  1537.46  1544.40  1545.80  1552.15
eigval :     1564.63  1565.55  1567.95  1571.81  1575.49  1576.19
eigval :     1581.59  1583.93  1586.31  1589.82  1589.99  1594.33
eigval :     1595.49  1605.92  3019.46  3019.55  3020.31  3020.39
eigval :     3023.36  3023.53  3024.75  3024.90  3027.01  3027.09
eigval :     3030.31  3031.06  3035.20  3036.17  3043.22  3044.27
eigval :     3046.10  3047.92  3062.67  3064.04  3066.12  3066.52
eigval :     3068.03  3071.40  3072.17  3072.73  3072.98  3073.56
eigval :     3074.42  3075.25  3078.19  3078.41  3079.13  3079.27
eigval :     3079.80  3080.54  3080.72  3080.89  3081.16  3082.41
eigval :     3083.06  3085.08  3086.71  3087.03  3087.10  3090.04
eigval :     3090.11  3090.95  3091.22  3091.81  3092.81  3093.56
eigval :     3096.68  3098.75  3100.59  3105.27  3108.33  3115.15
eigval :     3117.05  3119.75  3126.52

   temp. (K)  partition function   enthalpy   heat capacity  entropy
                                   cal/mol     cal/K/mol   cal/K/mol   J/K/mol
 298.15  VIB  0.103E+35            41343.343    254.806    261.170
         ROT  0.674E+09              888.752      2.981     43.378
         INT  0.692E+43            42232.096    257.787    304.548
         TR   0.319E+29             1481.254      4.968     46.644
         TOT                       43713.3495   262.7553   351.1915  1469.3851

       T/K    H(0)-H(T)+PV         H(T)/Eh          T*S/Eh         G(T)/Eh
   ------------------------------------------------------------------------
    298.15    0.696617E-01    0.119114E+01    0.166862E+00    0.102428E+01
   ------------------------------------------------------------------------

         :::::::::::::::::::::::::::::::::::::::::::::::::::::
         ::                  THERMODYNAMIC                  ::
         :::::::::::::::::::::::::::::::::::::::::::::::::::::
         :: total free energy        -203.857344611017 Eh   ::
         ::.................................................::
         :: total energy             -204.881625298021 Eh   ::
         :: zero point energy           1.121481426867 Eh   ::
         :: G(RRHO) w/o ZPVE           -0.097200739863 Eh   ::
         :: G(RRHO) contrib.            1.024280687004 Eh   ::
         :::::::::::::::::::::::::::::::::::::::::::::::::::::

           -------------------------------------------------
          | TOTAL ENERGY             -204.881625298021 Eh   |
          | TOTAL ENTHALPY           -203.690482214643 Eh   |
          | TOTAL FREE ENERGY        -203.857344611017 Eh   |
          | GRADIENT NORM               0.000055719666 Eh/α |
          | HOMO-LUMO GAP               0.488985361282 eV   |
           -------------------------------------------------

 * finished run on 2025/09/02 at 21:50:50.814
