   * xtb version 6.7.1 (edcfbbe) compiled by 'albert@albert-system' on 2024-07-22

   ID    Z sym.   atoms
    1    6 C      1-20, 22-44, 46-59, 61-80
    2    7 N      21, 45, 60
    3    1 H      81-141

          program call               : xtb data2507/toluene/PTPC/PTPC.xyz --gfn 2 --gbsa toluene --ohess vtight --parallel 40 --molden --ceasefiles --namespace data2507/toluene/PTPC/PTPC_toluene_S0_preOpt
      * Solvation model:               GBSA
        Solvent                        toluene
        Solvent mass                       9.2140E+01 g/mol
          :  Hamiltonian                  GFN2-xTB          :
 * total energy  :  -204.9297862 Eh     change       -0.5995048E-08 Eh
 * total energy  :  -204.9493854 Eh     change       -0.1959917E-01 Eh
 * total energy  :  -204.9547992 Eh     change       -0.5413817E-02 Eh
 * total energy  :  -204.9567368 Eh     change       -0.1937574E-02 Eh
 * total energy  :  -204.9584434 Eh     change       -0.1706632E-02 Eh
 * total energy  :  -204.9597880 Eh     change       -0.1344628E-02 Eh
 * total energy  :  -204.9610710 Eh     change       -0.1282974E-02 Eh
 * total energy  :  -204.9622823 Eh     change       -0.1211297E-02 Eh
 * total energy  :  -204.9632887 Eh     change       -0.1006383E-02 Eh
 * total energy  :  -204.9640750 Eh     change       -0.7863423E-03 Eh
 * total energy  :  -204.9676954 Eh     change       -0.5839886E-06 Eh
 * total energy  :  -204.9676959 Eh     change       -0.4968553E-06 Eh
 * total energy  :  -204.9676963 Eh     change       -0.4514356E-06 Eh
 * total energy  :  -204.9676968 Eh     change       -0.4542459E-06 Eh
 * total energy  :  -204.9676974 Eh     change       -0.5905826E-06 Eh
 * total energy  :  -204.9676981 Eh     change       -0.6998376E-06 Eh
 * total energy  :  -204.9676988 Eh     change       -0.6847110E-06 Eh
 * total energy  :  -204.9676994 Eh     change       -0.6173302E-06 Eh
 * total energy  :  -204.9676994 Eh     change       -0.4767344E-08 Eh
   *** GEOMETRY OPTIMIZATION CONVERGED AFTER 94 ITERATIONS ***

 final structure:
================
141
 xtb: 6.7.1 (edcfbbe)
C          -12.60849328529707       -4.19104295845211        2.46909232985410
C          -12.74217532312495       -3.67312482889011        1.02907801386873
C          -14.13596957202062       -3.05615932882825        0.87534467803346
C          -12.62990075769505       -4.84536219601657        0.04269373884704
C          -11.62607606380183       -2.67507719839585        0.74951571819240
C          -10.29441271403759       -3.09951463061798        0.86161546531220
C           -9.21856834217153       -2.26656360505149        0.63078661562600
C           -9.47764558588221       -0.95063946030025        0.27875506431621
C          -10.80817249611591       -0.50250526532813        0.13647322164910
C          -11.87167564606772       -1.36372634222064        0.37661373903834
C          -10.73227524332503        0.87201870678050       -0.27647797179063
C          -11.69539382810826        1.83639339625911       -0.54666480640592
C          -11.30736766443153        3.11699074122251       -0.90511232584705
C          -12.30789373402921        4.22404487244528       -1.21043548163582
C          -12.07340224868413        4.74114421412891       -2.63770068442479
C          -13.76069666917054        3.74785637881081       -1.11267716408674
C          -12.11332893446452        5.36901709681235       -0.20488209566794
C           -9.93688825265441        3.40510732175681       -0.97338101500798
C           -8.95846763392156        2.46761304440808       -0.71239619709244
C           -9.35969361197639        1.18424497482428       -0.37388288808609
N           -8.60877140777017        0.07579131482749       -0.03481476462013
C           -7.20863841683984        0.01361866744445        0.00278345248358
C           -6.45751349226837        0.41895455312594       -1.09723126378848
C           -5.07871552059365        0.36848400944361       -1.05206110686712
C           -4.41571561323777       -0.08224949789986        0.08795064100647
C           -2.94669371063076       -0.10851901865023        0.13894865182241
C           -2.26896752919864        0.35183755789147        1.26584731138985
C           -0.88894948691223        0.35699447180244        1.30540979788086
C           -0.14458942684822       -0.12230072693793        0.23068010694293
C            1.32747640484398       -0.08556170771620        0.26588961213646
C            1.95944838308545        1.11436068802510        0.56824540895398
C            3.34183815141969        1.24884020235148        0.55146676360354
C            3.93388017908150        2.57339762146404        0.81157114154259
C            4.85186195885011        3.12949031282161       -0.07575558871802
C            5.38890999164475        4.38060478179213        0.16338058744152
C            5.01824103022719        5.09467067548266        1.29128828604186
C            4.09796462049175        4.55464164007717        2.17420824889932
C            3.55508843912038        3.30540640060632        1.93368352295441
C            4.12582259549133        0.13074823679542        0.23516374925089
C            5.59689456020668        0.18864617375995        0.23695351324071
C            6.32158260417575       -0.31946576583576       -0.83825403849785
C            7.70109119771020       -0.26555087921023       -0.85640040170442
C            8.39758084658898        0.28608295948192        0.21722736049567
C            9.84682681260589        0.40016965698829        0.24966831929155
N           10.46518877915463        1.42078061927349        0.79385839729807
C           11.79343210471166        1.18925171209369        0.62122277994584
C           12.88049872281753        2.02611318156660        1.00000388238431
C           12.66447359474133        3.25966982992543        1.62465887992861
C           13.72480756264157        4.06757411655697        1.95222922656637
C           15.02049914315223        3.65071437327531        1.65184843443002
C           15.24512930048074        2.43785443154273        1.04302661881372
C           14.18837776328639        1.57856290496656        0.70255271242923
C           14.39490027586721        0.27739583039851        0.08911375793255
C           15.68207250453470       -0.22831765017577       -0.14505466177037
C           15.89005784475066       -1.47305875380996       -0.69102378482635
C           14.80578757659568       -2.28228592407632       -1.01614899444842
C           13.52865949223574       -1.82310523874381       -0.80676606895443
C           13.29367317825955       -0.54663560290089       -0.27497358069792
C           11.99092363234169       -0.02319447087701       -0.03732976339944
N           10.72742765126393       -0.51556617021802       -0.28141061284373
C           10.35803977997668       -1.71745384038259       -0.92466063276990
C            9.71403330167977       -2.71428800620679       -0.20169242322612
C            9.32407371408135       -3.87901429842880       -0.83945843700359
C            9.57393390687791       -4.05130416976166       -2.19093635371202
C           10.21591884797227       -3.05565498106274       -2.91060539645193
C           10.60669226353779       -1.88628603741356       -2.28387297711787
C            7.67283764952079        0.79446601653315        1.29717025661427
C            6.29587239517151        0.74287458905816        1.30839445665689
C            3.49373993363618       -1.07118319503920       -0.06084091448943
C            2.11070198244045       -1.20405999703939       -0.04882158433871
C            1.51003913955618       -2.52082654262134       -0.32632560803549
C            0.55558197481598       -3.06371065490571        0.53030866564515
C            0.00554670683188       -4.30530316195080        0.27145192984607
C            0.39929405808044       -5.02356562191017       -0.84591634978720
C            1.35454777088759       -4.49646889828234       -1.69898484253127
C            1.90986617393601       -3.25669191228950       -1.43884240230652
C           -0.82094984330859       -0.59112545499420       -0.89283730681306
C           -2.20016458711736       -0.57630930813343       -0.94082490074073
C           -5.17633040739873       -0.49206221447895        1.18140731632509
C           -6.55560862046248       -0.44780916033400        1.14253303253926
H          -12.65863681813857       -3.36205655715533        3.17269527926743
H          -11.66491604899231       -4.70841010375529        2.61928874296108
H          -13.41609612699422       -4.88478364867067        2.69461046945234
H          -14.89154666713594       -3.80945340561127        1.09067188777766
H          -14.27695767957253       -2.23067654914705        1.56961186172773
H          -14.29702078720241       -2.70084422346766       -0.14003007859980
H          -12.70680204329710       -4.48362527801841       -0.98103603551747
H          -11.68132731215738       -5.36458497855347        0.14916120672208
H          -13.43124687360707       -5.56067236418167        0.21744463072446
H          -10.08715691488873       -4.12275053577475        1.13673141805590
H           -8.20748434664062       -2.63735242842057        0.71378834462480
H          -12.87467899619001       -0.98793220477782        0.26074087141875
H          -12.73434642042485        1.56384529543844       -0.46370253190626
H          -12.18412407872161        3.92957202853737       -3.35455416150468
H          -11.07763794235315        5.16116073225786       -2.74997503816048
H          -12.79782926256416        5.51656736921306       -2.87907237000255
H          -13.99395939991602        3.40584102744126       -0.10681288246480
H          -13.95681841178546        2.94341287436162       -1.81819999390605
H          -14.42920111414309        4.57350336590592       -1.34947479969835
H          -12.83424626554694        6.16193335492774       -0.39453917381536
H          -11.11526633174751        5.79301757260373       -0.27479280794807
H          -12.25835335378245        5.00576034175109        0.81089477357096
H           -9.61878067285153        4.40282406782731       -1.23599274535276
H           -7.91324711178297        2.73522245918085       -0.76072095890776
H           -6.96226562509942        0.76520367791669       -1.98716211292196
H           -4.50513991818883        0.69749581976171       -1.90625626502321
H           -2.83101279643050        0.73279744299897        2.10650958194173
H           -0.37744372606128        0.72233655567008        2.18493905018984
H            1.35309001247833        1.98399672926268        0.77955338024826
H            5.13673617086919        2.58026808321773       -0.96146892614928
H            6.10095048640308        4.79983492310455       -0.53295986300322
H            5.44321318476619        6.06987626393627        1.47947932917655
H            3.80308424300181        5.10866005579935        3.05409859859417
H            2.84534153283552        2.88136248778384        2.63017316189309
H            5.79519856030120       -0.73534326872506       -1.68539666166736
H            8.23189710234963       -0.63140270174556       -1.72200262735976
H           11.64510432733042        3.54951378355442        1.83003629139339
H           13.56076657952607        5.02075597224515        2.43335804258225
H           15.85821584622371        4.28677218260904        1.89967773133047
H           16.26427348501437        2.15997983603945        0.82608294046833
H           16.54512483331510        0.36260485905923        0.11565855305917
H           16.89710576500301       -1.82727205124390       -0.85624815322875
H           14.96591253824070       -3.26867444774264       -1.42607191832744
H           12.69156954794064       -2.45978195518502       -1.04376850855221
H            9.52256443566809       -2.56814503601478        0.85125151921137
H            8.82503306044765       -4.65312290090857       -0.27637480662054
H            9.26885421100023       -4.96136930186784       -2.68472976983968
H           10.41046622294216       -3.18598333554532       -3.96457967045310
H           11.10600661373720       -1.10210468720276       -2.83484508257045
H            8.21447314214733        1.22976328885902        2.12292843286103
H            5.75224113768761        1.12882785745250        2.15765185704028
H            4.10024037109606       -1.94104623929904       -0.27047076304337
H            0.25289213887132       -2.51195728496640        1.40829333638742
H           -0.73376845154550       -4.71496483396788        0.94477516472556
H           -0.03511694057181       -5.99160759841585       -1.04945462215293
H            1.66693291120205       -5.05322065840020       -2.57115142161196
H            2.64636388731376       -2.84260298754306       -2.11315753059504
H           -0.25725802304638       -0.95715049095572       -1.73856620496190
H           -2.70861319646301       -0.94843290162156       -1.81859937289698
H           -4.67996152224814       -0.85818239899888        2.06826766903738
H           -7.13641999951184       -0.75698455083091        1.99913271533349

          :  Hamiltonian                  GFN2-xTB          :
         :: gradient norm              0.000057499204 Eh/a0 ::
         :: HOMO-LUMO gap              2.381720695504 eV    ::
         :: SCC energy              -208.797016601337 Eh    ::
         :: -> dispersion             -0.196827094038 Eh    ::
         :: -> Gsolv                  -0.084029828564 Eh    ::
         :: repulsion energy           3.829317203068 Eh    ::

    * Orbital Energies and Occupations

         #    Occupation            Energy/Eh            Energy/eV
      -------------------------------------------------------------
         1        2.0000           -0.6881549             -18.7256
       ...           ...                  ...                  ...
       180        2.0000           -0.4028049             -10.9609
       181        2.0000           -0.4021460             -10.9429
       182        2.0000           -0.3997901             -10.8788
       183        2.0000           -0.3975489             -10.8179
       184        2.0000           -0.3945215             -10.7355
       185        2.0000           -0.3930812             -10.6963
       186        2.0000           -0.3862825             -10.5113
       187        2.0000           -0.3830580             -10.4235
       188        2.0000           -0.3793252             -10.3220
       189        2.0000           -0.3743941             -10.1878
       190        2.0000           -0.3696312             -10.0582
       191        2.0000           -0.3636996              -9.8968
       192        2.0000           -0.3528044              -9.6003 (HOMO)
       193                         -0.2652778              -7.2186 (LUMO)
       194                         -0.2545174              -6.9258
       195                         -0.2510074              -6.8303
       196                         -0.2466513              -6.7117
       197                         -0.2435393              -6.6270
       198                         -0.2404929              -6.5441
       199                         -0.2400580              -6.5323
       200                         -0.2369107              -6.4467
       201                         -0.2278545              -6.2002
       202                         -0.2275698              -6.1925
       203                         -0.2242684              -6.1027
       ...                                ...                  ...
       381                          0.7452490              20.2793
      -------------------------------------------------------------
                  HL-Gap            0.0875266 Eh            2.3817 eV

     #   Z          covCN         q      C6AA      α(0)
     1   6 C        3.761    -0.104    22.535     6.767
     2   6 C        3.902     0.025    20.107     6.374
     3   6 C        3.761    -0.106    22.569     6.772
     4   6 C        3.761    -0.104    22.535     6.767
     5   6 C        2.972    -0.004    28.125     8.699
     6   6 C        2.931    -0.041    29.026     8.836
     7   6 C        2.908    -0.055    29.372     8.887
     8   6 C        3.080     0.044    26.927     8.507
     9   6 C        3.067    -0.022    28.495     8.753
    10   6 C        2.918    -0.046    29.142     8.852
    11   6 C        3.067    -0.022    28.496     8.753
    12   6 C        2.918    -0.046    29.142     8.852
    13   6 C        2.972    -0.004    28.124     8.699
    14   6 C        3.902     0.025    20.107     6.374
    15   6 C        3.761    -0.104    22.536     6.767
    16   6 C        3.761    -0.106    22.569     6.772
    17   6 C        3.761    -0.104    22.534     6.767
    18   6 C        2.931    -0.041    29.025     8.835
    19   6 C        2.908    -0.055    29.373     8.887
    20   6 C        3.081     0.044    26.926     8.507
    21   7 N        2.801    -0.052    22.246     7.005
    22   6 C        2.912     0.063    26.587     8.455
    23   6 C        2.920    -0.044    29.081     8.843
    24   6 C        2.924    -0.034    28.844     8.807
    25   6 C        2.976     0.007    27.857     8.658
    26   6 C        2.977     0.008    27.840     8.655
    27   6 C        2.923    -0.035    28.881     8.813
    28   6 C        2.923    -0.035    28.875     8.812
    29   6 C        2.978     0.012    27.750     8.641
    30   6 C        2.978     0.004    27.921     8.668
    31   6 C        2.931    -0.040    29.000     8.832
    32   6 C        2.978     0.004    27.923     8.668
    33   6 C        2.978     0.012    27.737     8.639
    34   6 C        2.924    -0.032    28.796     8.800
    35   6 C        2.919    -0.030    28.742     8.792
    36   6 C        2.920    -0.032    28.791     8.799
    37   6 C        2.918    -0.031    28.767     8.795
    38   6 C        2.925    -0.035    28.873     8.812
    39   6 C        2.977     0.003    27.947     8.672
    40   6 C        2.977     0.016    27.655     8.626
    41   6 C        2.924    -0.035    28.866     8.811
    42   6 C        2.920    -0.037    28.917     8.818
    43   6 C        2.974    -0.004    28.115     8.698
    44   6 C        3.190     0.137    24.572     8.086
    45   7 N        1.895    -0.320    29.139     8.003
    46   6 C        3.204     0.060    26.085     8.319
    47   6 C        2.985    -0.003    28.099     8.695
    48   6 C        2.921    -0.033    28.833     8.806
    49   6 C        2.917    -0.032    28.796     8.800
    50   6 C        2.917    -0.034    28.857     8.809
    51   6 C        2.921    -0.037    28.911     8.817
    52   6 C        2.979    -0.005    28.143     8.702
    53   6 C        2.979    -0.002    28.065     8.690
    54   6 C        2.922    -0.035    28.876     8.812
    55   6 C        2.916    -0.034    28.853     8.808
    56   6 C        2.917    -0.033    28.813     8.802
    57   6 C        2.919    -0.042    29.032     8.836
    58   6 C        2.978    -0.005    28.149     8.703
    59   6 C        3.073     0.022    27.442     8.589
    60   7 N        2.840    -0.055    22.308     7.015
    61   6 C        2.912     0.067    26.498     8.441
    62   6 C        2.921    -0.038    28.937     8.821
    63   6 C        2.920    -0.025    28.622     8.773
    64   6 C        2.919    -0.028    28.712     8.787
    65   6 C        2.920    -0.026    28.656     8.778
    66   6 C        2.921    -0.037    28.918     8.819
    67   6 C        2.927    -0.029    28.728     8.790
    68   6 C        2.922    -0.030    28.754     8.793
    69   6 C        2.930    -0.041    29.008     8.833
    70   6 C        2.977     0.004    27.939     8.670
    71   6 C        2.977     0.013    27.726     8.637
    72   6 C        2.924    -0.032    28.796     8.800
    73   6 C        2.919    -0.030    28.757     8.794
    74   6 C        2.920    -0.032    28.804     8.801
    75   6 C        2.918    -0.031    28.772     8.796
    76   6 C        2.925    -0.035    28.872     8.812
    77   6 C        2.923    -0.032    28.803     8.801
    78   6 C        2.923    -0.035    28.866     8.811
    79   6 C        2.924    -0.034    28.843     8.807
    80   6 C        2.920    -0.044    29.084     8.844
    81   1 H        0.925     0.032     2.564     2.504
    82   1 H        0.925     0.035     2.514     2.479
    83   1 H        0.925     0.037     2.491     2.468
    84   1 H        0.925     0.036     2.506     2.475
    85   1 H        0.925     0.035     2.517     2.481
    86   1 H        0.925     0.035     2.518     2.481
    87   1 H        0.925     0.031     2.565     2.505
    88   1 H        0.925     0.035     2.516     2.481
    89   1 H        0.925     0.037     2.489     2.467
    90   1 H        0.926     0.028     2.617     2.530
    91   1 H        0.926     0.024     2.674     2.557
    92   1 H        0.926     0.036     2.507     2.476
    93   1 H        0.926     0.036     2.506     2.476
    94   1 H        0.925     0.032     2.563     2.504
    95   1 H        0.925     0.035     2.514     2.480
    96   1 H        0.925     0.037     2.492     2.468
    97   1 H        0.925     0.035     2.517     2.481
    98   1 H        0.925     0.035     2.517     2.481
    99   1 H        0.925     0.036     2.505     2.475
   100   1 H        0.925     0.037     2.488     2.467
   101   1 H        0.925     0.035     2.517     2.481
   102   1 H        0.925     0.031     2.565     2.505
   103   1 H        0.926     0.028     2.617     2.530
   104   1 H        0.926     0.024     2.673     2.557
   105   1 H        0.926     0.039     2.455     2.450
   106   1 H        0.926     0.039     2.463     2.454
   107   1 H        0.926     0.034     2.534     2.489
   108   1 H        0.926     0.033     2.550     2.497
   109   1 H        0.926     0.036     2.501     2.473
   110   1 H        0.926     0.026     2.638     2.540
   111   1 H        0.926     0.029     2.596     2.519
   112   1 H        0.926     0.031     2.574     2.509
   113   1 H        0.926     0.032     2.560     2.502
   114   1 H        0.926     0.032     2.555     2.500
   115   1 H        0.926     0.038     2.472     2.459
   116   1 H        0.926     0.029     2.598     2.520
   117   1 H        0.926     0.043     2.410     2.427
   118   1 H        0.926     0.032     2.555     2.499
   119   1 H        0.926     0.032     2.561     2.502
   120   1 H        0.926     0.034     2.523     2.484
   121   1 H        0.926     0.037     2.492     2.469
   122   1 H        0.926     0.032     2.551     2.498
   123   1 H        0.926     0.032     2.563     2.503
   124   1 H        0.926     0.029     2.598     2.520
   125   1 H        0.926     0.038     2.478     2.462
   126   1 H        0.926     0.047     2.353     2.399
   127   1 H        0.926     0.048     2.346     2.395
   128   1 H        0.926     0.048     2.351     2.398
   129   1 H        0.926     0.041     2.433     2.439
   130   1 H        0.926     0.043     2.405     2.425
   131   1 H        0.926     0.038     2.482     2.463
   132   1 H        0.926     0.036     2.499     2.472
   133   1 H        0.926     0.029     2.606     2.524
   134   1 H        0.926     0.030     2.592     2.518
   135   1 H        0.926     0.030     2.585     2.514
   136   1 H        0.926     0.031     2.572     2.508
   137   1 H        0.926     0.031     2.570     2.507
   138   1 H        0.926     0.029     2.597     2.520
   139   1 H        0.926     0.032     2.551     2.498
   140   1 H        0.926     0.039     2.456     2.451
   141   1 H        0.926     0.040     2.454     2.450

molecular dipole:
                 x           y           z       tot (Debye)
 q only:       -0.445      -1.174      -0.565
   full:       -0.146      -1.441      -0.734       4.127

 projected vibrational frequencies (cm⁻¹)
eigval :       -0.00     0.00     0.00     0.00     0.00     0.00
eigval :       -1.40     5.61     8.81     9.00    11.64    18.23
eigval :       21.09    23.90    30.76    32.46    34.20    35.00
eigval :       39.42    41.52    45.36    47.43    50.08    54.53
eigval :       58.73    62.07    63.87    65.90    71.73    77.79
eigval :       85.79    88.94    90.62    93.73    95.05   101.04
eigval :      113.49   123.45   127.17   137.58   146.70   163.14
eigval :      163.91   169.42   178.44   182.77   193.60   195.73
eigval :      202.84   205.19   216.85   219.82   222.63   226.87
eigval :      229.11   234.88   241.53   247.62   252.94   255.96
eigval :      258.53   265.73   277.21   284.48   291.41   305.78
eigval :      319.27   319.61   323.65   326.03   330.96   339.18
eigval :      342.06   349.90   358.98   359.49   368.81   370.44
eigval :      372.71   374.61   374.97   378.40   378.96   382.16
eigval :      392.73   395.78   398.24   408.32   411.36   414.17
eigval :      434.38   435.83   438.28   442.13   443.03   443.63
eigval :      458.93   465.33   468.97   473.84   474.44   481.90
eigval :      490.06   503.26   510.87   513.10   520.15   523.74
eigval :      534.82   536.94   541.31   548.59   574.39   578.02
eigval :      582.79   584.50   584.91   586.52   587.42   589.06
eigval :      596.83   601.25   608.98   610.11   626.61   629.78
eigval :      631.33   639.69   642.64   647.58   652.63   666.36
eigval :      667.82   673.41   675.37   677.18   682.34   684.06
eigval :      687.20   692.41   700.79   702.33   705.87   706.74
eigval :      716.09   719.33   723.16   731.18   734.66   746.36
eigval :      758.93   762.61   765.42   765.68   778.54   782.64
eigval :      797.10   803.04   818.31   820.71   820.99   829.82
eigval :      831.29   863.42   865.42   869.94   871.84   872.17
eigval :      872.91   872.92   873.81   874.40   874.89   875.50
eigval :      876.74   882.73   894.21   901.08   902.26   903.82
eigval :      906.70   907.42   910.75   912.84   913.89   918.61
eigval :      919.42   920.73   922.66   924.04   925.72   926.52
eigval :      927.28   928.37   929.12   929.57   929.77   932.02
eigval :      932.05   932.85   938.79   939.61   947.85   959.20
eigval :      959.34   959.48   961.64   962.24   962.95   963.92
eigval :      973.99   982.80   994.95  1011.25  1016.19  1025.59
eigval :     1030.98  1034.42  1035.64  1036.66  1039.10  1041.44
eigval :     1067.77  1074.30  1077.64  1080.69  1082.96  1085.05
eigval :     1088.06  1103.29  1106.93  1114.13  1115.18  1119.98
eigval :     1120.40  1127.61  1132.97  1133.01  1139.90  1140.25
eigval :     1140.89  1151.36  1172.79  1174.99  1177.30  1179.61
eigval :     1180.72  1181.50  1183.87  1186.64  1187.63  1196.00
eigval :     1197.23  1198.83  1200.47  1208.07  1210.76  1225.64
eigval :     1225.79  1229.03  1230.36  1237.00  1239.88  1241.78
eigval :     1243.36  1247.32  1252.64  1255.53  1258.19  1260.60
eigval :     1264.99  1270.38  1271.40  1273.57  1280.73  1281.58
eigval :     1282.62  1283.56  1293.06  1301.82  1305.30  1306.38
eigval :     1309.47  1310.57  1312.21  1313.71  1315.48  1316.87
eigval :     1318.88  1329.66  1336.81  1344.75  1345.57  1351.07
eigval :     1358.07  1371.29  1377.98  1384.11  1392.49  1399.94
eigval :     1401.76  1403.03  1403.61  1403.98  1406.27  1409.22
eigval :     1415.34  1417.01  1426.82  1427.67  1428.24  1428.87
eigval :     1430.76  1431.58  1435.07  1440.50  1453.28  1470.13
eigval :     1477.44  1480.63  1481.35  1482.42  1484.27  1488.94
eigval :     1490.59  1492.04  1493.36  1498.96  1499.84  1500.19
eigval :     1503.04  1503.91  1510.50  1511.81  1512.19  1512.44
eigval :     1514.79  1518.44  1519.36  1534.35  1540.33  1554.07
eigval :     1557.14  1563.09  1563.91  1567.85  1570.20  1577.12
eigval :     1580.60  1580.81  1581.38  1582.47  1591.04  1592.41
eigval :     1593.11  1596.47  1598.81  1599.71  1602.45  1603.13
eigval :     1603.38  1616.53  3017.44  3017.65  3018.22  3018.46
eigval :     3022.44  3022.66  3023.46  3023.67  3026.14  3026.47
eigval :     3029.97  3030.08  3034.81  3035.18  3042.84  3043.45
eigval :     3046.33  3046.71  3064.64  3065.19  3067.06  3068.46
eigval :     3068.63  3069.07  3072.06  3072.51  3072.52  3072.82
eigval :     3073.38  3073.90  3074.64  3075.18  3076.11  3076.64
eigval :     3078.37  3078.91  3079.31  3079.72  3080.29  3081.29
eigval :     3082.24  3083.05  3085.66  3086.52  3086.53  3087.44
eigval :     3087.93  3088.30  3088.89  3089.16  3091.25  3092.19
eigval :     3095.19  3096.17  3097.35  3100.09  3101.89  3108.90
eigval :     3112.45  3115.43  3117.53

   temp. (K)  partition function   enthalpy   heat capacity  entropy
                                   cal/mol     cal/K/mol   cal/K/mol   J/K/mol
 298.15  VIB  0.703E+35            41178.341    252.657    262.148
         ROT  0.663E+09              888.752      2.981     43.346
         INT  0.466E+44            42067.094    255.638    305.494
         TR   0.319E+29             1481.254      4.968     46.644
         TOT                       43548.3475   260.6057   352.1375  1473.3433

       T/K    H(0)-H(T)+PV         H(T)/Eh          T*S/Eh         G(T)/Eh
   ------------------------------------------------------------------------
    298.15    0.693987E-01    0.119487E+01    0.167312E+00    0.102756E+01
   ------------------------------------------------------------------------

         :::::::::::::::::::::::::::::::::::::::::::::::::::::
         ::                  THERMODYNAMIC                  ::
         :::::::::::::::::::::::::::::::::::::::::::::::::::::
         :: total free energy        -203.940140595515 Eh   ::
         ::.................................................::
         :: total energy             -204.967699404885 Eh   ::
         :: zero point energy           1.125471986421 Eh   ::
         :: G(RRHO) w/o ZPVE           -0.097913177052 Eh   ::
         :: G(RRHO) contrib.            1.027558809370 Eh   ::
         :::::::::::::::::::::::::::::::::::::::::::::::::::::

           -------------------------------------------------
          | TOTAL ENERGY             -204.967699404885 Eh   |
          | TOTAL ENTHALPY           -203.772828709234 Eh   |
          | TOTAL FREE ENERGY        -203.940140595515 Eh   |
          | GRADIENT NORM               0.000057495573 Eh/α |
          | HOMO-LUMO GAP               2.381720745613 eV   |
           -------------------------------------------------

 * finished run on 2025/09/02 at 21:25:05.315
