   * xtb version 6.7.1 (edcfbbe) compiled by 'albert@albert-system' on 2024-07-22

   ID    Z sym.   atoms
    1    8 O      1, 21, 25
    2   15 P      2, 24
    3    6 C      3-20, 22, 23, 26-48, 50-79
    4    7 N      49
    5    1 H      80-128

          program call               : xtb data2507/toluene/9ArFDBFxPO/9ArFDBFxPO_toluene_T1_crest.xyz --gfn 2 --uhf 2 --gbsa toluene --ohess vtight --parallel 40 --molden --ceasefiles --namespace data2507/toluene/9ArFDBFxPO/9ArFDBFxPO_toluene_T1_finalOpt
      * Solvation model:               GBSA
        Solvent                        toluene
        Solvent mass                       9.2140E+01 g/mol
          :  Hamiltonian                  GFN2-xTB          :
 * total energy  :  -201.6044756 Eh     change       -0.4460270E-07 Eh
 * total energy  :  -201.6047442 Eh     change       -0.2686240E-03 Eh
 * total energy  :  -201.6048958 Eh     change       -0.1515707E-03 Eh
 * total energy  :  -201.6049413 Eh     change       -0.4552368E-04 Eh
 * total energy  :  -201.6049832 Eh     change       -0.4190656E-04 Eh
 * total energy  :  -201.6050236 Eh     change       -0.4046612E-04 Eh
 * total energy  :  -201.6050390 Eh     change       -0.1537970E-04 Eh
 * total energy  :  -201.6050529 Eh     change       -0.1389513E-04 Eh
 * total energy  :  -201.6050633 Eh     change       -0.1035811E-04 Eh
 * total energy  :  -201.6050808 Eh     change       -0.1754795E-04 Eh
 * total energy  :  -201.6052946 Eh     change       -0.1360224E-05 Eh
 * total energy  :  -201.6052961 Eh     change       -0.1497036E-05 Eh
 * total energy  :  -201.6052976 Eh     change       -0.1515588E-05 Eh
 * total energy  :  -201.6052989 Eh     change       -0.1333174E-05 Eh
 * total energy  :  -201.6053000 Eh     change       -0.1062049E-05 Eh
 * total energy  :  -201.6053009 Eh     change       -0.9235922E-06 Eh
 * total energy  :  -201.6053019 Eh     change       -0.9566775E-06 Eh
 * total energy  :  -201.6053030 Eh     change       -0.1156192E-05 Eh
 * total energy  :  -201.6053030 Eh     change       -0.3099530E-08 Eh
   *** GEOMETRY OPTIMIZATION CONVERGED AFTER 122 ITERATIONS ***

 final structure:
================
128
 xtb: 6.7.1 (edcfbbe)
O            7.94580134139219       -4.09721947087212       -0.83263754435379
P            7.23550745021939       -2.80269096065710       -0.78844658886496
C            7.85007869102594       -1.63246042078578       -2.03635529213960
C            8.95117250297070       -2.01528132688774       -2.79260807860218
C            9.43555548684035       -1.17966525135062       -3.78261108798109
C            8.81119424159191        0.03381544167073       -4.02688739858922
C            7.70496975123128        0.41128931600337       -3.28032422163973
C            7.22328436919800       -0.41695377152408       -2.28405223696807
C            7.42879674800899       -2.01486066205723        0.84215864578780
C            6.50177374560666       -2.21204743809445        1.85385089687670
C            6.75142091878007       -1.71098878859036        3.11963437635413
C            7.92647208625071       -1.02289573597460        3.37451438136473
C            8.86313846417181       -0.84418852830321        2.36870522128216
C            8.61666900269496       -1.34627236220528        1.10329746549767
C            5.46420963483113       -2.97763380833442       -1.12740931606987
C            5.08311590136604       -4.14478749274232       -1.79324989966346
C            3.77829958902166       -4.37963376567066       -2.18769887461733
C            2.78389331521097       -3.44048181797520       -1.93830159355498
C            3.13168433926093       -2.27492005087854       -1.27546262830907
C            4.46287579173794       -2.04267950275888       -0.87051546637755
O            4.58695628131889       -0.85257545133030       -0.21947228802122
C            3.34700631128048       -0.29259507030588       -0.19115370476710
C            2.94334973979894        0.93340993634212        0.37789580134349
P            3.96819535499135        2.08228919693902        1.33780546614276
O            3.24815986852705        3.34342349390005        1.61376947474867
C            5.52365964278596        2.37218450962489        0.44343325640564
C            6.63058898797954        1.54453746633740        0.56762235158956
C            7.79969903055579        1.86667126767940       -0.09845879304796
C            7.86125043943600        2.99885764537763       -0.89516395305995
C            6.75063232756560        3.81756876625556       -1.03033737646882
C            5.58292791071425        3.50533661002776       -0.35852971667838
C            4.39839939847154        1.23946644176911        2.89719719706377
C            5.42053581523463        1.77773496871976        3.66738141121207
C            5.66142565863251        1.28564337040194        4.93697480538349
C            4.87538247216172        0.26148903587328        5.44184098288557
C            3.85090040356696       -0.27138724799308        4.67622417705250
C            3.60763319933936        0.21982614554493        3.40455383013540
C            1.62719995171743        1.29459814506646        0.24492046967723
C            0.62597272840294        0.50252582751391       -0.40535942754642
C           -0.72138327191409        0.91747972952300       -0.47698257949373
C           -1.75516591844954        0.07398470146799       -1.00791864274433
C           -3.05952364496566        0.46431841116170       -1.04517847292399
C           -3.46832293569354        1.72289926058735       -0.55886997817060
C           -4.90622454102104        2.15538223827645       -0.65845299699362
C           -5.87890072870381        1.02481673715876       -0.41630284388948
C           -7.07423365762835        0.93855940930462       -1.12026059143265
C           -7.97440107241442       -0.07715994012873       -0.86317806784825
C           -7.69721207206960       -1.02485291000798        0.11902774017118
N           -8.59913976997472       -2.06576712043592        0.37474439277462
C           -8.28001582525294       -3.40717132564310        0.43744137453230
C           -7.06008952567954       -4.03636382473280        0.22458081758044
C           -7.02058851866582       -5.41547117819057        0.31904880262951
C           -8.16374051316826       -6.15660495575020        0.60814512085387
C           -9.38665471787857       -5.53678692989858        0.79811437901464
C           -9.45068781363142       -4.15444000054812        0.70850276837591
C          -10.52490202911834       -3.20227803286218        0.81940917169523
C          -11.88055869457284       -3.31932268747518        1.08646023581072
C          -12.64583927177823       -2.16732442661425        1.14190832426565
C          -12.07069370507799       -0.91345315004825        0.95018188657015
C          -10.72115499514297       -0.77173079458044        0.68379362496952
C           -9.95313043259337       -1.92620721813108        0.60173671666012
C           -6.51098738090166       -0.93111132367780        0.84401589465579
C           -5.61565478452770        0.08357343376913        0.57543293576481
C           -5.25447212578875        3.30317904109373        0.27454427833639
C           -5.32430967863242        3.29932326493198        1.65070777673601
C           -5.67381432800073        4.47555812500806        2.30240145907433
C           -5.95052196861537        5.63033395792944        1.58544514948319
C           -5.88613443066965        5.63839204637753        0.20142340257874
C           -5.53800908908212        4.46772766706900       -0.45466964374287
C           -5.39207343697672        4.17648940883517       -1.86996738411157
C           -5.54443902862114        4.98591241439985       -2.98480433940559
C           -5.34898943399889        4.43355688606261       -4.23984335968134
C           -5.00637796404049        3.09522415647122       -4.38154107557323
C           -4.84474037206091        2.28040606268150       -3.27008604471701
C           -5.04739390471235        2.82288138241967       -2.01746688081410
C           -2.46707007366589        2.59084724058977       -0.08204055287839
C           -1.15875757878446        2.21171349844770       -0.03298189106391
C            1.07309713575352       -0.75402004918890       -0.95302425907120
C            2.38840500874291       -1.11624617665381       -0.84124791136872
H            9.41283585884634       -2.97129287673580       -2.58634860405763
H           10.29614162299712       -1.47524326103967       -4.36485097842449
H            9.18490454241234        0.68536704472099       -4.80296714699214
H            7.21670704948933        1.35546652227316       -3.47185184616486
H            6.37053413222459       -0.12277438564226       -1.69179224375558
H            5.59265808860583       -2.76099174892504        1.64740235430085
H            6.02944170447766       -1.85801921025207        3.90843594633294
H            8.11507224371746       -0.63256265007626        4.36306724104873
H            9.78459461247577       -0.31858140249019        2.57261071626495
H            9.33957785047986       -1.23268494708910        0.30514953091606
H            5.85520703908626       -4.87682662965948       -1.98454962888568
H            3.53279923539732       -5.29943389276682       -2.69635159313185
H            1.76499894614154       -3.61274791852769       -2.24688409088070
H            6.57381674902764        0.66127742905129        1.18679941106219
H            8.66480742220562        1.22985395482541        0.00518939541881
H            8.77827559299685        3.24330879213145       -1.41060272380654
H            6.79700653402922        4.70014641727455       -1.65167307839504
H            4.70862191939473        4.13852593313945       -0.42700778218271
H            6.01418784852136        2.58738979365322        3.26269324412235
H            6.45501603038588        1.70697061237190        5.53646424885170
H            5.05899179965214       -0.11904976775704        6.43602418508657
H            3.23504188164800       -1.06648495766270        5.07164471272022
H            2.80211548482484       -0.18147587681008        2.80375435225694
H            1.35479936457523        2.23538848649618        0.69718281857562
H           -1.50367190915693       -0.90553716402095       -1.37887599167748
H           -3.80353160327073       -0.20884558770547       -1.44683189789522
H           -7.29673357737126        1.66464418407193       -1.88770952650184
H           -8.88441649998381       -0.15446895581730       -1.43872295290608
H           -6.17264078714318       -3.47213122806802       -0.01729930776736
H           -6.08355001081845       -5.92868028342455        0.16127840763775
H           -8.09333544420540       -7.23206063308003        0.67539599658704
H          -10.27383963209014       -6.11526957503214        1.00611121968616
H          -12.32609239372546       -4.28844810198092        1.25160808201979
H          -13.70386655550898       -2.23750771970202        1.34604680227565
H          -12.69100156129110       -0.03188667790372        1.01528250339893
H          -10.28050663376069        0.20500543027393        0.55577337506016
H           -6.30616425737920       -1.64438781647601        1.62820018051078
H           -4.69656712779868        0.14730910844318        1.13910770550376
H           -5.10859796914684        2.40554323961971        2.21668626567245
H           -5.73022416889460        4.48981463328343        3.38109976313214
H           -6.21863067258194        6.53401350697364        2.11361860103686
H           -6.10165350948839        6.53898895946152       -0.35407354458021
H           -5.80772321933328        6.02763595292363       -2.87691311408481
H           -5.46181803072633        5.05041527391157       -5.11967257367651
H           -4.86100232488839        2.68332407951127       -5.36955205015289
H           -4.57126260346582        1.24275050877767       -3.38890160634436
H           -2.74668496243675        3.57734378929965        0.25930565166814
H           -0.43496732866237        2.91757738741730        0.34017385032219
H            0.39255780402080       -1.40908048714299       -1.46711261384859

          :  Hamiltonian                  GFN2-xTB          :
         :: gradient norm              0.000049358768 Eh/a0 ::
         :: HOMO-LUMO gap              0.162573671288 eV    ::
         :: SCC energy              -205.264274043420 Eh    ::
         :: -> dispersion             -0.206351408367 Eh    ::
         :: -> Gsolv                  -0.088190636416 Eh    ::
         :: repulsion energy           3.658971021423 Eh    ::

    * Orbital Energies and Occupations

         #    Occupation            Energy/Eh            Energy/eV
      -------------------------------------------------------------
         1        2.0000           -0.7471517             -20.3310
       ...           ...                  ...                  ...
       176        2.0000           -0.4087422             -11.1224
       177        2.0000           -0.4065171             -11.0619
       178        2.0000           -0.4052396             -11.0271
       179        2.0000           -0.4045775             -11.0091
       180        2.0000           -0.4027067             -10.9582
       181        2.0000           -0.4008035             -10.9064
       182        2.0000           -0.3988437             -10.8531
       183        2.0000           -0.3960285             -10.7765
       184        2.0000           -0.3891107             -10.5882
       185        2.0000           -0.3838413             -10.4449
       186        1.8613           -0.3726603             -10.1406
       187        1.1387           -0.3691909             -10.0462
       188        0.9587           -0.2702773              -7.3546 (HOMO)
       189        0.0413           -0.2643029              -7.1920 (LUMO)
       190        0.0000           -0.2565976              -6.9824
       191        0.0000           -0.2550445              -6.9401
       192        0.0000           -0.2525067              -6.8711
       193                         -0.2473686              -6.7312
       194                         -0.2447627              -6.6603
       195                         -0.2432752              -6.6199
       196                         -0.2429253              -6.6103
       197                         -0.2380855              -6.4786
       198                         -0.2374251              -6.4607
       199                         -0.2363722              -6.4320
       ...                                ...                  ...
       375                          1.1913081              32.4171
      -------------------------------------------------------------
                  HL-Gap            0.0059744 Eh            0.1626 eV

     #   Z          covCN         q      C6AA      α(0)
     1   8 O        0.808    -0.400    21.710     6.246
     2  15 P        4.073     0.043   158.314    22.602
     3   6 C        2.920     0.012    27.744     8.638
     4   6 C        3.020    -0.020    28.492     8.756
     5   6 C        2.918    -0.028    28.689     8.783
     6   6 C        2.920    -0.025    28.621     8.773
     7   6 C        2.919    -0.026    28.656     8.778
     8   6 C        2.980    -0.024    28.604     8.773
     9   6 C        2.921     0.020    27.571     8.611
    10   6 C        2.986    -0.016    28.412     8.744
    11   6 C        2.920    -0.027    28.668     8.780
    12   6 C        2.921    -0.025    28.620     8.773
    13   6 C        2.919    -0.025    28.636     8.775
    14   6 C        3.017    -0.019    28.454     8.750
    15   6 C        2.907    -0.018    28.459     8.747
    16   6 C        3.044    -0.027    28.634     8.777
    17   6 C        2.917    -0.041    29.014     8.833
    18   6 C        2.913    -0.036    28.893     8.814
    19   6 C        3.050    -0.022    28.498     8.755
    20   6 C        3.117     0.126    25.079     8.203
    21   8 O        1.714    -0.220    17.649     5.672
    22   6 C        3.111     0.109    25.458     8.266
    23   6 C        2.901    -0.015    28.381     8.735
    24  15 P        4.096     0.046   158.208    22.595
    25   8 O        0.808    -0.404    21.790     6.257
    26   6 C        2.921     0.015    27.672     8.626
    27   6 C        2.975    -0.020    28.497     8.756
    28   6 C        2.920    -0.024    28.613     8.772
    29   6 C        2.920    -0.023    28.585     8.767
    30   6 C        2.919    -0.027    28.679     8.782
    31   6 C        3.030    -0.020    28.466     8.752
    32   6 C        2.921     0.016    27.649     8.623
    33   6 C        3.014    -0.018    28.447     8.749
    34   6 C        2.919    -0.025    28.631     8.775
    35   6 C        2.920    -0.024    28.607     8.771
    36   6 C        2.920    -0.026    28.652     8.778
    37   6 C        2.986    -0.021    28.516     8.760
    38   6 C        3.068    -0.031    28.699     8.784
    39   6 C        2.963    -0.004    28.121     8.698
    40   6 C        2.965     0.008    27.829     8.653
    41   6 C        2.915    -0.039    28.981     8.828
    42   6 C        2.912    -0.034    28.838     8.806
    43   6 C        2.982     0.011    27.768     8.644
    44   6 C        3.946     0.013    20.298     6.402
    45   6 C        2.978     0.021    27.535     8.607
    46   6 C        2.922    -0.031    28.783     8.798
    47   6 C        2.921    -0.040    28.987     8.829
    48   6 C        2.913     0.061    26.641     8.464
    49   7 N        2.802    -0.020    21.630     6.907
    50   6 C        3.073     0.047    26.867     8.499
    51   6 C        2.909    -0.045    29.111     8.847
    52   6 C        2.923    -0.031    28.781     8.798
    53   6 C        2.920    -0.035    28.868     8.811
    54   6 C        2.912    -0.030    28.747     8.792
    55   6 C        3.065    -0.013    28.262     8.718
    56   6 C        3.066    -0.013    28.263     8.718
    57   6 C        2.912    -0.030    28.747     8.792
    58   6 C        2.920    -0.035    28.867     8.811
    59   6 C        2.923    -0.031    28.779     8.797
    60   6 C        2.909    -0.045    29.110     8.847
    61   6 C        3.073     0.047    26.867     8.499
    62   6 C        2.920    -0.040    29.002     8.831
    63   6 C        2.923    -0.029    28.728     8.790
    64   6 C        3.055     0.005    27.858     8.656
    65   6 C        2.914    -0.034    28.847     8.807
    66   6 C        2.922    -0.032    28.800     8.801
    67   6 C        2.920    -0.032    28.801     8.801
    68   6 C        2.914    -0.034    28.852     8.808
    69   6 C        3.033     0.002    27.956     8.673
    70   6 C        3.033     0.001    27.966     8.674
    71   6 C        2.914    -0.034    28.840     8.806
    72   6 C        2.920    -0.033    28.811     8.802
    73   6 C        2.922    -0.032    28.808     8.802
    74   6 C        2.913    -0.034    28.837     8.806
    75   6 C        3.060     0.006    27.837     8.652
    76   6 C        2.911    -0.033    28.826     8.804
    77   6 C        2.915    -0.037    28.925     8.819
    78   6 C        2.910    -0.050    29.253     8.869
    79   6 C        3.036    -0.020    28.475     8.752
    80   1 H        0.925     0.050     2.324     2.384
    81   1 H        0.926     0.045     2.382     2.413
    82   1 H        0.926     0.047     2.359     2.402
    83   1 H        0.926     0.040     2.452     2.449
    84   1 H        0.926     0.037     2.487     2.466
    85   1 H        0.925     0.031     2.579     2.511
    86   1 H        0.926     0.041     2.432     2.439
    87   1 H        0.926     0.047     2.359     2.402
    88   1 H        0.926     0.046     2.365     2.405
    89   1 H        0.925     0.037     2.491     2.468
    90   1 H        0.926     0.055     2.263     2.352
    91   1 H        0.926     0.047     2.357     2.401
    92   1 H        0.926     0.049     2.327     2.385
    93   1 H        0.926     0.037     2.484     2.465
    94   1 H        0.926     0.040     2.450     2.448
    95   1 H        0.926     0.047     2.360     2.402
    96   1 H        0.926     0.045     2.380     2.413
    97   1 H        0.925     0.047     2.356     2.401
    98   1 H        0.925     0.037     2.490     2.468
    99   1 H        0.926     0.047     2.362     2.403
   100   1 H        0.926     0.049     2.337     2.391
   101   1 H        0.926     0.044     2.392     2.419
   102   1 H        0.925     0.032     2.559     2.502
   103   1 H        0.926     0.061     2.185     2.311
   104   1 H        0.926     0.037     2.488     2.467
   105   1 H        0.926     0.035     2.510     2.478
   106   1 H        0.926     0.046     2.371     2.408
   107   1 H        0.926     0.050     2.322     2.383
   108   1 H        0.926     0.040     2.444     2.445
   109   1 H        0.926     0.039     2.467     2.456
   110   1 H        0.926     0.037     2.484     2.465
   111   1 H        0.926     0.040     2.449     2.447
   112   1 H        0.926     0.040     2.449     2.447
   113   1 H        0.926     0.038     2.480     2.463
   114   1 H        0.926     0.039     2.462     2.454
   115   1 H        0.926     0.040     2.444     2.445
   116   1 H        0.926     0.050     2.322     2.383
   117   1 H        0.926     0.048     2.350     2.397
   118   1 H        0.926     0.034     2.534     2.489
   119   1 H        0.926     0.034     2.530     2.488
   120   1 H        0.926     0.034     2.536     2.490
   121   1 H        0.926     0.035     2.519     2.482
   122   1 H        0.926     0.035     2.513     2.479
   123   1 H        0.926     0.034     2.533     2.489
   124   1 H        0.926     0.034     2.526     2.486
   125   1 H        0.926     0.035     2.521     2.483
   126   1 H        0.926     0.030     2.586     2.515
   127   1 H        0.926     0.031     2.568     2.506
   128   1 H        0.926     0.047     2.355     2.400

molecular dipole:
                 x           y           z       tot (Debye)
 q only:       -5.576       0.169      -0.115
   full:       -5.436       0.247      -0.160      13.836

 projected vibrational frequencies (cm⁻¹)
eigval :       -0.00    -0.00     0.00     0.00     0.00     0.00
eigval :        4.39     5.68    10.20    16.74    20.09    22.27
eigval :       23.55    24.34    29.02    31.35    32.84    35.69
eigval :       38.90    40.92    44.69    48.85    51.68    54.00
eigval :       57.26    63.39    66.61    74.87    77.43    82.96
eigval :       86.49    90.19    93.87   101.24   103.53   107.98
eigval :      127.39   130.85   135.14   144.37   149.47   151.02
eigval :      156.51   164.52   173.45   175.81   185.76   194.61
eigval :      201.11   204.10   221.68   227.00   236.07   237.69
eigval :      240.46   243.75   254.35   256.82   261.25   271.45
eigval :      272.76   273.58   278.75   280.07   285.00   315.56
eigval :      320.82   326.67   333.73   350.90   358.43   362.69
eigval :      364.17   366.96   368.80   370.36   383.03   387.30
eigval :      389.83   393.65   401.55   408.95   411.27   413.65
eigval :      418.71   423.19   430.32   435.03   440.07   448.06
eigval :      455.61   462.06   470.37   476.48   482.19   493.26
eigval :      500.37   505.72   506.73   512.98   515.39   522.13
eigval :      535.38   537.85   540.33   542.28   561.58   567.16
eigval :      579.21   585.04   585.37   585.54   585.81   586.43
eigval :      588.18   593.21   593.97   598.55   615.06   621.53
eigval :      625.53   638.68   655.01   657.26   657.55   658.34
eigval :      660.47   670.68   673.02   676.54   680.80   688.05
eigval :      689.03   691.27   709.66   711.94   717.00   718.48
eigval :      722.34   727.30   737.82   740.17   742.39   744.26
eigval :      750.93   752.33   755.32   762.84   768.79   772.48
eigval :      776.46   778.48   780.96   784.50   788.55   815.38
eigval :      818.46   820.98   837.74   865.90   867.51   870.92
eigval :      875.49   876.85   878.05   879.47   880.06   880.27
eigval :      881.84   888.34   889.66   895.38   897.70   898.02
eigval :      900.26   902.09   903.32   903.36   903.85   905.35
eigval :      906.55   907.32   909.48   910.48   911.43   918.97
eigval :      921.32   921.84   924.85   925.64   925.99   926.06
eigval :      928.78   929.11   930.38   932.17   933.77   935.57
eigval :      935.63   951.27   971.35   971.49   975.02   975.85
eigval :      977.88   996.96  1000.53  1010.42  1020.30  1029.27
eigval :     1063.22  1067.12  1070.60  1072.94  1075.86  1076.51
eigval :     1077.03  1077.54  1078.77  1094.51  1101.94  1110.88
eigval :     1111.98  1112.94  1113.42  1113.94  1116.06  1121.58
eigval :     1126.71  1127.88  1137.06  1140.04  1142.91  1143.66
eigval :     1157.79  1167.99  1169.81  1171.36  1174.01  1175.20
eigval :     1176.98  1177.32  1177.60  1178.27  1180.03  1180.48
eigval :     1186.44  1187.93  1188.10  1189.50  1190.26  1192.20
eigval :     1198.89  1203.28  1207.19  1210.59  1216.16  1223.19
eigval :     1229.16  1229.85  1234.88  1239.91  1247.60  1249.17
eigval :     1263.86  1264.67  1269.06  1270.33  1270.55  1272.46
eigval :     1282.72  1284.13  1286.41  1290.46  1298.78  1314.39
eigval :     1318.06  1319.35  1320.96  1322.29  1322.65  1323.98
eigval :     1340.64  1340.77  1353.65  1358.90  1359.62  1363.38
eigval :     1370.31  1374.66  1382.84  1404.22  1411.39  1412.63
eigval :     1416.74  1420.72  1421.66  1423.03  1424.16  1424.47
eigval :     1424.85  1442.56  1449.28  1451.32  1453.89  1454.76
eigval :     1454.99  1457.18  1461.45  1464.18  1471.95  1480.33
eigval :     1480.58  1491.20  1528.09  1545.97  1557.31  1562.41
eigval :     1566.19  1571.38  1573.49  1576.46  1577.87  1579.66
eigval :     1579.90  1580.39  1582.24  1583.60  1584.69  1585.66
eigval :     1586.02  1586.41  1590.77  1595.49  1603.82  3046.52
eigval :     3051.96  3055.82  3057.10  3065.48  3067.18  3070.21
eigval :     3072.16  3072.59  3073.21  3074.22  3075.00  3075.60
eigval :     3077.47  3078.00  3078.93  3078.93  3078.95  3079.28
eigval :     3079.51  3080.78  3082.05  3084.09  3084.99  3085.01
eigval :     3085.19  3086.02  3086.91  3087.76  3088.57  3089.26
eigval :     3090.27  3090.49  3091.59  3091.67  3092.67  3093.01
eigval :     3094.54  3094.93  3097.48  3097.50  3098.46  3098.96
eigval :     3099.49  3101.86  3102.27  3108.97  3110.85  3129.56

   temp. (K)  partition function   enthalpy   heat capacity  entropy
                                   cal/mol     cal/K/mol   cal/K/mol   J/K/mol
 298.15  VIB  0.696E+33            39620.840    242.275    250.793
         ROT  0.438E+09              888.752      2.981     42.521
         INT  0.305E+42            40509.592    245.256    293.314
         TR   0.329E+29             1481.254      4.968     46.706
         TOT                       41990.8463   250.2245   340.0198  1422.6430

       T/K    H(0)-H(T)+PV         H(T)/Eh          T*S/Eh         G(T)/Eh
   ------------------------------------------------------------------------
    298.15    0.669167E-01    0.103372E+01    0.161554E+00    0.872165E+00
   ------------------------------------------------------------------------

         :::::::::::::::::::::::::::::::::::::::::::::::::::::
         ::                  THERMODYNAMIC                  ::
         :::::::::::::::::::::::::::::::::::::::::::::::::::::
         :: total free energy        -200.733138192143 Eh   ::
         ::.................................................::
         :: total energy             -201.605303020354 Eh   ::
         :: zero point energy           0.966802554985 Eh   ::
         :: G(RRHO) w/o ZPVE           -0.094637726775 Eh   ::
         :: G(RRHO) contrib.            0.872164828211 Eh   ::
         :::::::::::::::::::::::::::::::::::::::::::::::::::::

           -------------------------------------------------
          | TOTAL ENERGY             -201.605303020354 Eh   |
          | TOTAL ENTHALPY           -200.571583792406 Eh   |
          | TOTAL FREE ENERGY        -200.733138192143 Eh   |
          | GRADIENT NORM               0.000049411131 Eh/α |
          | HOMO-LUMO GAP               0.162572859977 eV   |
           -------------------------------------------------

 * finished run on 2025/07/17 at 16:56:34.836
