   * xtb version 6.7.1 (edcfbbe) compiled by 'albert@albert-system' on 2024-07-22

   ID    Z sym.   atoms
    1    8 O      1, 21, 25
    2   15 P      2, 24
    3    6 C      3-20, 22, 23, 26-48, 50-79
    4    7 N      49
    5    1 H      80-128

          program call               : xtb data2507/toluene/9ArFDBFxPO/9ArFDBFxPO_toluene_S0_crest.xyz --gfn 2 --gbsa toluene --ohess vtight --parallel 40 --molden --ceasefiles --namespace data2507/toluene/9ArFDBFxPO/9ArFDBFxPO_toluene_S0_finalOpt
      * Solvation model:               GBSA
        Solvent                        toluene
        Solvent mass                       9.2140E+01 g/mol
          :  Hamiltonian                  GFN2-xTB          :
 * total energy  :  -201.7117490 Eh     change       -0.3918956E-08 Eh
 * total energy  :  -201.7119534 Eh     change       -0.2043597E-03 Eh
 * total energy  :  -201.7120742 Eh     change       -0.1207685E-03 Eh
 * total energy  :  -201.7121205 Eh     change       -0.4637436E-04 Eh
 * total energy  :  -201.7121668 Eh     change       -0.4627117E-04 Eh
 * total energy  :  -201.7122049 Eh     change       -0.3811179E-04 Eh
 * total energy  :  -201.7122175 Eh     change       -0.1255114E-04 Eh
 * total energy  :  -201.7122280 Eh     change       -0.1048927E-04 Eh
 * total energy  :  -201.7122440 Eh     change       -0.1608997E-04 Eh
 * total energy  :  -201.7122584 Eh     change       -0.1435725E-04 Eh
 * total energy  :  -201.7123942 Eh     change       -0.1323471E-05 Eh
 * total energy  :  -201.7123958 Eh     change       -0.1570210E-05 Eh
 * total energy  :  -201.7123976 Eh     change       -0.1810425E-05 Eh
 * total energy  :  -201.7123995 Eh     change       -0.1948813E-05 Eh
 * total energy  :  -201.7124014 Eh     change       -0.1913823E-05 Eh
 * total energy  :  -201.7124033 Eh     change       -0.1811819E-05 Eh
 * total energy  :  -201.7124051 Eh     change       -0.1796612E-05 Eh
 * total energy  :  -201.7124069 Eh     change       -0.1839611E-05 Eh
 * total energy  :  -201.7124069 Eh     change       -0.2627746E-07 Eh
   *** GEOMETRY OPTIMIZATION CONVERGED AFTER 44 ITERATIONS ***

 final structure:
================
128
 xtb: 6.7.1 (edcfbbe)
O            7.81466274792667       -4.31213545921626        0.22408044079126
P            7.12631142338435       -3.03056457424164       -0.03091484888823
C            7.47509613172373       -2.43120406440834       -1.71633561143525
C            8.74342093407929       -1.92517921047040       -1.96883592307065
C            9.12043734852791       -1.62073931569797       -3.26388954107275
C            8.23410349886165       -1.83085762332341       -4.30894254535250
C            6.97104651135183       -2.34212727328285       -4.05808952681972
C            6.59024662419353       -2.64663642411450       -2.76190024606155
C            7.64991550844755       -1.73603174914105        1.13171728960315
C            8.08938576952098       -2.16114201186498        2.37950963012748
C            8.56110531962616       -1.24014760580307        3.29725536200159
C            8.60151776686910        0.10440087702188        2.96248461031844
C            8.16133663143946        0.52696002783997        1.71830170600047
C            7.67796361639046       -0.38895930214137        0.80044996177799
C            5.31934722354958       -3.23261783293665        0.08571263993403
C            4.86074013411017       -4.54378100817580        0.15637732316712
C            3.50779402008320       -4.85683083566645        0.19275938297242
C            2.55453452603708       -3.85791428768808        0.15420500874926
C            2.98593893551750       -2.53902940150096        0.09563949019998
C            4.36021048193203       -2.22821243544919        0.06972139846395
O            4.56736305821058       -0.88258299550171        0.02417950218883
C            3.33023949380017       -0.30376734731865        0.01176604567705
C            3.02107494061853        1.04916733561966       -0.04129996595326
P            4.17695012794355        2.45497262481284        0.02465040960486
O            3.54720759721079        3.70829344532284       -0.43472475185949
C            5.62920325753383        2.04131319273771       -0.98907037566892
C            6.82207698319797        2.69455742288867       -0.71162818066537
C            7.91738959097915        2.51047326776657       -1.53662665166875
C            7.81373783196374        1.68371298613180       -2.64427526565579
C            6.61537241680698        1.05191576158128       -2.93445546388168
C            5.51911712052142        1.23173730242406       -2.10911558350721
C            4.71004133111653        2.53345760745722        1.76057930120757
C            4.60561422503823        3.75578241348226        2.41104542354267
C            4.97428604362555        3.86525171366300        3.74029074243212
C            5.43627606559746        2.74966965339006        4.42064233824036
C            5.53244360443762        1.52731439526742        3.77310282546370
C            5.17291690835131        1.41568564333298        2.44265073918361
C            1.67691983020137        1.39229912534335       -0.07783779000831
C            0.64801419393961        0.44688424180898       -0.05267232549838
C           -0.75662147099591        0.87969740824949       -0.10864817099344
C           -1.15306567874483        1.89888694255202       -0.97023258880457
C           -2.47630645245775        2.29085929224851       -1.03949305601737
C           -3.44126555058966        1.67712424501468       -0.25038087650905
C           -4.88356188053001        2.14142250316364       -0.27982535503728
C           -5.86937513944375        1.00400619071448       -0.10229728901363
C           -7.05977409140954        1.19056021653667        0.58942347469653
C           -7.98095257779003        0.16639548816363        0.70292875130252
C           -7.73432726601589       -1.06556826154113        0.10647270009643
N           -8.66560960448450       -2.11006714658357        0.22272225770943
C          -10.01169481346609       -2.02953156679383       -0.06991976087547
C          -10.74105478538385       -0.96803741093414       -0.58770004976354
C          -12.08980494356594       -1.16262046610096       -0.81620193917532
C          -12.70525790416592       -2.38360302197762       -0.54545343398920
C          -11.98071867385752       -3.44967466856652       -0.05039284687578
C          -10.62253643713450       -3.27925238561172        0.18715287241939
C           -9.58433713720929       -4.14945828879383        0.66465039225598
C           -9.56386839102528       -5.47186825527567        1.09008980868556
C           -8.36659149202710       -6.01208790550866        1.51599566837341
C           -7.20154261760964       -5.24738873679932        1.53429007621994
C           -7.19636365597169       -3.93038514866242        1.11626792929327
C           -8.39239505026161       -3.38775526780076        0.66700222417013
C           -6.55351906736648       -1.25322088360900       -0.60519804568187
C           -5.63447914145683       -0.22728241271472       -0.70583588561030
C           -5.03577853883214        3.24298431496074        0.75401317781895
C           -4.81033717975210        3.18536644266729        2.11295522405640
C           -5.00025679955618        4.33464152050210        2.86926723917015
C           -5.40283747592285        5.51989072803413        2.27222577501978
C           -5.62376033492173        5.58573491811533        0.90566360129956
C           -5.43625843805745        4.44185908683291        0.14670099593347
C           -5.58589383934990        4.21097580328438       -1.28151503978279
C           -5.97252407148865        5.06320195007198       -2.30325230695190
C           -6.02982567896393        4.56749075538001       -3.59614918006435
C           -5.71013126002977        3.24466752452889       -3.86326346733222
C           -5.32329167409733        2.38605600578986       -2.84249568266786
C           -5.25703302813435        2.87573808556973       -1.55543776675502
C           -3.04221181203802        0.67701544503994        0.63019863455154
C           -1.72220756513226        0.27679952385988        0.69379136705843
C            0.97134941309586       -0.90248916002350        0.02185703321532
C            2.30784130269429       -1.27131688398106        0.04674651543643
H            9.42796868381695       -1.78366296585768       -1.14239359895628
H           10.10799214823114       -1.22977868006638       -3.45977974670271
H            8.53033947306359       -1.60046936569842       -5.32186990087367
H            6.28251336418502       -2.51134039105302       -4.87349923110215
H            5.60990753616334       -3.05711262608404       -2.56012415399836
H            8.07100441764119       -3.21889571555307        2.60448468154000
H            8.90353566139411       -1.57098184822403        4.26688565298100
H            8.97974891862724        0.82585626657768        3.67154373628694
H            8.19396774546782        1.57416925520049        1.46005295408098
H            7.32892838104198       -0.06676235389522       -0.16939655630989
H            5.60431781210608       -5.32774535104332        0.17921617287132
H            3.20544789720221       -5.89156648855003        0.24448301368125
H            1.50079449434985       -4.08718960468156        0.17101241899716
H            6.87386905517422        3.34799496573251        0.15008519855640
H            8.84869845167860        3.01295047261538       -1.32025407879893
H            8.66596909247134        1.53796360643459       -3.29033804813737
H            6.53508898500073        0.41976912863666       -3.80551502397162
H            4.57580180381176        0.75222457998865       -2.33327660235579
H            4.23204956726310        4.60666288631423        1.85792455045704
H            4.89768275502061        4.81712721874416        4.24499487946855
H            5.72038190311992        2.83184627458366        5.45939250353448
H            5.89175977989173        0.65823393212719        4.30389578612899
H            5.25888735741178        0.47055616148158        1.92931677109336
H            1.43833938395193        2.44586792321715       -0.11805621495247
H           -0.42085303505150        2.37602830301843       -1.60515244966417
H           -2.76089298373127        3.08098483547291       -1.71871390130296
H           -7.26668546067703        2.14233186444245        1.05557070263826
H           -8.89182928272346        0.31503106976491        1.26367830233971
H          -10.26965808855029       -0.02342748541601       -0.81443808802826
H          -12.68033238149084       -0.35126716831254       -1.21673480851255
H          -13.76290543098567       -2.49503432424433       -0.73515037932851
H          -12.45547828769146       -4.39974869767271        0.14544110740160
H          -10.46914961006824       -6.06076389852355        1.08983410030756
H           -8.32925407224682       -7.03940745895154        1.84818857425958
H           -6.28269604859346       -5.69370421233140        1.88633041481360
H           -6.29217920218417       -3.34132875372170        1.14777551058412
H           -6.36683496936962       -2.20096670043918       -1.08817940390835
H           -4.72064784580717       -0.38794503190633       -1.25841632062940
H           -4.49605615631388        2.26643125831725        2.58512179066309
H           -4.83095767951754        4.30474989510418        3.93592141786095
H           -5.54430370859412        6.40197378780599        2.88012274901692
H           -5.93397455474416        6.51092966725242        0.44292743997781
H           -6.22418199345336        6.09314623500171       -2.09776364136642
H           -6.32803755550233        5.21788219805589       -4.40590245394898
H           -5.76269655122760        2.87682359660727       -4.87777589149674
H           -5.07637071389422        1.35726077348972       -3.05851946216581
H           -3.77360333647818        0.19915274782668        1.26551764778753
H           -1.43139482171092       -0.49611160358339        1.39016211228632
H            0.19961954309205       -1.65580444000818        0.03448605971789

          :  Hamiltonian                  GFN2-xTB          :
         :: gradient norm              0.000152388052 Eh/a0 ::
         :: HOMO-LUMO gap              2.322781216237 eV    ::
         :: SCC energy              -205.394087689456 Eh    ::
         :: -> dispersion             -0.206110415559 Eh    ::
         :: -> Gsolv                  -0.084470022257 Eh    ::
         :: repulsion energy           3.681680766176 Eh    ::

    * Orbital Energies and Occupations

         #    Occupation            Energy/Eh            Energy/eV
      -------------------------------------------------------------
         1        2.0000           -0.7554462             -20.5567
       ...           ...                  ...                  ...
       175        2.0000           -0.4101565             -11.1609
       176        2.0000           -0.4093622             -11.1393
       177        2.0000           -0.4087865             -11.1236
       178        2.0000           -0.4086082             -11.1188
       179        2.0000           -0.4051281             -11.0241
       180        2.0000           -0.4042938             -11.0014
       181        2.0000           -0.4032015             -10.9717
       182        2.0000           -0.3996287             -10.8744
       183        2.0000           -0.3975299             -10.8173
       184        2.0000           -0.3878650             -10.5543
       185        2.0000           -0.3804929             -10.3537
       186        2.0000           -0.3776536             -10.2765
       187        2.0000           -0.3608649              -9.8196 (HOMO)
       188                         -0.2755043              -7.4969 (LUMO)
       189                         -0.2665433              -7.2530
       190                         -0.2540168              -6.9121
       191                         -0.2519700              -6.8565
       192                         -0.2507278              -6.8227
       193                         -0.2477722              -6.7422
       194                         -0.2462337              -6.7004
       195                         -0.2451788              -6.6717
       196                         -0.2430925              -6.6149
       197                         -0.2392645              -6.5107
       198                         -0.2383132              -6.4848
       ...                                ...                  ...
       375                          1.1885298              32.3415
      -------------------------------------------------------------
                  HL-Gap            0.0853606 Eh            2.3228 eV

     #   Z          covCN         q      C6AA      α(0)
     1   8 O        0.808    -0.403    21.759     6.253
     2  15 P        4.076     0.067   157.281    22.528
     3   6 C        2.921     0.014    27.690     8.629
     4   6 C        3.018    -0.018    28.441     8.748
     5   6 C        2.919    -0.024    28.615     8.772
     6   6 C        2.920    -0.023    28.588     8.768
     7   6 C        2.920    -0.025    28.638     8.776
     8   6 C        2.983    -0.021    28.529     8.761
     9   6 C        2.922     0.014    27.707     8.632
    10   6 C        3.032    -0.019    28.458     8.750
    11   6 C        2.919    -0.026    28.657     8.779
    12   6 C        2.920    -0.022    28.555     8.763
    13   6 C        2.920    -0.024    28.607     8.771
    14   6 C        2.975    -0.020    28.507     8.758
    15   6 C        2.908    -0.014    28.352     8.731
    16   6 C        3.045    -0.023    28.535     8.761
    17   6 C        2.919    -0.035    28.873     8.811
    18   6 C        2.913    -0.028    28.700     8.785
    19   6 C        3.057    -0.018    28.397     8.739
    20   6 C        3.123     0.132    24.956     8.181
    21   8 O        1.714    -0.222    17.678     5.677
    22   6 C        3.123     0.129    25.005     8.189
    23   6 C        2.907    -0.014    28.370     8.734
    24  15 P        4.084     0.069   157.204    22.523
    25   8 O        0.808    -0.399    21.682     6.242
    26   6 C        2.922     0.018    27.618     8.618
    27   6 C        3.018    -0.019    28.454     8.750
    28   6 C        2.919    -0.025    28.618     8.772
    29   6 C        2.921    -0.024    28.602     8.770
    30   6 C        2.920    -0.026    28.655     8.778
    31   6 C        2.988    -0.017    28.420     8.745
    32   6 C        2.921     0.011    27.772     8.642
    33   6 C        3.021    -0.019    28.466     8.752
    34   6 C        2.919    -0.026    28.656     8.778
    35   6 C        2.920    -0.022    28.562     8.764
    36   6 C        2.920    -0.025    28.634     8.775
    37   6 C        2.981    -0.024    28.600     8.772
    38   6 C        3.061    -0.029    28.663     8.780
    39   6 C        2.975     0.009    27.821     8.652
    40   6 C        2.977     0.008    27.838     8.655
    41   6 C        2.924    -0.033    28.817     8.803
    42   6 C        2.922    -0.034    28.849     8.808
    43   6 C        2.979     0.018    27.602     8.618
    44   6 C        3.946     0.008    20.373     6.414
    45   6 C        2.979     0.016    27.653     8.626
    46   6 C        2.923    -0.034    28.853     8.809
    47   6 C        2.921    -0.043    29.065     8.841
    48   6 C        2.912     0.061    26.626     8.461
    49   7 N        2.802    -0.047    22.143     6.989
    50   6 C        3.076     0.048    26.853     8.496
    51   6 C        2.909    -0.052    29.288     8.874
    52   6 C        2.924    -0.035    28.877     8.812
    53   6 C        2.919    -0.043    29.071     8.842
    54   6 C        2.912    -0.035    28.876     8.812
    55   6 C        3.067    -0.019    28.417     8.741
    56   6 C        3.067    -0.019    28.414     8.741
    57   6 C        2.912    -0.035    28.874     8.811
    58   6 C        2.919    -0.043    29.073     8.842
    59   6 C        2.924    -0.035    28.881     8.813
    60   6 C        2.909    -0.052    29.295     8.875
    61   6 C        3.077     0.048    26.854     8.496
    62   6 C        2.921    -0.043    29.074     8.842
    63   6 C        2.924    -0.033    28.821     8.804
    64   6 C        3.056     0.004    27.891     8.661
    65   6 C        2.914    -0.034    28.857     8.809
    66   6 C        2.922    -0.033    28.820     8.804
    67   6 C        2.921    -0.033    28.826     8.804
    68   6 C        2.914    -0.035    28.862     8.810
    69   6 C        3.034     0.000    27.984     8.677
    70   6 C        3.034     0.000    27.984     8.677
    71   6 C        2.914    -0.035    28.863     8.810
    72   6 C        2.921    -0.033    28.828     8.805
    73   6 C        2.922    -0.033    28.821     8.804
    74   6 C        2.914    -0.035    28.859     8.809
    75   6 C        3.057     0.004    27.891     8.661
    76   6 C        2.922    -0.034    28.845     8.808
    77   6 C        2.924    -0.035    28.862     8.810
    78   6 C        2.919    -0.036    28.886     8.813
    79   6 C        3.053    -0.019    28.425     8.744
    80   1 H        0.925     0.039     2.461     2.453
    81   1 H        0.926     0.048     2.345     2.395
    82   1 H        0.926     0.050     2.326     2.385
    83   1 H        0.926     0.046     2.376     2.410
    84   1 H        0.925     0.033     2.545     2.495
    85   1 H        0.925     0.049     2.332     2.388
    86   1 H        0.926     0.047     2.361     2.403
    87   1 H        0.926     0.049     2.338     2.391
    88   1 H        0.926     0.042     2.416     2.431
    89   1 H        0.926     0.041     2.438     2.442
    90   1 H        0.926     0.066     2.133     2.284
    91   1 H        0.926     0.056     2.245     2.343
    92   1 H        0.926     0.060     2.204     2.322
    93   1 H        0.925     0.039     2.464     2.455
    94   1 H        0.926     0.048     2.346     2.395
    95   1 H        0.926     0.048     2.344     2.394
    96   1 H        0.926     0.043     2.410     2.427
    97   1 H        0.925     0.033     2.550     2.497
    98   1 H        0.925     0.052     2.291     2.367
    99   1 H        0.926     0.047     2.354     2.399
   100   1 H        0.926     0.049     2.328     2.386
   101   1 H        0.926     0.043     2.411     2.428
   102   1 H        0.926     0.041     2.437     2.441
   103   1 H        0.926     0.064     2.151     2.294
   104   1 H        0.926     0.035     2.518     2.482
   105   1 H        0.926     0.034     2.526     2.485
   106   1 H        0.926     0.038     2.469     2.457
   107   1 H        0.926     0.041     2.432     2.438
   108   1 H        0.926     0.029     2.603     2.523
   109   1 H        0.926     0.029     2.600     2.522
   110   1 H        0.926     0.027     2.630     2.536
   111   1 H        0.926     0.029     2.596     2.520
   112   1 H        0.926     0.029     2.600     2.522
   113   1 H        0.926     0.027     2.631     2.537
   114   1 H        0.926     0.030     2.592     2.518
   115   1 H        0.926     0.030     2.588     2.516
   116   1 H        0.926     0.043     2.412     2.429
   117   1 H        0.926     0.042     2.427     2.436
   118   1 H        0.926     0.032     2.557     2.501
   119   1 H        0.926     0.032     2.552     2.498
   120   1 H        0.926     0.032     2.556     2.500
   121   1 H        0.926     0.033     2.541     2.493
   122   1 H        0.926     0.033     2.542     2.493
   123   1 H        0.926     0.032     2.557     2.500
   124   1 H        0.926     0.032     2.552     2.498
   125   1 H        0.926     0.032     2.557     2.500
   126   1 H        0.926     0.038     2.476     2.461
   127   1 H        0.926     0.039     2.466     2.456
   128   1 H        0.926     0.060     2.203     2.321

molecular dipole:
                 x           y           z       tot (Debye)
 q only:        0.062       0.607       0.313
   full:        0.095       0.651       0.314       1.853

 projected vibrational frequencies (cm⁻¹)
eigval :       -0.00     0.00     0.00     0.00     0.00     0.00
eigval :       -1.58     7.23     7.91    14.00    17.70    19.00
eigval :       23.62    24.60    25.76    28.22    29.71    32.89
eigval :       38.89    40.61    44.29    46.30    50.65    54.25
eigval :       58.30    65.85    69.08    75.66    82.11    83.53
eigval :       88.09    91.27    96.89   100.27   105.09   112.36
eigval :      130.34   138.56   143.67   146.83   149.34   152.06
eigval :      157.15   169.87   171.70   178.20   194.72   199.63
eigval :      205.62   214.10   220.09   231.19   237.22   238.33
eigval :      240.71   246.99   255.21   257.49   271.42   271.84
eigval :      272.15   275.37   282.71   296.08   303.16   316.03
eigval :      321.47   339.24   347.01   357.57   363.08   365.63
eigval :      367.00   370.08   374.48   385.07   387.56   390.11
eigval :      391.44   400.07   406.11   411.02   414.69   421.97
eigval :      426.36   426.88   436.98   442.89   455.79   460.01
eigval :      467.86   475.99   480.12   486.38   495.82   503.63
eigval :      509.89   514.69   518.76   521.24   529.89   533.81
eigval :      540.02   540.53   544.81   556.17   571.41   580.77
eigval :      585.20   585.53   586.09   586.63   587.58   592.55
eigval :      594.18   596.25   608.08   615.60   621.29   625.54
eigval :      636.75   656.35   657.37   658.31   661.51   672.71
eigval :      673.33   675.40   683.59   685.80   691.06   694.48
eigval :      698.62   707.46   709.07   715.70   720.96   721.96
eigval :      727.52   730.31   739.73   740.95   741.66   742.94
eigval :      753.71   756.16   765.11   768.95   777.43   786.14
eigval :      789.64   802.06   810.67   820.66   842.46   853.05
eigval :      862.87   865.87   871.20   873.80   875.63   876.33
eigval :      877.25   878.85   881.52   881.59   884.33   892.40
eigval :      896.07   897.59   898.28   900.70   900.96   901.27
eigval :      902.05   902.40   903.24   906.00   907.83   911.78
eigval :      914.70   915.28   919.55   920.88   921.22   924.98
eigval :      926.37   926.63   926.82   927.60   927.73   928.69
eigval :      931.63   933.09   933.42   934.74   935.01   936.52
eigval :      936.77   955.44   971.60   972.42   975.56   976.48
eigval :     1006.42  1011.15  1013.61  1025.79  1062.40  1068.29
eigval :     1072.16  1074.90  1076.56  1076.93  1077.26  1077.75
eigval :     1080.53  1092.39  1102.62  1106.84  1111.32  1111.79
eigval :     1112.41  1113.52  1117.12  1121.28  1122.49  1129.38
eigval :     1130.61  1139.26  1142.54  1144.71  1151.20  1158.94
eigval :     1173.28  1174.64  1174.67  1175.08  1175.15  1176.43
eigval :     1177.69  1178.75  1180.70  1180.92  1181.60  1184.37
eigval :     1187.65  1189.14  1189.58  1191.46  1201.27  1203.05
eigval :     1205.57  1212.27  1216.63  1219.61  1225.59  1226.06
eigval :     1234.59  1235.55  1239.63  1249.06  1252.80  1262.15
eigval :     1268.82  1269.53  1270.00  1270.20  1271.96  1274.95
eigval :     1284.48  1299.55  1303.06  1307.46  1313.16  1318.04
eigval :     1319.32  1320.00  1321.72  1322.09  1324.93  1338.70
eigval :     1351.37  1355.29  1360.74  1364.38  1365.79  1377.59
eigval :     1385.33  1400.81  1406.91  1420.53  1421.67  1422.82
eigval :     1424.18  1427.14  1427.61  1429.70  1431.00  1450.54
eigval :     1451.17  1452.26  1453.91  1455.18  1460.46  1468.35
eigval :     1470.78  1474.53  1487.14  1490.54  1498.45  1553.08
eigval :     1565.27  1569.40  1574.00  1574.84  1581.19  1581.83
eigval :     1583.13  1583.99  1584.61  1584.66  1584.81  1585.05
eigval :     1586.29  1586.40  1587.32  1592.85  1596.77  1596.96
eigval :     1597.09  1601.81  1602.66  1607.77  1613.16  3047.56
eigval :     3052.96  3058.88  3063.03  3066.46  3068.66  3069.18
eigval :     3069.44  3069.78  3070.08  3073.60  3075.07  3075.61
eigval :     3076.03  3076.26  3076.56  3076.99  3077.85  3078.79
eigval :     3079.35  3079.58  3080.71  3081.48  3081.61  3083.02
eigval :     3083.38  3083.67  3083.91  3084.31  3084.73  3085.41
eigval :     3087.04  3089.69  3089.77  3090.09  3090.17  3090.81
eigval :     3091.59  3092.08  3092.30  3092.34  3092.41  3093.04
eigval :     3095.23  3100.84  3101.25  3102.85  3103.57  3105.39

   temp. (K)  partition function   enthalpy   heat capacity  entropy
                                   cal/mol     cal/K/mol   cal/K/mol   J/K/mol
 298.15  VIB  0.194E+34            39147.557    239.222    249.063
         ROT  0.440E+09              888.752      2.981     42.532
         INT  0.855E+42            40036.310    242.203    291.595
         TR   0.329E+29             1481.254      4.968     46.706
         TOT                       41517.5637   247.1713   338.3015  1415.4535

       T/K    H(0)-H(T)+PV         H(T)/Eh          T*S/Eh         G(T)/Eh
   ------------------------------------------------------------------------
    298.15    0.661624E-01    0.103893E+01    0.160738E+00    0.878192E+00
   ------------------------------------------------------------------------

         :::::::::::::::::::::::::::::::::::::::::::::::::::::
         ::                  THERMODYNAMIC                  ::
         :::::::::::::::::::::::::::::::::::::::::::::::::::::
         :: total free energy        -200.834215306940 Eh   ::
         ::.................................................::
         :: total energy             -201.712406919799 Eh   ::
         :: zero point energy           0.972767129520 Eh   ::
         :: G(RRHO) w/o ZPVE           -0.094575516661 Eh   ::
         :: G(RRHO) contrib.            0.878191612859 Eh   ::
         :::::::::::::::::::::::::::::::::::::::::::::::::::::

           -------------------------------------------------
          | TOTAL ENERGY             -201.712406919799 Eh   |
          | TOTAL ENTHALPY           -200.673477341150 Eh   |
          | TOTAL FREE ENERGY        -200.834215306940 Eh   |
          | GRADIENT NORM               0.000151832883 Eh/α |
          | HOMO-LUMO GAP               2.322781128608 eV   |
           -------------------------------------------------

 * finished run on 2025/07/17 at 16:18:58.608
