   * xtb version 6.7.1 (edcfbbe) compiled by 'albert@albert-system' on 2024-07-22

   ID    Z sym.   atoms
    1    8 O      1, 21, 25
    2   15 P      2, 24
    3    6 C      3-20, 22, 23, 26-48, 50-79
    4    7 N      49
    5    1 H      80-128

          program call               : xtb data2507/toluene/9ArFDBFxPO/9ArFDBFxPO_toluene_S0_finalOpt.xtbopt.xyz --gfn 2 --uhf 2 --gbsa toluene --ohess vtight --parallel 40 --molden --ceasefiles --namespace data2507/toluene/9ArFDBFxPO/9ArFDBFxPO_toluene_T1_preOpt
      * Solvation model:               GBSA
        Solvent                        toluene
        Solvent mass                       9.2140E+01 g/mol
          :  Hamiltonian                  GFN2-xTB          :
 * total energy  :  -201.6011224 Eh     change       -0.1673164E-06 Eh
 * total energy  :  -201.6027779 Eh     change       -0.1655497E-02 Eh
 * total energy  :  -201.6032114 Eh     change       -0.4335755E-03 Eh
 * total energy  :  -201.6032819 Eh     change       -0.7048305E-04 Eh
 * total energy  :  -201.6033411 Eh     change       -0.5915890E-04 Eh
 * total energy  :  -201.6033717 Eh     change       -0.3062205E-04 Eh
 * total energy  :  -201.6034014 Eh     change       -0.2973314E-04 Eh
 * total energy  :  -201.6034232 Eh     change       -0.2172304E-04 Eh
 * total energy  :  -201.6034374 Eh     change       -0.1423875E-04 Eh
 * total energy  :  -201.6034306 Eh     change        0.6774628E-05 Eh
 * total energy  :  -201.6035861 Eh     change       -0.4880376E-06 Eh
 * total energy  :  -201.6035866 Eh     change       -0.4636787E-06 Eh
 * total energy  :  -201.6035870 Eh     change       -0.3736773E-06 Eh
 * total energy  :  -201.6035873 Eh     change       -0.2936385E-06 Eh
 * total energy  :  -201.6035876 Eh     change       -0.2967373E-06 Eh
 * total energy  :  -201.6035879 Eh     change       -0.3336161E-06 Eh
 * total energy  :  -201.6035883 Eh     change       -0.3622156E-06 Eh
 * total energy  :  -201.6035887 Eh     change       -0.4440048E-06 Eh
 * total energy  :  -201.6035887 Eh     change       -0.1557765E-07 Eh
   *** GEOMETRY OPTIMIZATION CONVERGED AFTER 94 ITERATIONS ***

 final structure:
================
128
 xtb: 6.7.1 (edcfbbe)
O            7.84664721928597       -4.28661726591179        0.32557017432731
P            7.13937005045990       -3.01906753468674        0.04266869441065
C            7.51064469135703       -2.45782463633061       -1.65399792351480
C            8.78340036263359       -1.96587233752622       -1.91098504835071
C            9.17129415017060       -1.69653609257155       -3.21053367246806
C            8.29158300320057       -1.92904694819184       -4.25639065659344
C            7.02411671032750       -2.42709618978584       -4.00148123020309
C            6.63288462547493       -2.69524441487329       -2.70043017322910
C            7.67033297064118       -1.69591123049275        1.17062896335254
C            8.07215765096491       -2.08873729774478        2.44204416133743
C            8.54208062087393       -1.15009316795460        3.34159931840437
C            8.61659473027160        0.18334160689493        2.96767747620440
C            8.21137277723503        0.57506966589634        1.70190727429055
C            7.73054112554958       -0.35930544202614        0.80156926418170
C            5.34442664685738       -3.22780228189845        0.16217122317655
C            4.88869697075481       -4.55141596897216        0.28972862285722
C            3.53819965856862       -4.86058017397521        0.34308209088493
C            2.57680731804014       -3.87137803485174        0.26752274626601
C            3.00324157317705       -2.54124379737803        0.15430738980534
C            4.38019882580667       -2.23476286265267        0.11317652775216
O            4.57959962987286       -0.88485601846670        0.01356386971765
C            3.34248717313578       -0.31369840740310       -0.01620013088549
C            3.03406859028278        1.03757312176414       -0.13142324026159
P            4.18370708698583        2.43227018435961       -0.07437952374268
O            3.57316506066960        3.68192425837392       -0.57510508395399
C            5.66363294070644        2.00911280311106       -1.04765185849059
C            6.84341584457066        2.68186567507755       -0.76256963054457
C            7.95564364880813        2.49585569521804       -1.56404518747190
C            7.88203306551891        1.64671962632339       -2.65702987889859
C            6.69701466904888        0.99398682436498       -2.95524680112024
C            5.58433862316436        1.17655488014649       -2.15282815529335
C            4.69315158340456        2.56047375002247        1.66428059741463
C            4.49493382464694        3.77462133046535        2.31242292260441
C            4.81380433417598        3.90524397618015        3.65136985656329
C            5.31980548046529        2.81909551180755        4.34948961670362
C            5.50532935620137        1.60313658355371        3.70690799280516
C            5.19279403120141        1.46987565235659        2.36793260736004
C            1.67644030784098        1.37859830447643       -0.17620540991461
C            0.65324768296068        0.42968456587479       -0.09739640476949
C           -0.74600824995858        0.85592782081713       -0.14421672394868
C           -1.15343544964865        1.90679446571850       -0.97094480356605
C           -2.47515576203976        2.29723982915770       -1.02272880989516
C           -3.43821156759264        1.65452969820289       -0.24943626518433
C           -4.87595863826288        2.12117934045080       -0.24936758458008
C           -5.86544746918397        0.99489032317721       -0.08418752549842
C           -7.05284239715659        1.17377091147423        0.62827241316650
C           -7.98484142151436        0.16515073224046        0.71648612279135
C           -7.75698055227699       -1.06593538190274        0.08626340558789
N           -8.68876759901355       -2.08960769746059        0.18066589332966
C          -10.05634205902914       -1.95102914805184        0.02584196260057
C          -10.79449425772258       -0.83216033346862       -0.32740958967062
C          -12.17405049551134       -0.97336735049051       -0.44115353178174
C          -12.79055461011653       -2.20207735836002       -0.22199446197596
C          -12.05441989174702       -3.33521630505204        0.09424430371361
C          -10.67343178458878       -3.21910227549064        0.21022487971745
C           -9.62133137498222       -4.15222443722125        0.48318339795298
C           -9.59402948448951       -5.51492435039029        0.75908249095972
C           -8.37010570293457       -6.11421993744393        1.02110756848288
C           -7.18854798497149       -5.37846206342420        1.02890253618001
C           -7.19087957643666       -4.01462110955060        0.75326563899750
C           -8.40501736244871       -3.41556856895592        0.45595171256863
C           -6.57163868802255       -1.24621119132994       -0.64099650109098
C           -5.65127721031432       -0.22851743566640       -0.72654171167246
C           -5.00693264992433        3.21057972633282        0.80233433490919
C           -4.74657657700543        3.13475114271536        2.15251982688831
C           -4.92540102199015        4.27309924401397        2.93022479420058
C           -5.34822658666521        5.46641389116107        2.35763565705966
C           -5.60281163831389        5.55169703896409        1.00026850570800
C           -5.42988989667054        4.41752811409723        0.21665246824943
C           -5.61313762582246        4.20581887555581       -1.20287827458650
C           -6.02696639394169        5.07057967816895       -2.20837240544886
C           -6.10194875369392        4.59526915178679       -3.50528018738456
C           -5.77306287961165        3.27746301525186       -3.80144936819004
C           -5.36434594268195        2.40426471914266       -2.80090448076862
C           -5.27895090124912        2.87346448685222       -1.50856765121616
C           -3.03278140314346        0.62288935001471        0.59610292314546
C           -1.71466055650631        0.22332943225707        0.64047291219373
C            0.97747737967598       -0.92217336684349        0.03205598415865
C            2.32572174736741       -1.29029886581371        0.06075691112393
H            9.46269269050923       -1.80730190877997       -1.08311680191595
H           10.16234138413533       -1.31540104664141       -3.40891465940815
H            8.59631962490271       -1.72606889427821       -5.27274879939303
H            6.34015722780124       -2.61410702265570       -4.81703586764714
H            5.64877286574496       -3.09418972669783       -2.49195381035163
H            8.02606687578815       -3.13877345040061        2.69839809864169
H            8.85588378885264       -1.45749382668667        4.32869459312754
H            8.99294645874416        0.91913740435598        3.66295389902718
H            8.26761097423525        1.61343212263345        1.41281260086840
H            7.40743533952793       -0.05992330849731       -0.18471841954078
H            5.63586935628407       -5.32958054262059        0.33826716570285
H            3.23937697529110       -5.89442942575542        0.43703857139097
H            1.52446475155864       -4.10404989782930        0.29626369511386
H            6.87106095554823        3.35088753868616        0.08863798995323
H            8.87705407279643        3.01373679575253       -1.34070756094927
H            8.74777967774734        1.49850568348038       -3.28458961366214
H            6.64009090605413        0.34268574786489       -3.81412961707331
H            4.65050715284931        0.67981887101752       -2.38100725601385
H            4.09395723892480        4.60300809883759        1.74439496778095
H            4.66652779028439        4.85159482153645        4.15140499095623
H            5.56718483735504        2.91793536383367        5.39615807109620
H            5.89721887601920        0.75592501930422        4.25040133116917
H            5.34225546108391        0.52928320995161        1.85976186996847
H            1.44084586390646        2.42997910493249       -0.25170630340232
H           -0.42510264365554        2.40343263503666       -1.59462278177897
H           -2.76592827968813        3.10662094493201       -1.67628195643878
H           -7.23371053519930        2.10979661546249        1.13429678325377
H           -8.87393141728112        0.29867062266000        1.31344608832864
H          -10.32244033427816        0.11697110696818       -0.52702952235428
H          -12.77203725755279       -0.11665800139071       -0.71012651455277
H          -13.86407040616064       -2.27606827006603       -0.31483081392743
H          -12.53997880171395       -4.28722657325028        0.24138448864164
H          -10.50631197993807       -6.09039234955493        0.77546026878115
H           -8.33330160289566       -7.17195263955057        1.23650891204809
H           -6.25549898905835       -5.86921629967017        1.25838049023611
H           -6.27371826209003       -3.44824187055884        0.78872430579545
H           -6.41057836430158       -2.17165094703454       -1.17236896610538
H           -4.74827540854166       -0.37518990955489       -1.29991378581660
H           -4.41237022118545        2.21269281088049        2.60424279828478
H           -4.72959539006140        4.22970210007835        3.99152526637416
H           -5.47598297482147        6.33905692390220        2.98190218972744
H           -5.92557962502809        6.48220931613525        0.55766960703477
H           -6.28338363469072        6.09456502299661       -1.98101811944799
H           -6.41979356663680        5.25455353133633       -4.30010518062406
H           -5.83556089460247        2.92795550208574       -4.82146983395525
H           -5.11107253562338        1.38261778252859       -3.04113295835167
H           -3.76037380872153        0.12835685735561        1.22318954106403
H           -1.41806161193666       -0.56822258671706        1.31233592920755
H            0.21215205311450       -1.67959284936336        0.06989346472792

          :  Hamiltonian                  GFN2-xTB          :
         :: gradient norm              0.000061736248 Eh/a0 ::
         :: HOMO-LUMO gap              0.011768888327 eV    ::
         :: SCC energy              -205.261335422395 Eh    ::
         :: -> dispersion             -0.206102274199 Eh    ::
         :: -> Gsolv                  -0.093326811331 Eh    ::
         :: repulsion energy           3.657746709184 Eh    ::

    * Orbital Energies and Occupations

         #    Occupation            Energy/Eh            Energy/eV
      -------------------------------------------------------------
         1        2.0000           -0.7428743             -20.2146
       ...           ...                  ...                  ...
       176        2.0000           -0.4079717             -11.1015
       177        2.0000           -0.4062271             -11.0540
       178        2.0000           -0.4034407             -10.9782
       179        2.0000           -0.4026258             -10.9560
       180        2.0000           -0.4020216             -10.9396
       181        2.0000           -0.4009184             -10.9095
       182        2.0000           -0.3977457             -10.8232
       183        2.0000           -0.3908903             -10.6367
       184        1.9994           -0.3861151             -10.5067
       185        1.9966           -0.3844486             -10.4614
       186        1.7982           -0.3803669             -10.3503
       187        1.2058           -0.3777774             -10.2798
       188        0.5167           -0.2620448              -7.1306 (HOMO)
       189        0.4040           -0.2616122              -7.1188 (LUMO)
       190        0.0737           -0.2595762              -7.0634
       191        0.0056           -0.2570665              -6.9951
       192        0.0000           -0.2496689              -6.7938
       193                         -0.2464166              -6.7053
       194                         -0.2448856              -6.6637
       195                         -0.2428335              -6.6078
       196                         -0.2423396              -6.5944
       197                         -0.2408072              -6.5527
       198                         -0.2378804              -6.4731
       199                         -0.2356906              -6.4135
       ...                                ...                  ...
       375                          1.1951236              32.5210
      -------------------------------------------------------------
                  HL-Gap            0.0004325 Eh            0.0118 eV

     #   Z          covCN         q      C6AA      α(0)
     1   8 O        0.808    -0.406    21.822     6.262
     2  15 P        4.072     0.038   158.542    22.618
     3   6 C        2.921     0.017    27.634     8.621
     4   6 C        3.014    -0.018    28.445     8.749
     5   6 C        2.919    -0.026    28.642     8.776
     6   6 C        2.920    -0.025    28.618     8.773
     7   6 C        2.920    -0.026    28.659     8.779
     8   6 C        2.984    -0.021    28.513     8.759
     9   6 C        2.921     0.015    27.669     8.626
    10   6 C        3.032    -0.020    28.464     8.751
    11   6 C        2.918    -0.028    28.697     8.785
    12   6 C        2.920    -0.024    28.606     8.771
    13   6 C        2.920    -0.025    28.620     8.773
    14   6 C        2.973    -0.020    28.507     8.758
    15   6 C        2.906    -0.019    28.481     8.751
    16   6 C        3.039    -0.041    28.973     8.829
    17   6 C        2.915    -0.039    28.961     8.825
    18   6 C        2.911    -0.045    29.127     8.850
    19   6 C        3.056    -0.032    28.730     8.790
    20   6 C        3.122     0.126    25.067     8.199
    21   8 O        1.714    -0.233    17.862     5.706
    22   6 C        3.122     0.132    24.942     8.179
    23   6 C        2.904    -0.023    28.575     8.765
    24  15 P        4.081     0.031   158.863    22.641
    25   8 O        0.808    -0.401    21.728     6.248
    26   6 C        2.921     0.021    27.542     8.606
    27   6 C        3.016    -0.019    28.453     8.750
    28   6 C        2.919    -0.026    28.646     8.777
    29   6 C        2.921    -0.025    28.632     8.775
    30   6 C        2.920    -0.027    28.678     8.782
    31   6 C        2.987    -0.016    28.404     8.742
    32   6 C        2.920     0.012    27.759     8.640
    33   6 C        3.017    -0.022    28.524     8.761
    34   6 C        2.918    -0.029    28.715     8.787
    35   6 C        2.920    -0.027    28.677     8.782
    36   6 C        2.919    -0.027    28.683     8.783
    37   6 C        2.981    -0.025    28.617     8.775
    38   6 C        3.054    -0.044    29.037     8.837
    39   6 C        2.971     0.005    27.896     8.663
    40   6 C        2.977     0.015    27.664     8.628
    41   6 C        2.923    -0.030    28.743     8.792
    42   6 C        2.920    -0.032    28.802     8.801
    43   6 C        2.979     0.021    27.542     8.609
    44   6 C        3.945     0.011    20.325     6.406
    45   6 C        2.981     0.024    27.464     8.596
    46   6 C        2.920    -0.030    28.743     8.792
    47   6 C        2.918    -0.037    28.926     8.820
    48   6 C        2.913     0.056    26.733     8.478
    49   7 N        2.800     0.016    20.974     6.802
    50   6 C        3.062     0.043    26.983     8.518
    51   6 C        2.908    -0.038    28.951     8.823
    52   6 C        2.920    -0.040    28.988     8.829
    53   6 C        2.918    -0.024    28.608     8.771
    54   6 C        2.910    -0.032    28.808     8.801
    55   6 C        3.059    -0.013    28.273     8.720
    56   6 C        3.059    -0.013    28.272     8.720
    57   6 C        2.910    -0.032    28.808     8.801
    58   6 C        2.918    -0.024    28.609     8.771
    59   6 C        2.920    -0.040    28.988     8.829
    60   6 C        2.908    -0.039    28.957     8.824
    61   6 C        3.061     0.043    26.983     8.518
    62   6 C        2.918    -0.038    28.947     8.823
    63   6 C        2.921    -0.028    28.704     8.786
    64   6 C        3.056     0.004    27.879     8.659
    65   6 C        2.913    -0.034    28.852     8.808
    66   6 C        2.922    -0.033    28.822     8.804
    67   6 C        2.920    -0.031    28.784     8.798
    68   6 C        2.913    -0.034    28.857     8.809
    69   6 C        3.032     0.001    27.965     8.674
    70   6 C        3.032     0.001    27.969     8.675
    71   6 C        2.913    -0.034    28.848     8.807
    72   6 C        2.919    -0.032    28.792     8.799
    73   6 C        2.922    -0.033    28.827     8.805
    74   6 C        2.913    -0.034    28.853     8.808
    75   6 C        3.057     0.004    27.867     8.657
    76   6 C        2.920    -0.033    28.826     8.804
    77   6 C        2.923    -0.032    28.805     8.801
    78   6 C        2.915    -0.057    29.416     8.894
    79   6 C        3.051    -0.030    28.686     8.784
    80   1 H        0.925     0.036     2.499     2.472
    81   1 H        0.926     0.046     2.367     2.406
    82   1 H        0.926     0.048     2.341     2.393
    83   1 H        0.926     0.044     2.401     2.423
    84   1 H        0.925     0.030     2.581     2.512
    85   1 H        0.925     0.045     2.381     2.413
    86   1 H        0.926     0.044     2.394     2.419
    87   1 H        0.926     0.046     2.371     2.408
    88   1 H        0.926     0.039     2.460     2.453
    89   1 H        0.926     0.035     2.520     2.482
    90   1 H        0.926     0.047     2.352     2.398
    91   1 H        0.926     0.040     2.449     2.447
    92   1 H        0.926     0.041     2.432     2.439
    93   1 H        0.925     0.036     2.505     2.475
    94   1 H        0.926     0.045     2.379     2.412
    95   1 H        0.926     0.046     2.371     2.408
    96   1 H        0.926     0.040     2.447     2.446
    97   1 H        0.925     0.029     2.594     2.519
    98   1 H        0.925     0.048     2.350     2.398
    99   1 H        0.926     0.043     2.408     2.426
   100   1 H        0.926     0.044     2.390     2.418
   101   1 H        0.926     0.037     2.493     2.469
   102   1 H        0.926     0.033     2.539     2.492
   103   1 H        0.926     0.049     2.328     2.386
   104   1 H        0.926     0.037     2.488     2.467
   105   1 H        0.926     0.038     2.471     2.458
   106   1 H        0.926     0.051     2.311     2.377
   107   1 H        0.926     0.056     2.247     2.344
   108   1 H        0.926     0.046     2.365     2.405
   109   1 H        0.926     0.040     2.446     2.446
   110   1 H        0.926     0.042     2.422     2.434
   111   1 H        0.926     0.042     2.421     2.433
   112   1 H        0.926     0.042     2.422     2.434
   113   1 H        0.926     0.042     2.428     2.437
   114   1 H        0.926     0.040     2.454     2.449
   115   1 H        0.926     0.046     2.364     2.404
   116   1 H        0.926     0.056     2.247     2.344
   117   1 H        0.926     0.052     2.289     2.366
   118   1 H        0.926     0.034     2.527     2.486
   119   1 H        0.926     0.034     2.534     2.490
   120   1 H        0.926     0.033     2.538     2.491
   121   1 H        0.926     0.035     2.517     2.481
   122   1 H        0.926     0.035     2.515     2.480
   123   1 H        0.926     0.034     2.535     2.490
   124   1 H        0.926     0.034     2.526     2.485
   125   1 H        0.926     0.035     2.517     2.481
   126   1 H        0.926     0.044     2.402     2.423
   127   1 H        0.926     0.042     2.421     2.433
   128   1 H        0.926     0.043     2.411     2.428

molecular dipole:
                 x           y           z       tot (Debye)
 q only:       -8.605       0.200       0.207
   full:       -8.412       0.244       0.219      21.397

 projected vibrational frequencies (cm⁻¹)
eigval :       -0.00    -0.00    -0.00     0.00     0.00     0.00
eigval :        1.86     6.37     8.24    13.48    15.89    17.92
eigval :       24.69    26.39    27.64    30.37    31.33    33.97
eigval :       38.18    40.40    44.83    47.63    52.57    55.33
eigval :       59.17    64.56    65.94    75.01    82.32    83.14
eigval :       87.03    94.40    97.69    98.97   104.68   110.88
eigval :      127.90   134.89   141.51   143.68   148.10   150.23
eigval :      157.11   169.87   170.40   178.39   193.61   198.04
eigval :      201.80   207.71   217.32   221.44   233.53   237.14
eigval :      238.59   245.30   255.17   258.18   262.24   271.09
eigval :      271.68   274.78   278.82   289.23   296.24   312.59
eigval :      319.66   337.82   345.92   348.31   362.50   365.92
eigval :      368.15   369.32   369.86   374.56   376.48   381.45
eigval :      383.54   393.35   401.15   406.64   408.75   412.55
eigval :      418.56   425.65   431.18   435.46   446.16   454.49
eigval :      460.26   468.15   473.63   479.63   486.71   497.18
eigval :      499.44   501.71   504.44   507.01   512.61   515.17
eigval :      527.53   534.13   541.89   549.16   564.54   572.98
eigval :      580.52   585.08   585.51   585.99   586.27   586.84
eigval :      587.93   591.88   603.70   606.49   612.84   619.32
eigval :      631.64   651.38   655.48   657.12   658.94   660.21
eigval :      665.45   666.16   671.77   677.60   682.78   687.18
eigval :      688.33   692.18   694.16   707.45   715.03   716.99
eigval :      717.96   720.77   736.68   738.61   739.77   740.23
eigval :      741.64   749.59   754.55   756.77   760.68   768.11
eigval :      776.20   781.92   786.65   811.64   814.02   818.16
eigval :      824.68   836.40   840.37   844.50   845.83   851.18
eigval :      861.46   867.46   869.00   876.59   877.08   877.68
eigval :      878.90   880.24   884.04   887.21   890.81   891.45
eigval :      895.64   900.13   900.55   901.21   902.33   902.86
eigval :      903.74   903.86   904.23   906.44   910.15   920.74
eigval :      921.99   922.99   923.76   924.38   925.62   927.43
eigval :      927.98   928.76   930.11   931.13   931.95   932.16
eigval :      933.57   933.72   971.25   971.45   974.83   975.68
eigval :      993.68   998.42  1001.65  1011.60  1027.37  1031.30
eigval :     1057.07  1060.53  1070.90  1071.86  1074.97  1076.41
eigval :     1076.84  1077.32  1083.75  1089.32  1095.11  1097.52
eigval :     1102.81  1108.04  1109.55  1110.68  1111.98  1113.17
eigval :     1113.70  1119.32  1122.54  1125.79  1132.05  1137.96
eigval :     1140.00  1143.28  1159.84  1161.19  1169.85  1170.05
eigval :     1171.82  1173.57  1174.94  1175.77  1176.65  1177.86
eigval :     1178.61  1182.14  1186.95  1189.19  1190.14  1191.02
eigval :     1192.83  1195.89  1197.26  1203.94  1205.17  1208.32
eigval :     1208.77  1216.46  1222.85  1227.74  1240.01  1241.87
eigval :     1243.58  1255.10  1258.34  1262.43  1268.75  1268.99
eigval :     1270.59  1271.73  1273.00  1277.82  1281.07  1291.20
eigval :     1315.58  1317.14  1318.16  1319.62  1322.58  1323.53
eigval :     1324.34  1326.08  1327.84  1335.95  1353.22  1363.79
eigval :     1376.03  1378.94  1383.18  1385.37  1406.00  1410.54
eigval :     1411.76  1413.18  1417.20  1420.38  1421.32  1423.15
eigval :     1424.26  1432.90  1439.38  1439.80  1447.16  1448.64
eigval :     1450.64  1451.41  1454.49  1455.61  1457.76  1460.36
eigval :     1465.96  1478.16  1494.44  1498.45  1505.05  1509.50
eigval :     1518.34  1533.35  1539.17  1541.62  1548.19  1552.83
eigval :     1562.67  1563.00  1571.59  1573.16  1576.48  1582.95
eigval :     1583.65  1585.06  1585.55  1586.72  1586.98  3044.27
eigval :     3051.45  3054.73  3055.59  3063.13  3067.04  3071.64
eigval :     3072.00  3072.97  3074.54  3075.40  3075.41  3076.09
eigval :     3077.79  3077.94  3078.82  3078.87  3079.67  3079.89
eigval :     3081.13  3081.47  3083.27  3084.01  3084.34  3085.69
eigval :     3086.81  3087.36  3087.53  3088.02  3088.69  3088.89
eigval :     3089.95  3090.61  3091.44  3091.46  3092.19  3092.46
eigval :     3093.11  3096.89  3097.64  3098.43  3098.75  3099.08
eigval :     3099.35  3101.07  3101.67  3103.68  3104.00  3107.53

   temp. (K)  partition function   enthalpy   heat capacity  entropy
                                   cal/mol     cal/K/mol   cal/K/mol   J/K/mol
 298.15  VIB  0.264E+34            39611.712    242.841    251.671
         ROT  0.440E+09              888.752      2.981     42.530
         INT  0.116E+43            40500.465    245.822    294.201
         TR   0.329E+29             1481.254      4.968     46.706
         TOT                       41981.7186   250.7900   340.9075  1426.3569

       T/K    H(0)-H(T)+PV         H(T)/Eh          T*S/Eh         G(T)/Eh
   ------------------------------------------------------------------------
    298.15    0.669021E-01    0.103060E+01    0.161976E+00    0.868628E+00
   ------------------------------------------------------------------------

         :::::::::::::::::::::::::::::::::::::::::::::::::::::
         ::                  THERMODYNAMIC                  ::
         :::::::::::::::::::::::::::::::::::::::::::::::::::::
         :: total free energy        -200.734960366426 Eh   ::
         ::.................................................::
         :: total energy             -201.603588711452 Eh   ::
         :: zero point energy           0.963702364753 Eh   ::
         :: G(RRHO) w/o ZPVE           -0.095074019727 Eh   ::
         :: G(RRHO) contrib.            0.868628345027 Eh   ::
         :::::::::::::::::::::::::::::::::::::::::::::::::::::

           -------------------------------------------------
          | TOTAL ENERGY             -201.603588711452 Eh   |
          | TOTAL ENTHALPY           -200.572984219648 Eh   |
          | TOTAL FREE ENERGY        -200.734960366426 Eh   |
          | GRADIENT NORM               0.000061831530 Eh/α |
          | HOMO-LUMO GAP               0.011769944235 eV   |
           -------------------------------------------------

 * finished run on 2025/07/17 at 16:19:36.958
