   * xtb version 6.7.1 (edcfbbe) compiled by 'albert@albert-system' on 2024-07-22

   ID    Z sym.   atoms
    1    8 O      1, 21, 25
    2   15 P      2, 24
    3    6 C      3-20, 22, 23, 26-48, 50-79
    4    7 N      49
    5    1 H      80-128

          program call               : xtb data2507/toluene/9ArFDBFxPO/9ArFDBFxPO.xyz --gfn 2 --gbsa toluene --ohess vtight --parallel 40 --molden --ceasefiles --namespace data2507/toluene/9ArFDBFxPO/9ArFDBFxPO_toluene_S0_preOpt
      * Solvation model:               GBSA
        Solvent                        toluene
        Solvent mass                       9.2140E+01 g/mol
          :  Hamiltonian                  GFN2-xTB          :
 * total energy  :  -201.6761519 Eh     change       -0.1221167E-08 Eh
 * total energy  :  -201.6999160 Eh     change       -0.2376403E-01 Eh
 * total energy  :  -201.7071966 Eh     change       -0.7280667E-02 Eh
 * total energy  :  -201.7091775 Eh     change       -0.1980860E-02 Eh
 * total energy  :  -201.7107452 Eh     change       -0.1567714E-02 Eh
 * total energy  :  -201.7114798 Eh     change       -0.7345559E-03 Eh
 * total energy  :  -201.7118942 Eh     change       -0.4144608E-03 Eh
 * total energy  :  -201.7121478 Eh     change       -0.2536116E-03 Eh
 * total energy  :  -201.7123063 Eh     change       -0.1584814E-03 Eh
 * total energy  :  -201.7124524 Eh     change       -0.1460709E-03 Eh
 * total energy  :  -201.7147503 Eh     change       -0.5561368E-06 Eh
 * total energy  :  -201.7147507 Eh     change       -0.4700833E-06 Eh
 * total energy  :  -201.7147512 Eh     change       -0.4311554E-06 Eh
 * total energy  :  -201.7147516 Eh     change       -0.4700129E-06 Eh
 * total energy  :  -201.7147522 Eh     change       -0.5520509E-06 Eh
 * total energy  :  -201.7147528 Eh     change       -0.6461237E-06 Eh
 * total energy  :  -201.7147535 Eh     change       -0.7021719E-06 Eh
 * total energy  :  -201.7147542 Eh     change       -0.6820306E-06 Eh
 * total energy  :  -201.7147542 Eh     change       -0.6697064E-08 Eh
   *** GEOMETRY OPTIMIZATION CONVERGED AFTER 152 ITERATIONS ***

 final structure:
================
128
 xtb: 6.7.1 (edcfbbe)
O            7.73242005158922        0.69533457916283       -0.40591277353399
P            7.75124224124528       -0.09336198792382        0.83988364709233
C            9.23912925525479        0.20717928727170        1.84342954607752
C            9.65945615848124       -0.67840114097304        2.82875500333060
C           10.80083149411670       -0.39912416891408        3.55856723757645
C           11.52302269213492        0.75756639994052        3.30607492577398
C           11.10778408235493        1.63745445465784        2.31940302953876
C            9.96635674470046        1.36111539450508        1.58722244856759
C            7.73359671036481       -1.89490805309337        0.58149550686025
C            8.53056906251488       -2.37850246472733       -0.44762739689719
C            8.64241872911047       -3.74087352143897       -0.65451390551184
C            7.95185576305506       -4.62091171955999        0.16409371419814
C            7.14691568265381       -4.13878378934395        1.18335327067007
C            7.04055533177794       -2.77576938598096        1.39974813584209
C            6.34580383019913        0.26861950916909        1.94547459183035
C            6.44734066593429        0.46356949792882        3.31746360435920
C            5.33348417211076        0.76981505026220        4.09283535973794
C            4.07771341292074        0.90199974827321        3.52979459076508
C            3.94906701244377        0.72042666864716        2.15876682406914
C            5.08306119748429        0.40227882139573        1.38533629548054
O            4.77429903976486        0.25668164287507        0.07140163704801
C            3.43982199604524        0.49783079091969       -0.03253695108147
C            2.67568249108892        0.47537250864060       -1.18924618864115
P            3.33335543592264        0.16750707062561       -2.85760955473648
O            2.25030150713395       -0.10669086389576       -3.82366688537421
C            4.47574119123679       -1.24075431236318       -2.69875896727085
C            5.59623664011662       -1.32946916898844       -3.51077983363149
C            6.37258280028591       -2.47454020135080       -3.48652431490898
C            6.02668331050901       -3.52889599558039       -2.65754400636805
C            4.90693172447075       -3.44033425216663       -1.84680546272712
C            4.12690938656114       -2.29860378659529       -1.87130988999055
C            4.30612149801118        1.64284049762857       -3.27513350669229
C            3.79425600307098        2.48296996576956       -4.25573338965810
C            4.47200832580666        3.63948400147286       -4.59842370622192
C            5.65969182152436        3.95618110119760       -3.95814991375439
C            6.16973537862868        3.11642773722443       -2.97963769273019
C            5.49670924696666        1.95893770657834       -2.63196874849752
C            1.32140484542010        0.74141366714634       -1.06247409994197
C            0.71933290710345        1.02160133155551        0.16946408521160
C           -0.72528628835391        1.29122352994164        0.23768513081608
C           -1.62265992319016        0.57469640524071       -0.55140146004848
C           -2.97849207251699        0.82761077552472       -0.48687726828577
C           -3.48246386140851        1.79986774359575        0.37088063780890
C           -4.96309859809429        2.12230004601543        0.37813978492974
C           -5.83544166294664        0.89316908813907        0.22187144398420
C           -7.03233632399623        0.95179609334482       -0.48135174887418
C           -7.85323105204553       -0.15603614740301       -0.57598824869449
C           -7.49822263163702       -1.34539748155734        0.05163653832510
N           -8.32754380208434       -2.47436611495327       -0.04509594704079
C           -7.93261874169818       -3.73240359089461       -0.45277059042918
C           -6.68620247381450       -4.17435471241672       -0.87466315392989
C           -6.56447577007795       -5.49763268979849       -1.25340492313095
C           -7.65411813161428       -6.36621517599837       -1.22385627245044
C           -8.90148123821782       -5.92707819581609       -0.82660332810147
C           -9.04927994724419       -4.60066433134455       -0.44074905214846
C          -10.16903083696846       -3.81787472670501        0.00242359766394
C          -11.50857822258888       -4.10682185924979        0.23095205146917
C          -12.33383567507406       -3.10032447219976        0.69189759450657
C          -11.83626818629964       -1.82181207953458        0.93810810291987
C          -10.50861502060732       -1.50925464071487        0.71694098388415
C           -9.67870878015916       -2.51116947600176        0.23279219831689
C           -6.31131999854650       -1.40520988778277        0.77528305619148
C           -5.49205016981917       -0.29626805269653        0.85636494420700
C           -5.42042453803972        2.85292948762924        1.62816602713967
C           -5.46089467452873        2.39341920080326        2.92739036159005
C           -5.94026822665859        3.23948061429757        3.91899557014478
C           -6.37467065127678        4.52018259918910        3.61149885805099
C           -6.34389236803882        4.98472145128056        2.30615989971225
C           -5.86679712332847        4.14442045203766        1.31311755029706
C           -5.72060637639037        4.34907179626909       -0.11947172581733
C           -6.00211902234533        5.44950396012762       -0.91287232803718
C           -5.75696786364769        5.36698459751076       -2.27436896316405
C           -5.23719687766940        4.20873470160122       -2.83273248784942
C           -4.95377569418480        3.10276320002705       -2.04201882715217
C           -5.20348155963209        3.17630650171999       -0.68814344649043
C           -2.58850824284799        2.52540712047223        1.14830285574403
C           -1.23159867973097        2.27152192299517        1.08753263020000
C            1.50038906779494        1.04366279266374        1.32034218286812
C            2.85924711661794        0.78238525175872        1.21884877045683
H            9.09544510219102       -1.58166830243392        3.01362401445184
H           11.13021335616895       -1.08557249930735        4.32478538341571
H           12.41443704707055        0.97074671665996        3.87734942364601
H           11.67323723111922        2.53578923726526        2.11937770520975
H            9.62572339510446        2.02604747148072        0.80547643995422
H            9.05344561580610       -1.67037380973627       -1.07641503035385
H            9.27040261479007       -4.11620662785422       -1.44905539210040
H            8.03973318758142       -5.68580691626980        0.00630842995210
H            6.60571507812560       -4.82619868798235        1.81715274816148
H            6.42171610107002       -2.39389939364549        2.20010299060963
H            7.41545098681990        0.37648715883501        3.78738117900038
H            5.45978455082770        0.91038962252441        5.15558204981610
H            3.21770506139890        1.14352563844595        4.13428846469620
H            5.85096084367839       -0.50094744644634       -4.15834093996867
H            7.24513797442820       -2.54536483986518       -4.11926628523091
H            6.62691559842058       -4.42575262273271       -2.64710844429605
H            4.63855980786206       -4.26371917421819       -1.20128181966566
H            3.23892915229214       -2.22015347056021       -1.25633077184129
H            2.86894960046529        2.20775073881684       -4.74317442733176
H            4.07529679957709        4.29171915142307       -5.36274968435614
H            6.19115644031119        4.85827332242129       -4.22441877808272
H            7.09803923415757        3.35747356467621       -2.48298480434845
H            5.89977328592479        1.30121848057763       -1.87677369603992
H            0.73064343599806        0.73498826320645       -1.96755558412373
H           -1.25577045251001       -0.19857582841998       -1.21044959915893
H           -3.65419883249369        0.25478861740328       -1.10523058068301
H           -7.32300590195418        1.86890088515793       -0.97183582549234
H           -8.76877832012817       -0.10600066730452       -1.14646123801883
H           -5.83965284703517       -3.50550971247766       -0.91503884721335
H           -5.60376954471126       -5.86665175533294       -1.58262233763224
H           -7.51775005833687       -7.39459340255334       -1.52533434829872
H           -9.74857816735156       -6.59691928951459       -0.81799322017539
H          -11.89164461557184       -5.10103604420912        0.05448143365145
H          -13.37893755109223       -3.30430634041392        0.87412002783697
H          -12.50311268009249       -1.05872112207744        1.31288300971934
H          -10.12871192063096       -0.51997794387648        0.92410118221818
H           -6.04107982820100       -2.31971085056806        1.28216929401083
H           -4.57117050831548       -0.35883056820293        1.41712325775198
H           -5.12450883515165        1.39743034077682        3.17403636242370
H           -5.97524695927613        2.89501605145018        4.94241390673143
H           -6.74351574591704        5.16151450718830        4.39906098218317
H           -6.68568748791659        5.98136170042367        2.06907373746537
H           -6.40346828803142        6.35416905421530       -0.48069601243449
H           -5.97061709705033        6.21517008564719       -2.90887696406522
H           -5.04948092898953        4.16529719874239       -3.89583133083927
H           -4.54809401175046        2.20482330148715       -2.48383546481857
H           -2.95542009729509        3.29924901923123        1.80645452997228
H           -0.55454316096769        2.86073704058906        1.68814915652114
H            1.05586962235532        1.24167183024214        2.28299845162979

          :  Hamiltonian                  GFN2-xTB          :
         :: gradient norm              0.000059582885 Eh/a0 ::
         :: HOMO-LUMO gap              2.341195870121 eV    ::
         :: SCC energy              -205.396310302825 Eh    ::
         :: -> dispersion             -0.201010984689 Eh    ::
         :: -> Gsolv                  -0.088654946659 Eh    ::
         :: repulsion energy           3.681556089466 Eh    ::

    * Orbital Energies and Occupations

         #    Occupation            Energy/Eh            Energy/eV
      -------------------------------------------------------------
         1        2.0000           -0.7520053             -20.4631
       ...           ...                  ...                  ...
       175        2.0000           -0.4084296             -11.1139
       176        2.0000           -0.4079184             -11.1000
       177        2.0000           -0.4077227             -11.0947
       178        2.0000           -0.4055187             -11.0347
       179        2.0000           -0.4040562             -10.9949
       180        2.0000           -0.4036812             -10.9847
       181        2.0000           -0.4011205             -10.9150
       182        2.0000           -0.3989094             -10.8549
       183        2.0000           -0.3966642             -10.7938
       184        2.0000           -0.3864284             -10.5153
       185        2.0000           -0.3799620             -10.3393
       186        2.0000           -0.3770380             -10.2597
       187        2.0000           -0.3602354              -9.8025 (HOMO)
       188                         -0.2741980              -7.4613 (LUMO)
       189                         -0.2636670              -7.1747
       190                         -0.2558916              -6.9632
       191                         -0.2534346              -6.8963
       192                         -0.2465901              -6.7101
       193                         -0.2454731              -6.6797
       194                         -0.2444829              -6.6527
       195                         -0.2430950              -6.6150
       196                         -0.2406204              -6.5476
       197                         -0.2374156              -6.4604
       198                         -0.2368910              -6.4461
       ...                                ...                  ...
       375                          1.1937716              32.4842
      -------------------------------------------------------------
                  HL-Gap            0.0860374 Eh            2.3412 eV

     #   Z          covCN         q      C6AA      α(0)
     1   8 O        0.808    -0.398    21.662     6.239
     2  15 P        4.053     0.086   156.465    22.470
     3   6 C        2.921     0.006    27.885     8.660
     4   6 C        2.979    -0.026    28.651     8.780
     5   6 C        2.919    -0.026    28.654     8.778
     6   6 C        2.920    -0.023    28.579     8.767
     7   6 C        2.919    -0.026    28.648     8.777
     8   6 C        3.020    -0.019    28.456     8.750
     9   6 C        2.921     0.009    27.816     8.649
    10   6 C        3.033    -0.018    28.434     8.746
    11   6 C        2.919    -0.025    28.619     8.773
    12   6 C        2.920    -0.023    28.577     8.766
    13   6 C        2.920    -0.026    28.646     8.777
    14   6 C        2.972    -0.025    28.620     8.775
    15   6 C        2.907    -0.016    28.415     8.741
    16   6 C        2.969    -0.030    28.754     8.796
    17   6 C        2.920    -0.036    28.892     8.814
    18   6 C        2.912    -0.029    28.722     8.788
    19   6 C        3.056    -0.020    28.456     8.748
    20   6 C        3.200     0.138    24.496     8.066
    21   8 O        1.715    -0.214    17.558     5.657
    22   6 C        3.156     0.130    24.873     8.155
    23   6 C        2.907    -0.015    28.381     8.735
    24  15 P        4.066     0.064   157.403    22.537
    25   8 O        0.808    -0.400    21.709     6.246
    26   6 C        2.922     0.019    27.576     8.612
    27   6 C        2.995    -0.018    28.441     8.748
    28   6 C        2.920    -0.025    28.619     8.773
    29   6 C        2.921    -0.025    28.630     8.774
    30   6 C        2.920    -0.027    28.679     8.782
    31   6 C        3.007    -0.018    28.450     8.749
    32   6 C        2.921     0.011    27.760     8.640
    33   6 C        3.027    -0.021    28.502     8.757
    34   6 C        2.919    -0.028    28.701     8.785
    35   6 C        2.920    -0.024    28.603     8.770
    36   6 C        2.920    -0.024    28.602     8.770
    37   6 C        2.978    -0.024    28.589     8.771
    38   6 C        3.029    -0.029    28.694     8.786
    39   6 C        2.975     0.007    27.849     8.656
    40   6 C        2.977     0.008    27.833     8.654
    41   6 C        2.924    -0.033    28.832     8.806
    42   6 C        2.922    -0.033    28.827     8.805
    43   6 C        2.979     0.018    27.604     8.618
    44   6 C        3.946     0.008    20.372     6.414
    45   6 C        2.979     0.016    27.654     8.626
    46   6 C        2.923    -0.034    28.854     8.809
    47   6 C        2.921    -0.043    29.067     8.841
    48   6 C        2.912     0.061    26.626     8.461
    49   7 N        2.802    -0.047    22.144     6.989
    50   6 C        3.076     0.048    26.852     8.496
    51   6 C        2.909    -0.052    29.290     8.874
    52   6 C        2.924    -0.035    28.877     8.812
    53   6 C        2.919    -0.043    29.071     8.842
    54   6 C        2.912    -0.035    28.875     8.811
    55   6 C        3.067    -0.019    28.415     8.741
    56   6 C        3.067    -0.019    28.415     8.741
    57   6 C        2.912    -0.035    28.876     8.812
    58   6 C        2.919    -0.043    29.072     8.842
    59   6 C        2.924    -0.035    28.878     8.813
    60   6 C        2.909    -0.052    29.288     8.874
    61   6 C        3.076     0.048    26.853     8.496
    62   6 C        2.921    -0.043    29.074     8.842
    63   6 C        2.924    -0.033    28.820     8.804
    64   6 C        3.056     0.004    27.889     8.661
    65   6 C        2.914    -0.034    28.858     8.809
    66   6 C        2.922    -0.033    28.822     8.804
    67   6 C        2.921    -0.033    28.829     8.805
    68   6 C        2.914    -0.035    28.864     8.810
    69   6 C        3.034     0.001    27.979     8.676
    70   6 C        3.034     0.000    27.986     8.677
    71   6 C        2.914    -0.035    28.866     8.810
    72   6 C        2.921    -0.033    28.827     8.805
    73   6 C        2.922    -0.033    28.814     8.803
    74   6 C        2.914    -0.034    28.849     8.808
    75   6 C        3.057     0.004    27.889     8.661
    76   6 C        2.922    -0.035    28.877     8.812
    77   6 C        2.924    -0.034    28.856     8.809
    78   6 C        2.918    -0.036    28.901     8.816
    79   6 C        3.053    -0.021    28.472     8.751
    80   1 H        0.926     0.045     2.378     2.412
    81   1 H        0.926     0.048     2.348     2.396
    82   1 H        0.926     0.048     2.342     2.393
    83   1 H        0.926     0.045     2.379     2.412
    84   1 H        0.925     0.048     2.347     2.396
    85   1 H        0.925     0.043     2.407     2.426
    86   1 H        0.926     0.047     2.358     2.401
    87   1 H        0.926     0.050     2.326     2.385
    88   1 H        0.926     0.047     2.353     2.399
    89   1 H        0.925     0.038     2.470     2.458
    90   1 H        0.926     0.056     2.246     2.343
    91   1 H        0.926     0.057     2.232     2.336
    92   1 H        0.926     0.058     2.219     2.329
    93   1 H        0.925     0.038     2.480     2.463
    94   1 H        0.926     0.046     2.369     2.407
    95   1 H        0.926     0.048     2.339     2.391
    96   1 H        0.926     0.043     2.403     2.424
    97   1 H        0.925     0.032     2.563     2.504
    98   1 H        0.925     0.050     2.320     2.382
    99   1 H        0.926     0.045     2.387     2.416
   100   1 H        0.926     0.046     2.369     2.407
   101   1 H        0.926     0.044     2.397     2.421
   102   1 H        0.926     0.060     2.196     2.318
   103   1 H        0.926     0.063     2.166     2.302
   104   1 H        0.926     0.035     2.511     2.478
   105   1 H        0.926     0.036     2.502     2.473
   106   1 H        0.926     0.038     2.470     2.458
   107   1 H        0.926     0.041     2.431     2.438
   108   1 H        0.926     0.029     2.599     2.521
   109   1 H        0.926     0.029     2.600     2.522
   110   1 H        0.926     0.027     2.630     2.536
   111   1 H        0.926     0.029     2.595     2.519
   112   1 H        0.926     0.029     2.595     2.519
   113   1 H        0.926     0.027     2.627     2.535
   114   1 H        0.926     0.029     2.597     2.520
   115   1 H        0.926     0.029     2.601     2.522
   116   1 H        0.926     0.042     2.416     2.431
   117   1 H        0.926     0.041     2.430     2.438
   118   1 H        0.926     0.032     2.553     2.499
   119   1 H        0.926     0.033     2.545     2.495
   120   1 H        0.926     0.032     2.552     2.498
   121   1 H        0.926     0.033     2.539     2.492
   122   1 H        0.926     0.034     2.534     2.489
   123   1 H        0.926     0.032     2.554     2.499
   124   1 H        0.926     0.032     2.559     2.501
   125   1 H        0.926     0.031     2.571     2.507
   126   1 H        0.926     0.036     2.502     2.474
   127   1 H        0.926     0.038     2.477     2.461
   128   1 H        0.926     0.060     2.202     2.320

molecular dipole:
                 x           y           z       tot (Debye)
 q only:        1.705      -0.001       3.164
   full:        1.938       0.048       3.309       9.746

 projected vibrational frequencies (cm⁻¹)
eigval :       -0.00    -0.00    -0.00     0.00     0.00     0.00
eigval :        1.69     5.85     7.19     9.94    13.48    14.90
eigval :       16.11    21.86    25.60    29.54    30.59    32.86
eigval :       36.94    37.35    40.98    48.05    50.09    51.84
eigval :       53.79    57.82    62.86    64.09    69.15    78.15
eigval :       83.62    85.35    89.54    93.82   101.77   105.14
eigval :      129.06   135.62   142.96   144.76   153.55   156.06
eigval :      158.74   165.56   173.58   177.82   193.44   195.80
eigval :      198.55   213.12   222.56   229.33   232.36   233.47
eigval :      241.03   247.79   252.33   264.36   270.24   270.76
eigval :      274.05   278.23   282.53   295.81   304.15   313.47
eigval :      327.96   346.15   357.93   362.08   362.40   364.01
eigval :      366.51   366.61   376.71   385.06   387.57   389.47
eigval :      391.76   395.34   405.84   412.96   414.50   419.28
eigval :      421.43   423.90   433.52   436.74   450.36   457.91
eigval :      468.15   474.92   477.99   494.11   500.20   504.15
eigval :      506.70   513.30   518.30   520.99   527.69   533.48
eigval :      537.09   539.51   540.58   556.29   572.19   581.02
eigval :      584.93   585.16   585.45   586.12   587.79   593.62
eigval :      596.02   596.51   603.55   618.27   619.50   627.60
eigval :      636.44   656.62   657.43   659.18   660.75   672.13
eigval :      672.62   673.50   683.72   686.54   690.09   693.23
eigval :      699.28   706.96   710.71   715.25   716.84   723.95
eigval :      727.18   730.37   741.63   744.02   746.10   746.85
eigval :      753.67   756.20   765.67   767.64   778.39   784.11
eigval :      793.26   798.03   811.23   820.30   844.81   853.17
eigval :      863.77   866.48   870.42   872.38   875.28   877.43
eigval :      879.82   880.78   880.82   880.93   883.32   891.37
eigval :      892.32   896.02   899.40   899.83   900.04   900.97
eigval :      902.17   904.37   905.34   907.45   908.97   913.02
eigval :      914.17   916.13   917.39   920.90   922.69   924.51
eigval :      925.04   926.80   928.41   929.19   930.73   931.94
eigval :      932.33   933.82   935.88   935.98   936.94   937.03
eigval :      942.30   955.55   971.14   971.98   974.90   975.44
eigval :     1006.51  1011.03  1013.53  1025.67  1063.79  1067.86
eigval :     1070.91  1074.51  1075.72  1076.71  1077.12  1077.88
eigval :     1079.85  1088.74  1099.41  1106.91  1112.24  1112.59
eigval :     1113.24  1114.37  1117.00  1120.85  1122.27  1126.08
eigval :     1130.63  1140.05  1142.55  1145.64  1150.34  1163.14
eigval :     1173.71  1174.78  1175.31  1175.95  1178.70  1178.95
eigval :     1179.95  1180.34  1180.73  1181.67  1183.75  1186.41
eigval :     1187.84  1189.34  1189.99  1191.44  1201.73  1203.29
eigval :     1206.45  1216.13  1223.83  1224.59  1225.85  1232.22
eigval :     1234.92  1235.92  1239.40  1248.24  1253.05  1261.98
eigval :     1268.55  1268.74  1270.51  1270.65  1271.86  1275.60
eigval :     1284.07  1299.46  1302.33  1306.14  1313.15  1319.85
eigval :     1319.98  1320.25  1321.34  1321.83  1324.87  1337.18
eigval :     1349.52  1355.41  1360.62  1364.01  1365.27  1378.37
eigval :     1390.63  1400.95  1406.79  1420.65  1422.66  1422.81
eigval :     1425.18  1426.71  1427.13  1429.43  1430.76  1449.79
eigval :     1450.30  1450.94  1452.77  1456.36  1460.35  1470.51
eigval :     1470.84  1474.47  1487.05  1490.74  1497.39  1553.92
eigval :     1565.14  1569.08  1574.12  1579.52  1580.22  1581.38
eigval :     1582.22  1583.32  1583.76  1584.44  1584.53  1586.46
eigval :     1586.69  1587.16  1588.86  1592.62  1596.52  1596.77
eigval :     1596.99  1601.60  1602.65  1607.18  1613.03  3043.16
eigval :     3056.32  3062.22  3064.30  3067.31  3067.87  3069.16
eigval :     3069.55  3069.93  3070.20  3070.32  3074.12  3074.98
eigval :     3075.27  3075.95  3076.01  3076.69  3076.81  3076.98
eigval :     3078.13  3078.49  3079.69  3080.53  3081.47  3082.34
eigval :     3082.36  3083.08  3083.36  3083.83  3083.94  3084.42
eigval :     3085.10  3085.88  3086.14  3089.05  3089.58  3089.87
eigval :     3090.69  3091.58  3092.04  3092.35  3092.39  3093.31
eigval :     3094.30  3096.09  3098.12  3101.40  3104.80  3105.79

   temp. (K)  partition function   enthalpy   heat capacity  entropy
                                   cal/mol     cal/K/mol   cal/K/mol   J/K/mol
 298.15  VIB  0.267E+35            39308.889    238.433    251.984
         ROT  0.462E+09              888.752      2.981     42.630
         INT  0.123E+44            40197.641    241.414    294.614
         TR   0.329E+29             1481.254      4.968     46.706
         TOT                       41678.8950   246.3825   341.3200  1428.0829

       T/K    H(0)-H(T)+PV         H(T)/Eh          T*S/Eh         G(T)/Eh
   ------------------------------------------------------------------------
    298.15    0.664195E-01    0.103893E+01    0.162172E+00    0.876760E+00
   ------------------------------------------------------------------------

         :::::::::::::::::::::::::::::::::::::::::::::::::::::
         ::                  THERMODYNAMIC                  ::
         :::::::::::::::::::::::::::::::::::::::::::::::::::::
         :: total free energy        -200.837994201665 Eh   ::
         ::.................................................::
         :: total energy             -201.714754217684 Eh   ::
         :: zero point energy           0.972512619863 Eh   ::
         :: G(RRHO) w/o ZPVE           -0.095752603845 Eh   ::
         :: G(RRHO) contrib.            0.876760016018 Eh   ::
         :::::::::::::::::::::::::::::::::::::::::::::::::::::

           -------------------------------------------------
          | TOTAL ENERGY             -201.714754217684 Eh   |
          | TOTAL ENTHALPY           -200.675822050795 Eh   |
          | TOTAL FREE ENERGY        -200.837994201665 Eh   |
          | GRADIENT NORM               0.000059578069 Eh/α |
          | HOMO-LUMO GAP               2.341195817714 eV   |
           -------------------------------------------------

 * finished run on 2025/07/17 at 15:56:16.566
