   * xtb version 6.7.1 (edcfbbe) compiled by 'albert@albert-system' on 2024-07-22

   ID    Z sym.   atoms
    1    6 C      1-10, 12-21, 23-25, 27-56, 58-66
    2    5 B      11
    3    8 O      22, 67
    4    7 N      26, 57
    5    1 H      68-116

          program call               : xtb data2507/toluene/TRZ-pIC/TRZ-pIC_toluene_T1_crest.xyz --gfn 2 --uhf 2 --gbsa toluene --ohess vtight --parallel 40 --molden --ceasefiles --namespace data2507/toluene/TRZ-pIC/TRZ-pIC_toluene_T1_finalOpt
      * Solvation model:               GBSA
        Solvent                        toluene
        Solvent mass                       9.2140E+01 g/mol
          :  Hamiltonian                  GFN2-xTB          :
 * total energy  :  -173.1018669 Eh     change       -0.1967729E-07 Eh
 * total energy  :  -173.1019637 Eh     change       -0.9683320E-04 Eh
 * total energy  :  -173.1020491 Eh     change       -0.8532192E-04 Eh
 * total energy  :  -173.1020944 Eh     change       -0.4538848E-04 Eh
 * total energy  :  -173.1021339 Eh     change       -0.3950215E-04 Eh
 * total energy  :  -173.1021752 Eh     change       -0.4127287E-04 Eh
 * total energy  :  -173.1021914 Eh     change       -0.1622912E-04 Eh
 * total energy  :  -173.1022005 Eh     change       -0.9079188E-05 Eh
 * total energy  :  -173.1022091 Eh     change       -0.8587749E-05 Eh
 * total energy  :  -173.1022131 Eh     change       -0.4032201E-05 Eh
 * total energy  :  -173.1024566 Eh     change       -0.3838042E-06 Eh
 * total energy  :  -173.1024570 Eh     change       -0.3647474E-06 Eh
 * total energy  :  -173.1024573 Eh     change       -0.3342831E-06 Eh
 * total energy  :  -173.1024576 Eh     change       -0.2886558E-06 Eh
 * total energy  :  -173.1024579 Eh     change       -0.2682124E-06 Eh
 * total energy  :  -173.1024582 Eh     change       -0.3331460E-06 Eh
 * total energy  :  -173.1024587 Eh     change       -0.5191743E-06 Eh
 * total energy  :  -173.1024594 Eh     change       -0.6821325E-06 Eh
 * total energy  :  -173.1024594 Eh     change       -0.2602633E-08 Eh
   *** GEOMETRY OPTIMIZATION CONVERGED AFTER 122 ITERATIONS ***

 final structure:
================
116
 xtb: 6.7.1 (edcfbbe)
C            9.30587510552310       -2.17789539362437       -2.71603285731424
C            8.86018828079076       -2.33132037092981       -1.25403702522766
C            9.49356221158365       -1.19835491987483       -0.44100144889436
C            9.37340673695385       -3.66538762835573       -0.69157569007079
C            7.33883226435137       -2.31875280733730       -1.19676839742760
C            6.62194458566851       -3.30626095555659       -1.87685596301343
C            5.24564155025688       -3.34350529755842       -1.82520341465394
C            4.54229518070347       -2.38237560021098       -1.10416885110262
C            5.21309812778882       -1.34172883713088       -0.43684080220318
C            6.61555904468576       -1.36766670100360       -0.49957956159729
B            4.34152233341375       -0.30319174548667        0.31061873850962
C            4.65960159940367        1.03048077048640        1.02993894906771
C            5.88692020050173        1.71234055160544        1.02565769226807
C            6.11564024678754        2.89249976866644        1.71056584174538
C            7.45527753966774        3.61595920881046        1.69997031376304
C            8.50061480973834        2.91664479854449        0.82591156425895
C            7.25547033187589        5.03887530623693        1.15699863123826
C            7.99788429682191        3.67952394730304        3.13554930293199
C            5.05639075798840        3.42850249184498        2.44673548844708
C            3.82239749952139        2.81581385831283        2.45957587636850
C            3.61435508148928        1.63626029962240        1.74984656308446
O            2.33202532996421        1.15491195138569        1.82149280321301
C            1.93911003530729        0.08362780221329        1.09194998315508
C            0.59021099818994       -0.23482743448202        1.12145650878719
C            0.12901556083048       -1.30582925877635        0.36122768491723
N           -1.24368411656718       -1.60149088309058        0.34377456506262
C           -1.77531958801668       -2.79493488955057        0.77719260146263
C           -1.11694782463962       -3.92868176257543        1.22370644088003
C           -1.88779370631556       -5.02105421501474        1.58705474705906
C           -3.28007901120703       -4.97141305350945        1.49644003650735
C           -3.94394850046310       -3.83393738412543        1.07990914309304
C           -3.19628345525904       -2.70632007972636        0.73196485513747
C           -3.50543940247242       -1.38964293957506        0.27646575074945
C           -4.73571248801288       -0.71832179663747        0.07657134353130
C           -6.01717170448971       -1.35580521284733        0.37810072395858
C           -6.30903714956401       -1.79648456487019        1.67019766561935
C           -7.52554502575192       -2.38718344401395        1.95138768161392
C           -8.46493430695461       -2.56455772494160        0.94759713309554
C           -8.17724198517180       -2.14717179504929       -0.34293367467158
C           -6.96840938577292       -1.54379622457954       -0.62620010262181
C           -4.63093176614384        0.57995287975315       -0.45486804851687
C           -3.39701182326246        1.16511529936542       -0.85119182010988
C           -2.16581921921484        0.51198987949529       -0.61297660763996
C           -0.88875109728466        1.12295931570898       -0.99141541046143
C           -0.48278941157123        2.32819475337353       -0.41766181158386
C            0.73610826564413        2.88759270093162       -0.74960737113269
C            1.56280118829519        2.26319709150984       -1.66948493434722
C            1.15597637477159        1.07907868861300       -2.26516316917945
C           -0.05796669609781        0.51223470874442       -1.93090858320837
C           -2.26454741508680       -0.75237714419905       -0.00652595689436
C           -3.71212054986823        2.41617956591100       -1.46381328744257
C           -2.97458258045076        3.41138668366410       -2.10816101358913
C           -3.63582916229129        4.52884710891810       -2.58098183892417
C           -5.01200353188678        4.69118398724405       -2.42110635657900
C           -5.77378299003308        3.71150208220964       -1.80338028136216
C           -5.12147742320131        2.57536823398959       -1.35513492061204
N           -5.64620853337189        1.46171257067857       -0.73235435774657
C           -6.98937246370890        1.37786001524796       -0.32125392216600
C           -7.29358232142869        1.26111348590390        1.03143864838643
C           -8.61357071862273        1.21296991743494        1.43587245992263
C           -9.63374750082573        1.29001946065573        0.50115182747869
C           -9.33053685592459        1.41882917272028       -0.84390092426950
C           -8.01223299749006        1.46590406853226       -1.25933790001893
C            1.01365295654156       -2.09172222018866       -0.37158918458497
C            2.36390125699603       -1.77078105430291       -0.36858676034764
C            2.86088290472146       -0.67014662207461        0.34699824524770
O            3.18151556934889       -2.55726617775136       -1.11032585355053
H           10.39224374140481       -2.16382877341678       -2.77725935796495
H            8.92385341919259       -1.24636808316608       -3.12940574252727
H            8.94095820925138       -2.99709620729061       -3.32964724938930
H           10.57767422870900       -1.26469477530218       -0.51089335169194
H            9.21934939688399       -1.27133310380822        0.60902136337212
H            9.19184120897235       -0.22675261683456       -0.82446308746498
H           10.46128570353856       -3.68576383070447       -0.70996125965643
H            9.00810118017408       -4.50838069371577       -1.27169026044266
H            9.04251277705211       -3.79110079994311        0.33770740510987
H            7.13651317541539       -4.06593284847573       -2.44507593728168
H            4.68990311554821       -4.11858920899926       -2.33263172787393
H            7.13836580927022       -0.60441564812806        0.04813049385598
H            6.67748930039545        1.28296252858113        0.43686408685137
H            9.42972804427379        3.48303446531522        0.84963953941033
H            8.16894124334068        2.85811519051061       -0.20833498186177
H            8.70960579897262        1.91495771913583        1.19333488233724
H            6.57242451741222        5.60992619208158        1.77979074310118
H            8.20757986012710        5.56496048609678        1.12601032636878
H            6.84767361283854        5.00236117962640        0.14851509860831
H            7.32238270611023        4.22298958840701        3.79065762993412
H            8.96367664556088        4.18077166013259        3.14973658175903
H            8.12368738468401        2.67472563212237        3.53443804800589
H            5.18444197213836        4.34051252642225        3.00952854582358
H            2.99533418286993        3.23956726435604        3.01036617103100
H           -0.09021809618583        0.35599576787925        1.71338627147848
H           -0.03962817472815       -3.95899520307978        1.28187599075718
H           -1.40652735604837       -5.92228516206357        1.93500874359339
H           -3.85300668326390       -5.84725338546913        1.76514117405125
H           -5.01983849468669       -3.82193244339856        1.01896397338648
H           -5.57817818516573       -1.65464920923673        2.45333768428986
H           -7.74256278271030       -2.71206692090423        2.95897188778522
H           -9.41420739421090       -3.02984184153157        1.16816581180726
H           -8.89930167402704       -2.29657152285604       -1.13255598772391
H           -6.73959779169844       -1.23523713211386       -1.63624275451920
H           -1.12305627741842        2.81004891789805        0.30735769901887
H            1.04588403687798        3.81313782834523       -0.28599504929206
H            2.51924806905292        2.69669136575846       -1.92213743234355
H            1.79121729261186        0.59567094109321       -2.99353212280593
H           -0.37697067408161       -0.40515067233022       -2.40457174907592
H           -1.90963967763604        3.30956945227382       -2.23903470381769
H           -3.07137555415336        5.30185980857912       -3.08242735498784
H           -5.49022224686834        5.58660668828202       -2.78766783008234
H           -6.83881774864353        3.83243052115615       -1.67782538852799
H           -6.49306259441687        1.21511059451279        1.75427683288562
H           -8.84637717238393        1.12181526489302        2.48599595752533
H          -10.66374965488949        1.25172484437680        0.82168933043662
H          -10.12285653514941        1.47983086774348       -1.57491329598930
H           -7.76815691948809        1.55076263847992       -2.30790470361839
H            0.65827941602965       -2.92037324771870       -0.96378329843415

          :  Hamiltonian                  GFN2-xTB          :
         :: gradient norm              0.000039648756 Eh/a0 ::
         :: HOMO-LUMO gap              0.083877017143 eV    ::
         :: SCC energy              -176.150674414154 Eh    ::
         :: -> dispersion             -0.180273259677 Eh    ::
         :: -> Gsolv                  -0.062453100988 Eh    ::
         :: repulsion energy           3.048215003100 Eh    ::

    * Orbital Energies and Occupations

         #    Occupation            Energy/Eh            Energy/eV
      -------------------------------------------------------------
         1        2.0000           -0.7238222             -19.6962
       ...           ...                  ...                  ...
       150        2.0000           -0.4019887             -10.9387
       151        2.0000           -0.3979131             -10.8278
       152        2.0000           -0.3930653             -10.6959
       153        2.0000           -0.3919094             -10.6644
       154        2.0000           -0.3902817             -10.6201
       155        2.0000           -0.3847420             -10.4694
       156        2.0000           -0.3839484             -10.4478
       157        2.0000           -0.3797743             -10.3342
       158        2.0000           -0.3762139             -10.2373
       159        2.0000           -0.3695499             -10.0560
       160        1.9693           -0.3626891              -9.8693
       161        1.0308           -0.3561331              -9.6909
       162        0.8351           -0.2665838              -7.2541 (HOMO)
       163        0.1649           -0.2635014              -7.1702 (LUMO)
       164                         -0.2422624              -6.5923
       165                         -0.2369235              -6.4470
       166                         -0.2350520              -6.3961
       167                         -0.2304609              -6.2712
       168                         -0.2278852              -6.2011
       169                         -0.2275235              -6.1912
       170                         -0.2221634              -6.0454
       171                         -0.2208745              -6.0103
       172                         -0.2173376              -5.9141
       173                         -0.2161657              -5.8822
       ...                                ...                  ...
       317                          0.7332923              19.9539
      -------------------------------------------------------------
                  HL-Gap            0.0030824 Eh            0.0839 eV

     #   Z          covCN         q      C6AA      α(0)
     1   6 C        3.761    -0.105    22.556     6.770
     2   6 C        3.902     0.025    20.105     6.374
     3   6 C        3.761    -0.108    22.604     6.778
     4   6 C        3.761    -0.105    22.556     6.770
     5   6 C        2.968    -0.001    28.051     8.687
     6   6 C        2.927    -0.038    28.953     8.824
     7   6 C        2.913    -0.060    29.503     8.907
     8   6 C        2.875     0.128    25.193     8.228
     9   6 C        2.881    -0.094    30.350     9.032
    10   6 C        2.931    -0.050    29.242     8.868
    11   5 B        2.723     0.192    18.506     7.209
    12   6 C        2.881    -0.094    30.354     9.032
    13   6 C        2.931    -0.050    29.239     8.868
    14   6 C        2.968    -0.001    28.055     8.688
    15   6 C        3.902     0.025    20.103     6.373
    16   6 C        3.761    -0.108    22.603     6.777
    17   6 C        3.761    -0.105    22.553     6.770
    18   6 C        3.761    -0.105    22.556     6.770
    19   6 C        2.927    -0.038    28.952     8.824
    20   6 C        2.913    -0.060    29.493     8.905
    21   6 C        2.875     0.129    25.173     8.225
    22   8 O        1.711    -0.250    18.135     5.750
    23   6 C        2.873     0.136    25.026     8.201
    24   6 C        2.916    -0.079    29.986     8.980
    25   6 C        2.917     0.055    26.762     8.483
    26   7 N        2.808    -0.003    21.313     6.857
    27   6 C        3.076     0.042    26.989     8.518
    28   6 C        2.908    -0.046    29.132     8.850
    29   6 C        2.922    -0.043    29.080     8.843
    30   6 C        2.918    -0.032    28.792     8.799
    31   6 C        2.910    -0.042    29.054     8.839
    32   6 C        3.061    -0.012    28.246     8.715
    33   6 C        3.067    -0.038    28.872     8.811
    34   6 C        2.961    -0.011    28.287     8.724
    35   6 C        2.974     0.012    27.746     8.640
    36   6 C        2.924    -0.032    28.800     8.801
    37   6 C        2.918    -0.031    28.765     8.795
    38   6 C        2.920    -0.034    28.850     8.808
    39   6 C        2.918    -0.031    28.768     8.795
    40   6 C        2.924    -0.035    28.871     8.812
    41   6 C        3.062     0.041    27.021     8.524
    42   6 C        3.068    -0.037    28.852     8.808
    43   6 C        2.961    -0.009    28.234     8.715
    44   6 C        2.974     0.013    27.714     8.635
    45   6 C        2.924    -0.031    28.762     8.795
    46   6 C        2.918    -0.028    28.711     8.787
    47   6 C        2.920    -0.034    28.839     8.806
    48   6 C        2.918    -0.031    28.776     8.797
    49   6 C        2.924    -0.035    28.872     8.812
    50   6 C        3.065     0.041    27.012     8.523
    51   6 C        3.061    -0.011    28.236     8.714
    52   6 C        2.911    -0.042    29.042     8.837
    53   6 C        2.918    -0.032    28.792     8.799
    54   6 C        2.922    -0.043    29.063     8.841
    55   6 C        2.908    -0.047    29.176     8.857
    56   6 C        3.076     0.042    26.989     8.518
    57   7 N        2.807    -0.007    21.387     6.869
    58   6 C        2.916     0.063    26.580     8.454
    59   6 C        2.922    -0.035    28.865     8.810
    60   6 C        2.920    -0.025    28.620     8.773
    61   6 C        2.920    -0.028    28.697     8.785
    62   6 C        2.920    -0.026    28.640     8.776
    63   6 C        2.922    -0.037    28.913     8.818
    64   6 C        2.915    -0.081    30.023     8.985
    65   6 C        2.872     0.135    25.041     8.203
    66   6 C        2.887    -0.125    31.182     9.155
    67   8 O        1.711    -0.250    18.136     5.750
    68   1 H        0.925     0.039     2.465     2.455
    69   1 H        0.925     0.033     2.547     2.496
    70   1 H        0.925     0.035     2.513     2.479
    71   1 H        0.925     0.038     2.480     2.463
    72   1 H        0.925     0.036     2.506     2.475
    73   1 H        0.925     0.038     2.474     2.460
    74   1 H        0.925     0.039     2.469     2.457
    75   1 H        0.925     0.035     2.513     2.479
    76   1 H        0.925     0.032     2.559     2.501
    77   1 H        0.926     0.032     2.559     2.502
    78   1 H        0.926     0.032     2.558     2.501
    79   1 H        0.926     0.046     2.366     2.405
    80   1 H        0.926     0.046     2.369     2.407
    81   1 H        0.925     0.038     2.481     2.463
    82   1 H        0.925     0.036     2.507     2.476
    83   1 H        0.925     0.038     2.476     2.461
    84   1 H        0.925     0.035     2.511     2.478
    85   1 H        0.925     0.038     2.471     2.458
    86   1 H        0.925     0.032     2.559     2.502
    87   1 H        0.925     0.035     2.513     2.479
    88   1 H        0.925     0.039     2.466     2.456
    89   1 H        0.925     0.033     2.549     2.497
    90   1 H        0.926     0.032     2.558     2.501
    91   1 H        0.926     0.032     2.560     2.502
    92   1 H        0.926     0.045     2.380     2.412
    93   1 H        0.926     0.031     2.568     2.506
    94   1 H        0.926     0.030     2.580     2.512
    95   1 H        0.926     0.033     2.548     2.496
    96   1 H        0.926     0.035     2.517     2.481
    97   1 H        0.926     0.033     2.551     2.498
    98   1 H        0.926     0.033     2.548     2.496
    99   1 H        0.926     0.031     2.567     2.506
   100   1 H        0.926     0.031     2.568     2.506
   101   1 H        0.926     0.026     2.640     2.541
   102   1 H        0.926     0.033     2.541     2.493
   103   1 H        0.926     0.032     2.563     2.503
   104   1 H        0.926     0.028     2.616     2.529
   105   1 H        0.926     0.027     2.625     2.533
   106   1 H        0.926     0.026     2.639     2.541
   107   1 H        0.926     0.031     2.571     2.507
   108   1 H        0.926     0.031     2.570     2.507
   109   1 H        0.926     0.032     2.561     2.502
   110   1 H        0.926     0.035     2.511     2.478
   111   1 H        0.926     0.043     2.407     2.426
   112   1 H        0.926     0.047     2.364     2.404
   113   1 H        0.926     0.047     2.361     2.403
   114   1 H        0.926     0.048     2.341     2.393
   115   1 H        0.926     0.048     2.341     2.392
   116   1 H        0.926     0.049     2.333     2.389

molecular dipole:
                 x           y           z       tot (Debye)
 q only:       -2.280       0.699       0.012
   full:       -2.373       0.611       0.016       6.229

 projected vibrational frequencies (cm⁻¹)
eigval :       -0.00    -0.00    -0.00    -0.00     0.00     0.00
eigval :        7.95     9.67    11.43    14.85    20.24    24.31
eigval :       29.44    36.78    40.98    45.69    50.41    53.39
eigval :       58.86    62.04    64.11    67.89    71.63    80.72
eigval :       86.01    92.91    98.21   105.47   113.10   116.59
eigval :      126.30   136.28   137.82   150.68   157.16   174.92
eigval :      179.02   182.20   191.92   196.97   209.62   211.05
eigval :      222.01   222.19   226.29   227.41   229.31   235.23
eigval :      243.81   249.81   256.83   264.00   267.68   273.87
eigval :      281.16   288.16   299.11   316.95   317.76   318.26
eigval :      327.71   334.62   345.78   359.95   364.55   367.27
eigval :      373.12   376.32   378.61   381.33   382.99   384.28
eigval :      394.74   397.52   407.06   411.72   411.91   431.13
eigval :      431.62   441.27   443.37   458.49   460.95   470.67
eigval :      474.94   487.46   495.16   512.54   515.04   516.28
eigval :      517.09   524.91   531.53   545.16   564.17   568.25
eigval :      575.48   576.91   579.74   582.40   587.89   590.09
eigval :      592.33   600.69   601.26   610.81   619.78   623.42
eigval :      639.96   644.69   648.38   656.42   659.77   662.28
eigval :      667.89   672.33   681.13   685.54   687.75   691.65
eigval :      697.48   708.51   711.20   719.61   728.60   745.49
eigval :      752.42   755.73   758.45   770.10   780.57   784.35
eigval :      817.80   819.82   822.74   825.88   830.15   846.92
eigval :      852.03   852.37   858.30   863.40   867.35   872.06
eigval :      874.47   876.10   877.20   878.15   886.05   886.39
eigval :      888.95   896.52   899.94   901.08   907.46   908.11
eigval :      909.04   910.32   911.58   924.95   928.09   929.15
eigval :      929.35   930.85   931.78   931.98   937.22   958.62
eigval :      959.61   959.88   962.00   962.17   962.80   963.10
eigval :      967.42   974.37   991.32  1016.69  1024.71  1033.98
eigval :     1034.98  1035.44  1035.83  1064.09  1065.09  1067.52
eigval :     1074.84  1077.55  1078.97  1081.13  1095.27  1102.71
eigval :     1109.22  1115.39  1117.98  1120.68  1131.37  1133.94
eigval :     1135.15  1138.33  1152.72  1159.39  1174.12  1176.22
eigval :     1176.74  1178.02  1180.68  1182.17  1184.62  1187.12
eigval :     1194.08  1196.56  1199.81  1211.16  1212.57  1225.53
eigval :     1225.77  1227.68  1228.58  1230.73  1237.40  1241.09
eigval :     1242.60  1245.24  1266.66  1270.62  1275.34  1277.70
eigval :     1277.98  1279.81  1288.99  1290.63  1293.77  1299.50
eigval :     1313.73  1314.61  1316.31  1318.57  1319.61  1320.53
eigval :     1329.00  1349.15  1364.77  1372.05  1377.42  1382.83
eigval :     1385.18  1389.33  1393.64  1397.40  1401.57  1401.69
eigval :     1403.23  1404.04  1405.42  1415.32  1424.36  1425.10
eigval :     1426.61  1427.04  1427.97  1434.00  1439.55  1443.26
eigval :     1449.04  1459.26  1463.98  1465.97  1469.98  1471.50
eigval :     1480.62  1488.76  1488.78  1492.08  1492.58  1496.97
eigval :     1500.00  1501.10  1501.79  1510.81  1511.45  1512.69
eigval :     1516.49  1518.96  1521.76  1540.63  1541.27  1544.71
eigval :     1548.73  1556.75  1557.95  1559.25  1561.23  1570.30
eigval :     1578.14  1578.86  1580.76  1587.78  1588.12  3018.54
eigval :     3019.09  3019.23  3019.62  3023.16  3023.67  3024.32
eigval :     3024.48  3026.55  3026.75  3031.55  3032.19  3036.62
eigval :     3038.14  3041.20  3044.05  3046.34  3047.09  3067.79
eigval :     3067.97  3068.55  3069.35  3073.78  3074.23  3075.08
eigval :     3075.13  3076.97  3077.18  3079.99  3080.22  3080.73
eigval :     3083.56  3083.80  3084.76  3088.06  3088.78  3089.84
eigval :     3090.01  3090.17  3094.30  3095.14  3096.25  3101.06
eigval :     3101.20  3106.87  3112.78  3113.21  3140.41  3146.65

   temp. (K)  partition function   enthalpy   heat capacity  entropy
                                   cal/mol     cal/K/mol   cal/K/mol   J/K/mol
 298.15  VIB  0.207E+27            33998.794    213.187    211.779
         ROT  0.199E+09              888.752      2.981     40.957
         INT  0.413E+35            34887.547    216.168    252.736
         TR   0.246E+29             1481.254      4.968     46.128
         TOT                       36368.8006   221.1357   298.8634  1250.4444

       T/K    H(0)-H(T)+PV         H(T)/Eh          T*S/Eh         G(T)/Eh
   ------------------------------------------------------------------------
    298.15    0.579574E-01    0.969847E+00    0.142000E+00    0.827847E+00
   ------------------------------------------------------------------------

         :::::::::::::::::::::::::::::::::::::::::::::::::::::
         ::                  THERMODYNAMIC                  ::
         :::::::::::::::::::::::::::::::::::::::::::::::::::::
         :: total free energy        -172.274612316783 Eh   ::
         ::.................................................::
         :: total energy             -173.102459412097 Eh   ::
         :: zero point energy           0.911889356789 Eh   ::
         :: G(RRHO) w/o ZPVE           -0.084042261475 Eh   ::
         :: G(RRHO) contrib.            0.827847095314 Eh   ::
         :::::::::::::::::::::::::::::::::::::::::::::::::::::

           -------------------------------------------------
          | TOTAL ENERGY             -173.102459412097 Eh   |
          | TOTAL ENTHALPY           -172.132612682353 Eh   |
          | TOTAL FREE ENERGY        -172.274612316783 Eh   |
          | GRADIENT NORM               0.000039580889 Eh/α |
          | HOMO-LUMO GAP               0.083877320343 eV   |
           -------------------------------------------------

 * finished run on 2025/07/18 at 03:40:36.319
