   * xtb version 6.7.1 (edcfbbe) compiled by 'albert@albert-system' on 2024-07-22

   ID    Z sym.   atoms
    1    6 C      1-10, 12-21, 23-25, 27-56, 58-66
    2    5 B      11
    3    8 O      22, 67
    4    7 N      26, 57
    5    1 H      68-116

          program call               : xtb data2507/toluene/TRZ-pIC/TRZ-pIC.xyz --gfn 2 --gbsa toluene --ohess vtight --parallel 40 --molden --ceasefiles --namespace data2507/toluene/TRZ-pIC/TRZ-pIC_toluene_S0_preOpt
      * Solvation model:               GBSA
        Solvent                        toluene
        Solvent mass                       9.2140E+01 g/mol
          :  Hamiltonian                  GFN2-xTB          :
 * total energy  :  -173.0733998 Eh     change       -0.7356164E-08 Eh
 * total energy  :  -173.1338712 Eh     change       -0.6047144E-01 Eh
 * total energy  :  -173.1565464 Eh     change       -0.2267516E-01 Eh
 * total energy  :  -173.1647223 Eh     change       -0.8175912E-02 Eh
 * total energy  :  -173.1694126 Eh     change       -0.4690270E-02 Eh
 * total energy  :  -173.1727871 Eh     change       -0.3374555E-02 Eh
 * total energy  :  -173.1754711 Eh     change       -0.2683982E-02 Eh
 * total energy  :  -173.1776939 Eh     change       -0.2222758E-02 Eh
 * total energy  :  -173.1794360 Eh     change       -0.1742101E-02 Eh
 * total energy  :  -173.1806385 Eh     change       -0.1202512E-02 Eh
 * total energy  :  -173.1885902 Eh     change       -0.1632216E-05 Eh
 * total energy  :  -173.1885917 Eh     change       -0.1460438E-05 Eh
 * total energy  :  -173.1885930 Eh     change       -0.1261474E-05 Eh
 * total energy  :  -173.1885940 Eh     change       -0.1069717E-05 Eh
 * total energy  :  -173.1885950 Eh     change       -0.9503352E-06 Eh
 * total energy  :  -173.1885959 Eh     change       -0.9029325E-06 Eh
 * total energy  :  -173.1885968 Eh     change       -0.9083450E-06 Eh
 * total energy  :  -173.1885977 Eh     change       -0.9439665E-06 Eh
 * total energy  :  -173.1885977 Eh     change       -0.6662702E-08 Eh
   *** GEOMETRY OPTIMIZATION CONVERGED AFTER 185 ITERATIONS ***

 final structure:
================
116
 xtb: 6.7.1 (edcfbbe)
C            8.06577150076590       -1.13796799915159       -3.02568390625568
C            7.37203445212418        0.19391859031408       -3.34949644184234
C            7.61326457531715        0.51087139137651       -4.82853945949333
C            7.99440194498083        1.32142880481125       -2.51280858211721
C            5.89295568228094        0.07184805483093       -3.00960318013731
C            4.88415846651949        0.18979912122349       -3.96671065946114
C            3.56061639336772        0.02289209738061       -3.62362850616012
C            3.19941518488504       -0.25368167875621       -2.30633321846298
C            4.17556235286357       -0.32555739052019       -1.29601641731004
C            5.50680072572861       -0.17828626198183       -1.70280471255532
B            3.67433107190950       -0.58424786585936        0.14480382636496
C            4.36455159547781       -0.54912584972892        1.52954707390562
C            5.64432578488750       -0.05758635249271        1.81224272248588
C            6.21408888743675       -0.06522575734342        3.07512292965782
C            7.60318214203700        0.52329819602259        3.28051843026006
C            8.60549295315440       -0.20771965028557        2.37539723666559
C            7.56519498664772        2.01554352125921        2.91683617613761
C            8.08941997289338        0.39684437124075        4.72753145744264
C            5.46228259129201       -0.61096249480393        4.11648806818769
C            4.18615015964335       -1.08090943615852        3.89695655592795
C            3.62381062664523       -1.03391051310037        2.62275965239023
O            2.33134257299564       -1.47547456728074        2.55281289189198
C            1.60377863945706       -1.35369233647173        1.41917855352414
C            0.24746913990812       -1.64268175231553        1.50047188388490
C           -0.54550012126901       -1.49019298730743        0.36987786418072
N           -1.92776793557646       -1.72085182903443        0.45635576405429
C           -2.49913448750561       -2.93404076102677        0.76519943568750
C           -1.87581237148740       -4.12932509123178        1.09445291983294
C           -2.67726290565479       -5.22116670343850        1.36501428721988
C           -4.06602953750940       -5.12667036539974        1.30750021940690
C           -4.68902420500747       -3.94357216923898        0.96143195744882
C           -3.90606974594235       -2.83077102062332        0.67339984064533
C           -4.19175425880983       -1.47390057321461        0.28540593610298
C           -5.39515978058303       -0.80016773092346        0.06776329827293
C           -6.69601651615140       -1.48892356292717        0.18684212310103
C           -7.55545668323087       -1.19006824108273        1.23817380146272
C           -8.77624034259469       -1.83053940414453        1.34701760340937
C           -9.15347591003099       -2.77425551826798        0.40664971923246
C           -8.29980631725737       -3.08300561401629       -0.63932531004280
C           -7.07642063372718       -2.44733164957905       -0.74727612327617
C           -5.28690746527830        0.55557609068183       -0.22915721965594
C           -4.03595945558744        1.23218184606962       -0.25855334214184
C           -2.83115377979815        0.55483736020796       -0.06050009826679
C           -1.53527029902816        1.26345562667111       -0.08367193034494
C           -0.79690618010737        1.41972883120602        1.08445192954551
C            0.43137555146888        2.05477334491467        1.05558049011573
C            0.93416792437617        2.54473010854936       -0.13805575035959
C            0.19571565567852        2.41125502940460       -1.30223997570631
C           -1.03313700758383        1.77775113719378       -1.27530433258520
C           -2.93760600566505       -0.81096848723225        0.18541003414383
C           -4.33007481486405        2.62430291269518       -0.47199293781295
C           -3.55673322596283        3.77740386570043       -0.55598295328087
C           -4.18476639976310        4.98655896222462       -0.78037956427035
C           -5.56788738697092        5.06378422249954       -0.93093167705170
C           -6.36057919222201        3.93668616946082       -0.84022532764715
C           -5.73542966395744        2.72231818632311       -0.59197216971214
N           -6.29858346175379        1.47402563988353       -0.45289002356732
C           -7.67241711571917        1.21612951695258       -0.62397138142666
C           -8.59860599871222        1.81508044973536        0.22236141988631
C           -9.94999349591656        1.58563682933334        0.03832894606039
C          -10.38319749613185        0.76008221235142       -0.98550065969540
C           -9.46103810206082        0.17097465373744       -1.83457553896347
C           -8.10926187214502        0.40213747321816       -1.66291449182586
C            0.00983882325038       -1.11283984927207       -0.84615373785591
C            1.36786400838721       -0.83223902267098       -0.91368642097755
C            2.19178957671591       -0.93441323555790        0.21693220368164
O            1.86016647251226       -0.44594549520128       -2.11081560712432
H            7.62811050294372       -1.94253410265377       -3.61357569293429
H            7.96458798786653       -1.39323365117989       -1.97447408772929
H            9.12594085819800       -1.07519158472700       -3.26227154511974
H            8.68309997316381        0.59176073595050       -5.01106126548728
H            7.15304887747636        1.45631990498958       -5.10701293606494
H            7.22433340361833       -0.27852563824902       -5.46772021241941
H            9.04319230081499        1.44578289647146       -2.77406247021583
H            7.93411317869643        1.10577654870817       -1.45034484165084
H            7.47761026477574        2.26049490003592       -2.70123833909454
H            5.12057693531469        0.39872553993024       -4.99691492529013
H            2.78133767137179        0.08805198108759       -4.36843821305674
H            6.26525136018068       -0.29039109903159       -0.94583117966195
H            6.19657259004203        0.37024575114057        0.99197646649648
H            9.60831516152184        0.18221194407731        2.53669796896381
H            8.35797733168778       -0.08025565533047        1.32591811492611
H            8.60883093094977       -1.27274438897745        2.59913669821352
H            6.85139167668868        2.53869787314579        3.55040282319328
H            8.54691310830423        2.46163530287099        3.06189926353004
H            7.27153141022862        2.16455523249143        1.88147858360245
H            7.43411275633613        0.93300546796151        5.41028763010839
H            9.08523661730309        0.82749775548855        4.81301606883663
H            8.14760098141449       -0.64582167219647        5.03186986690840
H            5.85754041854196       -0.66056775660056        5.11755815113250
H            3.59363047345792       -1.47806295052365        4.70782152404175
H           -0.18518877291188       -1.94163779010405        2.44221339522223
H           -0.79921235752591       -4.19980860759348        1.13737096967202
H           -2.21949668007194       -6.16391752244225        1.62769330163675
H           -4.66467053165941       -5.99665110423697        1.53487240751245
H           -5.76495457484406       -3.88514035911811        0.91835844578412
H           -7.25795956251000       -0.45766972239420        1.97526657398618
H           -9.43577355587911       -1.59181146170522        2.16876531110663
H          -10.10923158952596       -3.27057578097558        0.49076971715425
H           -8.58722102194370       -3.82255582889323       -1.37296747879808
H           -6.40629282316132       -2.68949209222828       -1.56019383862121
H           -1.19162674732853        1.04116403258752        2.01659890712594
H            0.99992553101562        2.16622504367109        1.96788286749421
H            1.89812702645349        3.03215772991240       -0.16027351589204
H            0.58058937633048        2.79846536817626       -2.23473957399513
H           -1.61020790814619        1.67061677486310       -2.18296431739712
H           -2.48492201059327        3.72984418217181       -0.44537073699194
H           -3.59470406510015        5.88925605614373       -0.84462548686299
H           -6.02835652306518        6.02284450810592       -1.11936595106824
H           -7.43215850063272        3.99621791608828       -0.95898287692613
H           -8.25198899768253        2.45008820263027        1.02474800320421
H          -10.66629183927879        2.04955483020887        0.70048419381106
H          -11.43849061540247        0.57849458515327       -1.12391583956376
H           -9.79587077916945       -0.46548722832005       -2.64005793418631
H           -7.38580091774726       -0.04201568787082       -2.32998303303517
H           -0.60395357437830       -1.02323677838807       -1.72781555695310

          :  Hamiltonian                  GFN2-xTB          :
         :: gradient norm              0.000065892604 Eh/a0 ::
         :: HOMO-LUMO gap              1.994174116293 eV    ::
         :: SCC energy              -176.254195938245 Eh    ::
         :: -> dispersion             -0.179976646702 Eh    ::
         :: -> Gsolv                  -0.061676398080 Eh    ::
         :: repulsion energy           3.065598199973 Eh    ::

    * Orbital Energies and Occupations

         #    Occupation            Energy/Eh            Energy/eV
      -------------------------------------------------------------
         1        2.0000           -0.7319651             -19.9178
       ...           ...                  ...                  ...
       149        2.0000           -0.4019864             -10.9386
       150        2.0000           -0.4015517             -10.9268
       151        2.0000           -0.4011470             -10.9158
       152        2.0000           -0.3986204             -10.8470
       153        2.0000           -0.3936317             -10.7113
       154        2.0000           -0.3910160             -10.6401
       155        2.0000           -0.3903040             -10.6207
       156        2.0000           -0.3890454             -10.5865
       157        2.0000           -0.3833134             -10.4305
       158        2.0000           -0.3756746             -10.2226
       159        2.0000           -0.3688197             -10.0361
       160        2.0000           -0.3663450              -9.9688
       161        2.0000           -0.3464031              -9.4261 (HOMO)
       162                         -0.2731185              -7.4319 (LUMO)
       163                         -0.2557981              -6.9606
       164                         -0.2356876              -6.4134
       165                         -0.2329052              -6.3377
       166                         -0.2323563              -6.3227
       167                         -0.2302309              -6.2649
       168                         -0.2280823              -6.2064
       169                         -0.2240956              -6.0980
       170                         -0.2223994              -6.0518
       171                         -0.2212240              -6.0198
       172                         -0.2200575              -5.9881
       ...                                ...                  ...
       317                          0.7437324              20.2380
      -------------------------------------------------------------
                  HL-Gap            0.0732846 Eh            1.9942 eV

     #   Z          covCN         q      C6AA      α(0)
     1   6 C        3.761    -0.107    22.590     6.775
     2   6 C        3.902     0.026    20.088     6.371
     3   6 C        3.761    -0.109    22.626     6.781
     4   6 C        3.761    -0.106    22.568     6.772
     5   6 C        2.968     0.002    27.974     8.676
     6   6 C        2.926    -0.036    28.891     8.815
     7   6 C        2.913    -0.056    29.399     8.891
     8   6 C        2.877     0.133    25.099     8.213
     9   6 C        2.882    -0.092    30.307     9.025
    10   6 C        2.932    -0.039    28.972     8.827
    11   5 B        2.724     0.213    18.189     7.146
    12   6 C        2.882    -0.092    30.301     9.024
    13   6 C        2.932    -0.039    28.972     8.827
    14   6 C        2.968     0.002    27.973     8.675
    15   6 C        3.902     0.026    20.089     6.371
    16   6 C        3.761    -0.106    22.570     6.772
    17   6 C        3.761    -0.107    22.586     6.775
    18   6 C        3.761    -0.109    22.626     6.781
    19   6 C        2.926    -0.036    28.893     8.815
    20   6 C        2.913    -0.057    29.407     8.892
    21   6 C        2.876     0.132    25.111     8.215
    22   8 O        1.711    -0.237    17.931     5.717
    23   6 C        2.874     0.140    24.954     8.189
    24   6 C        2.916    -0.082    30.046     8.989
    25   6 C        2.916     0.071    26.421     8.429
    26   7 N        2.803    -0.049    22.195     6.997
    27   6 C        3.073     0.049    26.825     8.492
    28   6 C        2.910    -0.054    29.333     8.881
    29   6 C        2.923    -0.035    28.874     8.812
    30   6 C        2.919    -0.044    29.095     8.845
    31   6 C        2.913    -0.037    28.912     8.817
    32   6 C        3.060    -0.018    28.389     8.738
    33   6 C        3.070    -0.025    28.555     8.762
    34   6 C        2.964    -0.019    28.473     8.752
    35   6 C        2.976     0.016    27.660     8.627
    36   6 C        2.925    -0.033    28.834     8.806
    37   6 C        2.919    -0.030    28.761     8.794
    38   6 C        2.920    -0.033    28.817     8.803
    39   6 C        2.919    -0.031    28.767     8.795
    40   6 C        2.925    -0.032    28.786     8.799
    41   6 C        3.067     0.036    27.131     8.541
    42   6 C        3.072    -0.026    28.563     8.763
    43   6 C        2.963    -0.019    28.478     8.753
    44   6 C        2.975     0.015    27.662     8.627
    45   6 C        2.925    -0.035    28.881     8.813
    46   6 C        2.919    -0.032    28.796     8.800
    47   6 C        2.920    -0.034    28.846     8.807
    48   6 C        2.919    -0.029    28.729     8.790
    49   6 C        2.925    -0.031    28.763     8.795
    50   6 C        3.066     0.035    27.145     8.543
    51   6 C        3.060    -0.019    28.412     8.741
    52   6 C        2.913    -0.037    28.918     8.818
    53   6 C        2.919    -0.044    29.103     8.847
    54   6 C        2.923    -0.035    28.883     8.813
    55   6 C        2.910    -0.054    29.340     8.882
    56   6 C        3.076     0.049    26.821     8.491
    57   7 N        2.801    -0.053    22.255     7.007
    58   6 C        2.914     0.066    26.517     8.444
    59   6 C        2.923    -0.040    29.006     8.832
    60   6 C        2.920    -0.029    28.713     8.787
    61   6 C        2.920    -0.032    28.801     8.801
    62   6 C        2.920    -0.028    28.689     8.784
    63   6 C        2.922    -0.039    28.967     8.826
    64   6 C        2.917    -0.080    30.006     8.983
    65   6 C        2.874     0.140    24.938     8.186
    66   6 C        2.888    -0.126    31.221     9.161
    67   8 O        1.711    -0.236    17.908     5.714
    68   1 H        0.925     0.033     2.549     2.497
    69   1 H        0.925     0.039     2.465     2.455
    70   1 H        0.925     0.041     2.437     2.441
    71   1 H        0.925     0.039     2.462     2.454
    72   1 H        0.925     0.037     2.496     2.470
    73   1 H        0.925     0.036     2.501     2.473
    74   1 H        0.925     0.041     2.442     2.444
    75   1 H        0.925     0.038     2.481     2.463
    76   1 H        0.925     0.033     2.537     2.491
    77   1 H        0.926     0.048     2.349     2.397
    78   1 H        0.926     0.040     2.447     2.446
    79   1 H        0.926     0.046     2.376     2.411
    80   1 H        0.926     0.045     2.377     2.411
    81   1 H        0.925     0.041     2.442     2.444
    82   1 H        0.925     0.038     2.481     2.463
    83   1 H        0.925     0.034     2.537     2.491
    84   1 H        0.925     0.033     2.551     2.498
    85   1 H        0.925     0.041     2.437     2.441
    86   1 H        0.925     0.039     2.464     2.455
    87   1 H        0.925     0.036     2.502     2.473
    88   1 H        0.925     0.039     2.462     2.454
    89   1 H        0.925     0.036     2.497     2.471
    90   1 H        0.926     0.047     2.351     2.398
    91   1 H        0.926     0.040     2.448     2.447
    92   1 H        0.926     0.052     2.295     2.369
    93   1 H        0.926     0.026     2.649     2.545
    94   1 H        0.926     0.029     2.600     2.522
    95   1 H        0.926     0.027     2.631     2.537
    96   1 H        0.926     0.030     2.580     2.512
    97   1 H        0.926     0.026     2.648     2.545
    98   1 H        0.926     0.031     2.577     2.510
    99   1 H        0.926     0.032     2.563     2.504
   100   1 H        0.926     0.032     2.553     2.499
   101   1 H        0.926     0.030     2.583     2.513
   102   1 H        0.926     0.026     2.643     2.542
   103   1 H        0.926     0.027     2.622     2.532
   104   1 H        0.926     0.029     2.598     2.521
   105   1 H        0.926     0.032     2.559     2.501
   106   1 H        0.926     0.032     2.564     2.504
   107   1 H        0.926     0.027     2.623     2.533
   108   1 H        0.926     0.025     2.658     2.549
   109   1 H        0.926     0.028     2.608     2.526
   110   1 H        0.926     0.027     2.626     2.534
   111   1 H        0.926     0.041     2.440     2.442
   112   1 H        0.926     0.041     2.434     2.440
   113   1 H        0.926     0.040     2.445     2.445
   114   1 H        0.926     0.040     2.454     2.450
   115   1 H        0.926     0.038     2.480     2.463
   116   1 H        0.926     0.049     2.327     2.386

molecular dipole:
                 x           y           z       tot (Debye)
 q only:        1.119       0.316      -0.256
   full:        0.920       0.254      -0.221       2.491

 projected vibrational frequencies (cm⁻¹)
eigval :       -0.00    -0.00    -0.00     0.00     0.00     0.00
eigval :        9.88    12.05    12.99    24.02    27.26    28.08
eigval :       34.05    41.48    46.51    47.38    52.55    55.56
eigval :       58.54    62.75    62.96    66.98    73.92    76.15
eigval :       87.16    92.38   100.88   104.82   110.78   117.35
eigval :      123.86   130.82   134.97   149.96   156.52   171.86
eigval :      180.41   187.80   195.82   198.48   209.42   210.04
eigval :      220.03   223.60   228.07   232.70   237.70   241.79
eigval :      246.55   248.72   258.20   271.78   272.39   278.44
eigval :      285.94   289.57   300.43   315.23   320.07   321.13
eigval :      324.21   345.70   351.59   360.20   360.62   370.93
eigval :      374.16   374.42   378.13   382.38   383.56   388.40
eigval :      394.20   398.56   413.00   415.30   425.38   433.77
eigval :      436.34   446.20   449.32   465.95   469.30   471.43
eigval :      476.16   486.97   504.82   516.97   517.37   518.90
eigval :      522.82   527.28   537.30   541.22   567.63   570.42
eigval :      581.13   582.05   587.22   588.17   590.72   592.83
eigval :      595.97   604.87   614.85   624.55   628.10   631.20
eigval :      643.61   647.75   650.70   658.12   664.76   667.41
eigval :      674.76   681.31   688.15   692.37   702.73   703.16
eigval :      710.50   713.28   716.36   721.01   729.84   751.23
eigval :      756.86   772.18   772.89   774.30   787.62   789.88
eigval :      823.12   826.54   827.73   829.17   836.92   860.21
eigval :      862.02   869.45   870.01   873.51   879.31   881.46
eigval :      883.59   883.93   884.68   886.37   895.48   900.24
eigval :      901.68   903.74   904.92   906.47   910.00   916.61
eigval :      917.29   919.29   920.25   930.07   930.68   931.31
eigval :      931.79   934.84   935.51   937.31   938.99   959.40
eigval :      959.73   960.35   961.35   961.74   963.10   964.66
eigval :      970.91   978.13   997.44  1023.68  1033.43  1034.28
eigval :     1034.55  1035.58  1036.77  1072.82  1074.30  1075.27
eigval :     1079.75  1081.80  1082.77  1084.26  1103.06  1109.22
eigval :     1117.52  1118.76  1120.92  1121.15  1132.08  1138.63
eigval :     1141.58  1161.85  1166.12  1177.44  1178.94  1179.15
eigval :     1180.93  1181.78  1181.96  1187.93  1190.87  1196.90
eigval :     1199.35  1206.51  1215.76  1219.07  1225.79  1225.96
eigval :     1228.50  1231.66  1234.49  1240.23  1240.85  1253.56
eigval :     1255.29  1269.19  1272.92  1276.85  1280.31  1281.07
eigval :     1282.46  1291.34  1296.47  1298.02  1306.42  1312.23
eigval :     1313.51  1316.60  1319.91  1320.61  1322.07  1327.54
eigval :     1345.24  1359.40  1361.44  1367.37  1382.49  1388.72
eigval :     1397.22  1398.84  1400.20  1401.63  1402.05  1407.58
eigval :     1408.98  1426.35  1426.61  1427.24  1428.91  1430.37
eigval :     1433.05  1434.87  1446.28  1452.65  1467.74  1471.28
eigval :     1476.51  1477.96  1480.65  1482.28  1487.42  1488.34
eigval :     1490.55  1491.77  1496.52  1497.87  1500.81  1502.33
eigval :     1511.42  1511.58  1516.99  1517.11  1530.16  1538.01
eigval :     1545.95  1549.50  1562.39  1569.95  1574.90  1580.35
eigval :     1581.06  1581.97  1584.32  1585.62  1590.99  1594.83
eigval :     1595.19  1599.84  1600.65  1602.30  1603.81  3020.50
eigval :     3020.50  3021.55  3021.68  3024.89  3025.13  3026.25
eigval :     3026.52  3028.81  3028.96  3031.89  3032.15  3036.72
eigval :     3037.14  3045.44  3046.89  3052.62  3053.31  3065.88
eigval :     3067.35  3068.36  3068.50  3069.21  3069.35  3074.99
eigval :     3075.16  3075.67  3077.42  3077.74  3078.75  3079.30
eigval :     3079.58  3082.96  3083.56  3085.38  3087.48  3087.76
eigval :     3088.86  3089.77  3090.95  3098.16  3104.55  3105.07
eigval :     3107.95  3108.97  3110.82  3113.68  3116.08  3116.81

   temp. (K)  partition function   enthalpy   heat capacity  entropy
                                   cal/mol     cal/K/mol   cal/K/mol   J/K/mol
 298.15  VIB  0.261E+26            33704.961    211.975    209.289
         ROT  0.198E+09              888.752      2.981     40.944
         INT  0.517E+34            34593.713    214.956    250.234
         TR   0.246E+29             1481.254      4.968     46.128
         TOT                       36074.9670   219.9240   296.3615  1239.9766

       T/K    H(0)-H(T)+PV         H(T)/Eh          T*S/Eh         G(T)/Eh
   ------------------------------------------------------------------------
    298.15    0.574891E-01    0.974040E+00    0.140811E+00    0.833230E+00
   ------------------------------------------------------------------------

         :::::::::::::::::::::::::::::::::::::::::::::::::::::
         ::                  THERMODYNAMIC                  ::
         :::::::::::::::::::::::::::::::::::::::::::::::::::::
         :: total free energy        -172.355368184082 Eh   ::
         ::.................................................::
         :: total energy             -173.188597738257 Eh   ::
         :: zero point energy           0.916551359077 Eh   ::
         :: G(RRHO) w/o ZPVE           -0.083321804903 Eh   ::
         :: G(RRHO) contrib.            0.833229554174 Eh   ::
         :::::::::::::::::::::::::::::::::::::::::::::::::::::

           -------------------------------------------------
          | TOTAL ENERGY             -173.188597738257 Eh   |
          | TOTAL ENTHALPY           -172.214557259885 Eh   |
          | TOTAL FREE ENERGY        -172.355368184082 Eh   |
          | GRADIENT NORM               0.000065894255 Eh/α |
          | HOMO-LUMO GAP               1.994174231547 eV   |
           -------------------------------------------------

 * finished run on 2025/07/18 at 03:03:50.171
