   * xtb version 6.7.1 (edcfbbe) compiled by 'albert@albert-system' on 2024-07-22

   ID    Z sym.   atoms
    1    6 C      1-10, 12-21, 23-25, 27-56, 58-66
    2    5 B      11
    3    8 O      22, 67
    4    7 N      26, 57
    5    1 H      68-116

          program call               : xtb data2507/toluene/TRZ-pIC/TRZ-pIC_toluene_S0_crest.xyz --gfn 2 --gbsa toluene --ohess vtight --parallel 40 --molden --ceasefiles --namespace data2507/toluene/TRZ-pIC/TRZ-pIC_toluene_S0_finalOpt
      * Solvation model:               GBSA
        Solvent                        toluene
        Solvent mass                       9.2140E+01 g/mol
          :  Hamiltonian                  GFN2-xTB          :
 * total energy  :  -173.1889325 Eh     change       -0.4630152E-08 Eh
 * total energy  :  -173.1890089 Eh     change       -0.7640024E-04 Eh
 * total energy  :  -173.1890775 Eh     change       -0.6862858E-04 Eh
 * total energy  :  -173.1891202 Eh     change       -0.4264919E-04 Eh
 * total energy  :  -173.1891580 Eh     change       -0.3783768E-04 Eh
 * total energy  :  -173.1892014 Eh     change       -0.4336216E-04 Eh
 * total energy  :  -173.1892186 Eh     change       -0.1717494E-04 Eh
 * total energy  :  -173.1892282 Eh     change       -0.9661932E-05 Eh
 * total energy  :  -173.1892360 Eh     change       -0.7801697E-05 Eh
 * total energy  :  -173.1892392 Eh     change       -0.3176189E-05 Eh
 * total energy  :  -173.1894076 Eh     change       -0.7488331E-06 Eh
 * total energy  :  -173.1894084 Eh     change       -0.8518840E-06 Eh
 * total energy  :  -173.1894095 Eh     change       -0.1115593E-05 Eh
 * total energy  :  -173.1894111 Eh     change       -0.1537002E-05 Eh
 * total energy  :  -173.1894128 Eh     change       -0.1758610E-05 Eh
 * total energy  :  -173.1894142 Eh     change       -0.1349285E-05 Eh
 * total energy  :  -173.1894150 Eh     change       -0.8325028E-06 Eh
 * total energy  :  -173.1894156 Eh     change       -0.5846140E-06 Eh
 * total energy  :  -173.1894156 Eh     change       -0.6522754E-08 Eh
   *** GEOMETRY OPTIMIZATION CONVERGED AFTER 94 ITERATIONS ***

 final structure:
================
116
 xtb: 6.7.1 (edcfbbe)
C            9.36564210223317       -3.68457165119528       -0.60009701019980
C            8.85353691371909       -2.37794656562831       -1.22428046206936
C            9.28815938291543       -2.29853874281685       -2.69540459641219
C            9.49472460239972       -1.20687399612349       -0.47387657174791
C            7.33329738063243       -2.35919685908511       -1.15372867734878
C            6.60566865638958       -3.36351760897908       -1.80091028735909
C            5.23342826962782       -3.39877772944494       -1.73827702768044
C            4.53530629785713       -2.41855355184665       -1.03138381655569
C            5.21788997319632       -1.36737333290706       -0.39624818976349
C            6.61895343467227       -1.39213219522591       -0.47241447673370
B            4.35456508818245       -0.31147549297823        0.33787791294262
C            4.68145894237178        1.03998124503476        1.02016835119201
C            5.90507897754225        1.72559776674896        0.97158270643851
C            6.14357200695022        2.91668890685041        1.63053077470837
C            7.47481951122596        3.65200447071308        1.56975464882000
C            8.50259087392906        2.94259566741957        0.68317309832757
C            7.24417188070770        5.06029190841411        1.00136105668932
C            8.05420600966024        3.75207111575156        2.98872962128141
C            5.09854633336048        3.45584851230970        2.38831760742516
C            3.87163267630502        2.83996452379228        2.44470056016773
C            3.64863618858972        1.64830853602019        1.75321245408526
O            2.37445182330703        1.16610400906669        1.85667042964777
C            1.96872384446292        0.08766494625966        1.15192298844419
C            0.61944932180399       -0.23366182191639        1.20668824868091
C            0.14522292903400       -1.30341859239384        0.45765954728323
N           -1.22881496473587       -1.58635545158570        0.44974336320304
C           -1.78391831713154       -2.76756895120264        0.88893217498843
C           -1.14575474807065       -3.91216148773367        1.34557980893358
C           -1.93278224984210       -4.98094292181085        1.72768073297143
C           -3.32241787331053       -4.91248465174008        1.65902857441885
C           -3.96153805019918       -3.76573801010980        1.23017900533211
C           -3.19366365053453       -2.66960787039862        0.85152340631500
C           -3.49926062082977       -1.34693646311305        0.37093209947091
C           -4.71274037145019       -0.70022330997751        0.12839591857116
C           -6.00648252510405       -1.35779636945531        0.39883992867441
C           -6.39692615706136       -1.64155151465636        1.70387316604651
C           -7.61416141849681       -2.24826650809773        1.95400348353247
C           -8.45216932286210       -2.58436611482849        0.90377012752487
C           -8.06545293729062       -2.31532444941398       -0.39826846818558
C           -6.85073504974495       -1.70446238373774       -0.65036559707074
C           -4.62093924578682        0.57929807545338       -0.41277423560727
C           -3.37648051724297        1.17035632334902       -0.76618457703028
C           -2.16187290594752        0.53299493375086       -0.50280589269307
C           -0.87238579018861        1.15086380819414       -0.87153228945069
C           -0.43645844436987        2.30677770486349       -0.23023677232510
C            0.78585851641016        2.86786167404247       -0.55086120219660
C            1.58560377338871        2.28403984028431       -1.51931209590913
C            1.14993714150635        1.14539306554954       -2.17620115610825
C           -0.07276435614318        0.58286036706954       -1.85766352431240
C           -2.25249727855875       -0.71769707389985        0.10242237268267
C           -3.68785507031169        2.41643840860678       -1.41556104714376
C           -2.92816859888951        3.41322912786142       -2.01919885325132
C           -3.57151983785025        4.51303594461913       -2.55139599316016
C           -4.95713163748756        4.64149054220681       -2.48188960243492
C           -5.73672659656793        3.66077621778691       -1.90120099319787
C           -5.09596860085220        2.54143512501931       -1.38772344344061
N           -5.64546735648766        1.43590128873229       -0.77819565142223
C           -7.01471841230146        1.31509881354787       -0.47398861317659
C           -7.43375259596750        1.23837128406396        0.84960330337013
C           -8.78155816065873        1.14517939483102        1.14082657580545
C           -9.71777811609689        1.14333426598571        0.12004394234353
C           -9.30224221864998        1.23508354692001       -1.19765638181677
C           -7.95490365865770        1.32008522024302       -1.49813466787971
C            1.01585769421745       -2.09814574747782       -0.27770173628208
C            2.37062297342272       -1.79022437401102       -0.28716857415548
C            2.87520908934192       -0.67961707224550        0.40525042158205
O            3.17912681793047       -2.58989618879104       -1.01847235289650
H           10.45299539802064       -3.71189514348466       -0.62888546787970
H            8.98973662595949       -4.55370434125209       -1.13295015391018
H            9.04557841148037       -3.75659937705289        0.43769548345369
H           10.37390304063783       -2.28125741061869       -2.76402322744050
H            8.89861199389731       -1.39202351585486       -3.15463062067491
H            8.92627685519503       -3.15078693209195       -3.26398408010835
H           10.57772698738882       -1.27416584324144       -0.55655921811696
H            9.23747054682513       -1.23159676901834        0.58254858833776
H            9.18488829416699       -0.25514996072747       -0.89846733376859
H            7.11598801145994       -4.13856779290223       -2.35180185336821
H            4.67166928253455       -4.18494124914769       -2.22068241260620
H            7.14693231847458       -0.61651599363744        0.05227123610048
H            6.68160568388210        1.29098142022504        0.36821357757858
H            9.42700308997292        3.51668886442202        0.67127011559962
H            8.14544451580057        2.86084488308664       -0.34086714495004
H            8.73004548515112        1.95080925405127        1.06592667283713
H            6.57676078881096        5.64031435822234        1.63275231802616
H            8.18985476854223        5.59337988578070        0.92757674928644
H            6.80472572766723        4.99759636421671        0.00757910094642
H            7.39223238603630        4.30446235725934        3.65001597955670
H            9.01489755538444        4.26238386376048        2.96542380912508
H            8.20101918262460        2.75789274058333        3.40639989952147
H            5.23787013365478        4.37721766763651        2.93271813683868
H            3.05680223798089        3.26670893918978        3.01054286048696
H           -0.05227296458831        0.36339029854434        1.80181197462265
H           -0.06868076683443       -3.96329203693797        1.39969923191292
H           -1.46244243582558       -5.88662679848505        2.08237965439204
H           -3.90911034817332       -5.77080576470379        1.95222837151881
H           -5.03819865202013       -3.72484741039735        1.18697833560743
H           -5.73901396400716       -1.38211490338968        2.52145296559205
H           -7.90901365514962       -2.46094211956180        2.97164394836753
H           -9.40317213151855       -3.05797884014664        1.09936375738155
H           -8.71273564577350       -2.58235861199456       -1.22107033875674
H           -6.54561346798298       -1.49983872054089       -1.66686375550374
H           -1.06039818641415        2.75829926572357        0.52825056369614
H            1.11723317944843        3.76172789749632       -0.04250797073599
H            2.54482713274976        2.71717044490047       -1.76318683592080
H            1.76687993400260        0.69247783272036       -2.93915739183210
H           -0.41455328424593       -0.30287507451474       -2.37401283727675
H           -1.85452093715314        3.32865296063340       -2.07556633742591
H           -2.99116371557742        5.29171552014947       -3.02467073888386
H           -5.42979552217230        5.52181266002062       -2.89295523639380
H           -6.81032413734000        3.76132865235204       -1.84551371556966
H           -6.69935808034980        1.25491183960192        1.64101160080172
H           -9.10233402676991        1.08231099488848        2.17003054948330
H          -10.77004019980658        1.07337303107758        0.35172944057188
H          -10.02911674343989        1.23605132999961       -1.99665698784832
H           -7.62255389503898        1.38196210442180       -2.52418608535443
H            0.64924400507072       -2.93269527963432       -0.85430908353956

          :  Hamiltonian                  GFN2-xTB          :
         :: gradient norm              0.000059728669 Eh/a0 ::
         :: HOMO-LUMO gap              2.027074942718 eV    ::
         :: SCC energy              -176.254664144473 Eh    ::
         :: -> dispersion             -0.180551478652 Eh    ::
         :: -> Gsolv                  -0.061249722234 Eh    ::
         :: repulsion energy           3.065248551283 Eh    ::

    * Orbital Energies and Occupations

         #    Occupation            Energy/Eh            Energy/eV
      -------------------------------------------------------------
         1        2.0000           -0.7317905             -19.9130
       ...           ...                  ...                  ...
       149        2.0000           -0.4019934             -10.9388
       150        2.0000           -0.4010738             -10.9138
       151        2.0000           -0.4005532             -10.8996
       152        2.0000           -0.3987016             -10.8492
       153        2.0000           -0.3928543             -10.6901
       154        2.0000           -0.3908348             -10.6352
       155        2.0000           -0.3901925             -10.6177
       156        2.0000           -0.3880172             -10.5585
       157        2.0000           -0.3836432             -10.4395
       158        2.0000           -0.3757374             -10.2243
       159        2.0000           -0.3680370             -10.0148
       160        2.0000           -0.3663536              -9.9690
       161        2.0000           -0.3465903              -9.4312 (HOMO)
       162                         -0.2720966              -7.4041 (LUMO)
       163                         -0.2564455              -6.9782
       164                         -0.2353659              -6.4046
       165                         -0.2333242              -6.3491
       166                         -0.2323548              -6.3227
       167                         -0.2301102              -6.2616
       168                         -0.2282063              -6.2098
       169                         -0.2243746              -6.1055
       170                         -0.2223345              -6.0500
       171                         -0.2203529              -5.9961
       172                         -0.2199118              -5.9841
       ...                                ...                  ...
       317                          0.7431817              20.2230
      -------------------------------------------------------------
                  HL-Gap            0.0744936 Eh            2.0271 eV

     #   Z          covCN         q      C6AA      α(0)
     1   6 C        3.761    -0.106    22.579     6.774
     2   6 C        3.902     0.026    20.090     6.371
     3   6 C        3.761    -0.107    22.583     6.774
     4   6 C        3.761    -0.110    22.645     6.784
     5   6 C        2.968     0.002    27.973     8.675
     6   6 C        2.927    -0.032    28.787     8.799
     7   6 C        2.913    -0.056    29.400     8.891
     8   6 C        2.876     0.132    25.112     8.215
     9   6 C        2.882    -0.092    30.307     9.025
    10   6 C        2.930    -0.044    29.105     8.848
    11   5 B        2.724     0.212    18.211     7.151
    12   6 C        2.882    -0.092    30.312     9.026
    13   6 C        2.930    -0.044    29.102     8.847
    14   6 C        2.968     0.002    27.976     8.676
    15   6 C        3.902     0.026    20.089     6.371
    16   6 C        3.761    -0.110    22.645     6.784
    17   6 C        3.761    -0.106    22.577     6.773
    18   6 C        3.761    -0.107    22.582     6.774
    19   6 C        2.927    -0.032    28.786     8.799
    20   6 C        2.913    -0.056    29.388     8.889
    21   6 C        2.877     0.133    25.089     8.211
    22   8 O        1.711    -0.236    17.914     5.715
    23   6 C        2.875     0.140    24.947     8.188
    24   6 C        2.917    -0.081    30.021     8.985
    25   6 C        2.916     0.070    26.424     8.429
    26   7 N        2.802    -0.049    22.181     6.995
    27   6 C        3.072     0.049    26.828     8.493
    28   6 C        2.910    -0.054    29.333     8.881
    29   6 C        2.923    -0.035    28.874     8.812
    30   6 C        2.919    -0.044    29.092     8.845
    31   6 C        2.913    -0.037    28.914     8.817
    32   6 C        3.060    -0.017    28.384     8.737
    33   6 C        3.070    -0.025    28.553     8.762
    34   6 C        2.964    -0.019    28.470     8.752
    35   6 C        2.976     0.015    27.664     8.627
    36   6 C        2.925    -0.031    28.784     8.798
    37   6 C        2.919    -0.031    28.768     8.795
    38   6 C        2.920    -0.033    28.817     8.803
    39   6 C        2.919    -0.031    28.762     8.795
    40   6 C        2.925    -0.034    28.835     8.806
    41   6 C        3.068     0.036    27.130     8.541
    42   6 C        3.071    -0.026    28.565     8.763
    43   6 C        2.963    -0.019    28.472     8.752
    44   6 C        2.975     0.015    27.662     8.627
    45   6 C        2.925    -0.030    28.753     8.794
    46   6 C        2.919    -0.029    28.723     8.789
    47   6 C        2.920    -0.034    28.840     8.807
    48   6 C        2.919    -0.032    28.800     8.800
    49   6 C        2.924    -0.035    28.883     8.813
    50   6 C        3.065     0.035    27.150     8.544
    51   6 C        3.060    -0.018    28.408     8.740
    52   6 C        2.913    -0.037    28.920     8.818
    53   6 C        2.919    -0.044    29.102     8.846
    54   6 C        2.923    -0.035    28.882     8.813
    55   6 C        2.910    -0.054    29.340     8.882
    56   6 C        3.076     0.049    26.822     8.491
    57   7 N        2.800    -0.052    22.251     7.006
    58   6 C        2.914     0.066    26.516     8.444
    59   6 C        2.922    -0.039    28.972     8.827
    60   6 C        2.920    -0.028    28.691     8.784
    61   6 C        2.920    -0.032    28.806     8.801
    62   6 C        2.920    -0.029    28.714     8.787
    63   6 C        2.923    -0.041    29.012     8.833
    64   6 C        2.917    -0.083    30.071     8.992
    65   6 C        2.874     0.139    24.965     8.191
    66   6 C        2.888    -0.127    31.226     9.162
    67   8 O        1.711    -0.237    17.921     5.716
    68   1 H        0.925     0.040     2.447     2.446
    69   1 H        0.925     0.036     2.500     2.473
    70   1 H        0.925     0.033     2.541     2.493
    71   1 H        0.925     0.040     2.446     2.446
    72   1 H        0.925     0.034     2.528     2.486
    73   1 H        0.925     0.036     2.497     2.471
    74   1 H        0.925     0.039     2.457     2.451
    75   1 H        0.925     0.037     2.483     2.464
    76   1 H        0.925     0.040     2.450     2.448
    77   1 H        0.926     0.040     2.446     2.446
    78   1 H        0.926     0.040     2.454     2.450
    79   1 H        0.926     0.055     2.261     2.351
    80   1 H        0.926     0.055     2.263     2.352
    81   1 H        0.925     0.039     2.458     2.452
    82   1 H        0.925     0.037     2.484     2.465
    83   1 H        0.925     0.040     2.450     2.448
    84   1 H        0.925     0.036     2.498     2.472
    85   1 H        0.925     0.040     2.451     2.448
    86   1 H        0.925     0.033     2.543     2.494
    87   1 H        0.925     0.036     2.499     2.472
    88   1 H        0.925     0.040     2.445     2.445
    89   1 H        0.925     0.034     2.528     2.486
    90   1 H        0.926     0.040     2.446     2.446
    91   1 H        0.926     0.039     2.457     2.451
    92   1 H        0.926     0.049     2.335     2.390
    93   1 H        0.926     0.026     2.637     2.540
    94   1 H        0.926     0.029     2.598     2.521
    95   1 H        0.926     0.027     2.629     2.536
    96   1 H        0.926     0.031     2.574     2.509
    97   1 H        0.926     0.030     2.580     2.512
    98   1 H        0.926     0.032     2.554     2.499
    99   1 H        0.926     0.032     2.564     2.504
   100   1 H        0.926     0.031     2.577     2.510
   101   1 H        0.926     0.026     2.646     2.544
   102   1 H        0.926     0.032     2.563     2.503
   103   1 H        0.926     0.032     2.561     2.503
   104   1 H        0.926     0.029     2.603     2.523
   105   1 H        0.926     0.028     2.619     2.531
   106   1 H        0.926     0.026     2.642     2.542
   107   1 H        0.926     0.028     2.617     2.530
   108   1 H        0.926     0.025     2.655     2.548
   109   1 H        0.926     0.029     2.607     2.525
   110   1 H        0.926     0.028     2.620     2.531
   111   1 H        0.926     0.037     2.485     2.465
   112   1 H        0.926     0.039     2.456     2.451
   113   1 H        0.926     0.040     2.448     2.447
   114   1 H        0.926     0.041     2.435     2.440
   115   1 H        0.926     0.041     2.436     2.441
   116   1 H        0.926     0.052     2.296     2.369

molecular dipole:
                 x           y           z       tot (Debye)
 q only:        1.125       0.443       0.116
   full:        0.915       0.365       0.123       2.525

 projected vibrational frequencies (cm⁻¹)
eigval :       -0.00    -0.00    -0.00     0.00     0.00     0.00
eigval :        6.64     8.92    12.24    21.09    23.64    26.28
eigval :       30.60    37.98    40.31    46.44    50.76    52.78
eigval :       54.13    60.01    63.08    65.43    71.90    80.13
eigval :       81.35    93.33    99.58   104.62   113.86   118.89
eigval :      127.01   133.49   140.21   151.46   159.66   168.32
eigval :      180.00   187.26   195.63   198.22   208.38   209.80
eigval :      218.94   222.13   227.37   229.89   230.95   235.79
eigval :      243.75   247.81   261.99   265.38   271.38   277.29
eigval :      286.32   293.27   300.30   316.01   318.58   327.99
eigval :      332.53   341.45   349.13   360.98   364.88   366.58
eigval :      372.54   377.25   378.26   382.91   386.25   388.23
eigval :      394.52   398.09   412.78   415.52   425.54   433.78
eigval :      435.97   444.45   444.51   464.89   468.43   471.95
eigval :      477.25   489.37   505.65   516.32   517.57   520.50
eigval :      522.66   528.15   538.18   542.36   567.76   570.70
eigval :      581.39   581.98   587.16   588.22   590.52   592.65
eigval :      597.22   604.02   615.85   625.01   628.48   630.86
eigval :      644.10   648.10   651.77   659.67   665.09   667.47
eigval :      674.69   679.74   688.70   692.53   700.88   703.45
eigval :      709.48   714.03   716.23   718.85   730.16   748.82
eigval :      754.68   770.93   772.75   776.47   786.61   787.87
eigval :      822.91   827.25   828.52   831.37   836.17   859.50
eigval :      862.80   869.42   871.58   872.75   874.53   877.65
eigval :      877.72   879.08   880.28   883.75   892.23   898.38
eigval :      901.29   902.86   903.63   905.79   908.70   919.83
eigval :      920.79   921.33   923.10   928.03   929.49   929.95
eigval :      930.61   931.08   931.95   932.21   939.97   959.15
eigval :      959.57   960.15   962.63   962.93   963.90   968.68
eigval :      970.96   978.07   997.08  1023.70  1034.02  1034.56
eigval :     1035.10  1035.71  1036.08  1073.80  1075.53  1076.44
eigval :     1078.82  1081.83  1082.63  1084.15  1103.30  1108.75
eigval :     1116.19  1118.24  1120.83  1121.19  1130.75  1137.51
eigval :     1139.10  1162.47  1167.68  1176.35  1177.33  1177.96
eigval :     1179.55  1180.21  1182.17  1186.31  1190.36  1196.46
eigval :     1199.05  1205.20  1213.51  1217.51  1225.67  1226.08
eigval :     1228.65  1230.66  1233.56  1239.98  1241.20  1245.89
eigval :     1256.69  1270.51  1272.69  1276.52  1278.83  1281.05
eigval :     1283.36  1290.90  1293.67  1298.01  1306.74  1312.80
eigval :     1313.99  1316.89  1319.66  1320.83  1330.00  1334.96
eigval :     1345.94  1359.46  1361.47  1367.02  1381.96  1387.81
eigval :     1397.06  1398.75  1400.92  1402.55  1402.79  1407.02
eigval :     1409.29  1426.87  1427.01  1427.48  1429.01  1430.65
eigval :     1432.67  1434.59  1446.24  1452.98  1467.62  1470.26
eigval :     1476.62  1477.65  1480.34  1481.97  1487.69  1488.94
eigval :     1491.07  1491.98  1496.89  1499.77  1500.79  1502.34
eigval :     1510.36  1511.00  1515.08  1518.47  1529.03  1536.19
eigval :     1544.75  1548.84  1561.83  1568.79  1575.23  1580.31
eigval :     1581.00  1581.92  1584.16  1585.46  1594.65  1594.70
eigval :     1598.16  1599.46  1600.59  1602.06  1603.45  3020.94
eigval :     3021.03  3021.54  3021.59  3024.92  3025.23  3025.87
eigval :     3026.08  3028.42  3028.64  3033.18  3033.90  3038.13
eigval :     3039.52  3044.88  3045.80  3047.89  3048.03  3066.57
eigval :     3066.62  3068.32  3068.49  3070.29  3070.90  3074.56
eigval :     3074.75  3074.84  3078.11  3078.47  3078.79  3078.86
eigval :     3079.34  3080.31  3080.50  3084.61  3088.52  3088.71
eigval :     3088.93  3089.33  3089.61  3092.49  3092.87  3096.93
eigval :     3104.35  3106.35  3108.84  3111.98  3142.73  3148.28

   temp. (K)  partition function   enthalpy   heat capacity  entropy
                                   cal/mol     cal/K/mol   cal/K/mol   J/K/mol
 298.15  VIB  0.127E+27            33769.575    211.480    210.415
         ROT  0.199E+09              888.752      2.981     40.953
         INT  0.252E+35            34658.327    214.461    251.368
         TR   0.246E+29             1481.254      4.968     46.128
         TOT                       36139.5812   219.4290   297.4959  1244.7230

       T/K    H(0)-H(T)+PV         H(T)/Eh          T*S/Eh         G(T)/Eh
   ------------------------------------------------------------------------
    298.15    0.575921E-01    0.973966E+00    0.141350E+00    0.832616E+00
   ------------------------------------------------------------------------

         :::::::::::::::::::::::::::::::::::::::::::::::::::::
         ::                  THERMODYNAMIC                  ::
         :::::::::::::::::::::::::::::::::::::::::::::::::::::
         :: total free energy        -172.356799899601 Eh   ::
         ::.................................................::
         :: total energy             -173.189415597517 Eh   ::
         :: zero point energy           0.916373533217 Eh   ::
         :: G(RRHO) w/o ZPVE           -0.083757835301 Eh   ::
         :: G(RRHO) contrib.            0.832615697916 Eh   ::
         :::::::::::::::::::::::::::::::::::::::::::::::::::::

           -------------------------------------------------
          | TOTAL ENERGY             -173.189415597517 Eh   |
          | TOTAL ENTHALPY           -172.215449975801 Eh   |
          | TOTAL FREE ENERGY        -172.356799899601 Eh   |
          | GRADIENT NORM               0.000059725404 Eh/α |
          | HOMO-LUMO GAP               2.027075011939 eV   |
           -------------------------------------------------

 * finished run on 2025/07/18 at 03:19:53.354
