   * xtb version 6.7.1 (edcfbbe) compiled by 'albert@albert-system' on 2024-07-22

   ID    Z sym.   atoms
    1    6 C      1-10, 12-21, 23-25, 27-56, 58-66
    2    5 B      11
    3    8 O      22, 67
    4    7 N      26, 57
    5    1 H      68-116

          program call               : xtb data2507/toluene/TRZ-pIC/TRZ-pIC_toluene_S0_finalOpt.xtbopt.xyz --gfn 2 --uhf 2 --gbsa toluene --ohess vtight --parallel 40 --molden --ceasefiles --namespace data2507/toluene/TRZ-pIC/TRZ-pIC_toluene_T1_preOpt
      * Solvation model:               GBSA
        Solvent                        toluene
        Solvent mass                       9.2140E+01 g/mol
          :  Hamiltonian                  GFN2-xTB          :
 * total energy  :  -173.1004762 Eh     change       -0.9931483E-08 Eh
 * total energy  :  -173.1016340 Eh     change       -0.1157813E-02 Eh
 * total energy  :  -173.1020232 Eh     change       -0.3891953E-03 Eh
 * total energy  :  -173.1020784 Eh     change       -0.5521983E-04 Eh
 * total energy  :  -173.1021741 Eh     change       -0.9566860E-04 Eh
 * total energy  :  -173.1022346 Eh     change       -0.6053685E-04 Eh
 * total energy  :  -173.1023029 Eh     change       -0.6824933E-04 Eh
 * total energy  :  -173.1023466 Eh     change       -0.4366162E-04 Eh
 * total energy  :  -173.1023681 Eh     change       -0.2155920E-04 Eh
 * total energy  :  -173.1023789 Eh     change       -0.1081882E-04 Eh
 * total energy  :  -173.1025018 Eh     change       -0.2492660E-06 Eh
 * total energy  :  -173.1025020 Eh     change       -0.1584846E-06 Eh
 * total energy  :  -173.1025021 Eh     change       -0.1354892E-06 Eh
 * total energy  :  -173.1025022 Eh     change       -0.1272055E-06 Eh
 * total energy  :  -173.1025024 Eh     change       -0.1605711E-06 Eh
 * total energy  :  -173.1025026 Eh     change       -0.2345190E-06 Eh
 * total energy  :  -173.1025029 Eh     change       -0.2583594E-06 Eh
 * total energy  :  -173.1025032 Eh     change       -0.2744713E-06 Eh
 * total energy  :  -173.1025032 Eh     change       -0.2656577E-08 Eh
   *** GEOMETRY OPTIMIZATION CONVERGED AFTER 68 ITERATIONS ***

 final structure:
================
116
 xtb: 6.7.1 (edcfbbe)
C            9.38998090443904       -3.65070252441980       -0.54949596678489
C            8.86344213837119       -2.34803721069341       -1.17008182376818
C            9.29679291602872       -2.26110318292737       -2.64122599712824
C            9.49521421404014       -1.17342795932916       -0.41717247604385
C            7.34258594261085       -2.34381277269887       -1.09998471948489
C            6.62732546989798       -3.36151095139392       -1.73582945181506
C            5.25184212725644       -3.40591780713185       -1.67107608511224
C            4.54782204631315       -2.42293957729140       -0.98073354232889
C            5.21644723444887       -1.35419087703068       -0.35701492912269
C            6.61851704345792       -1.37301045615567       -0.43137411724573
B            4.34312065555916       -0.29325868587508        0.35675953948229
C            4.65810971371507        1.06737178866926        1.02555225241795
C            5.88470219655625        1.75004351253640        0.99875828549949
C            6.11043597076456        2.95597240703368        1.63823324307308
C            7.44879036093038        3.68095787912850        1.60094535602616
C            8.50411266304099        2.93685223275101        0.77732550067121
C            7.24915269734012        5.07039164361403        0.97705429417418
C            7.97863040246937        3.82660682117865        3.03535607717637
C            5.04818302348380        3.51995727737983        2.34871537230363
C            3.81517648782876        2.90617315838324        2.38268869858654
C            3.61069364916541        1.69925877485478        1.71939232622527
O            2.32893661226074        1.21936179375671        1.80757568345565
C            1.93938919840278        0.11811972471077        1.12238079542085
C            0.59079928384016       -0.20064005274259        1.16223354980104
C            0.13289892060313       -1.30365653508947        0.44734353685097
N           -1.23973158623156       -1.60036042653075        0.43627331375575
C           -1.77425056837352       -2.77272842541566        0.91993995968180
C           -1.11858784727311       -3.88341040693680        1.42469135547890
C           -1.89145738673746       -4.95909007760214        1.83094502080921
C           -3.28288240379447       -4.91602255109994        1.72467134201079
C           -3.94421853447576       -3.80072498042537        1.24836364479634
C           -3.19481370172003       -2.68891073913551        0.85604789403258
C           -3.50079516944094       -1.39538902271486        0.33629278640407
C           -4.72981553771126       -0.73648891051555        0.09179325859316
C           -6.01266461756339       -1.36142143574444        0.41274686877322
C           -6.31294497774633       -1.74169925051650        1.72208556885686
C           -7.53034175349276       -2.32100777175852        2.02228584997997
C           -8.46228607955627       -2.54729494789991        1.02137354149183
C           -8.16601239717750       -2.19068719466997       -0.28533735120922
C           -6.95627232706798       -1.59879260604033       -0.58830346165947
C           -4.62122543534989        0.53513093538587       -0.50016704953727
C           -3.38347201335767        1.10388926616215       -0.90858861473329
C           -2.15413409344467        0.46484725497581       -0.62692390770452
C           -0.87379837776036        1.05929221828670       -1.02107667882427
C           -0.47251836079150        2.28886846775276       -0.49796571130584
C            0.74879100268964        2.83376782724518       -0.84495910468831
C            1.58298973280669        2.16953972504752       -1.72946771932789
C            1.18111317654114        0.96000561177875       -2.27531032948338
C           -0.03555938095256        0.40816411368046       -1.92620390755806
C           -2.25776447580478       -0.77022074057236        0.03629530525737
C           -3.69277772221934        2.32459404313605       -1.58237803079779
C           -2.94850447309947        3.29177370360778       -2.26082148740584
C           -3.60552310083490        4.38506788912895       -2.79238458938906
C           -4.98424535733068        4.55040704089258       -2.65947339151249
C           -5.75229817114476        3.59764640353877       -2.00829487901168
C           -5.10364460850529        2.48517670731980       -1.49928388726376
N           -5.63424409985090        1.40081965063494       -0.83147128708335
C           -6.98370108207896        1.33220850020545       -0.43841749494378
C           -7.31031954771830        1.27839705306727        0.91290499570166
C           -8.63685197286293        1.24358461061871        1.29695427369924
C           -9.64129538552210        1.27191409632855        0.34264451064891
C           -9.31578957301443        1.33876475639206       -1.00169256177208
C           -7.99080214472665        1.37165148767191       -1.39667532056200
C            1.02017174127092       -2.11836161464578       -0.24981058070193
C            2.36940353627338       -1.79344012271793       -0.26043053881782
C            2.86367587164670       -0.66340461235896        0.40977274075902
O            3.18837878027815       -2.60673470107069       -0.97082358821897
H           10.47773845860101       -3.66602430381037       -0.57708031286004
H            9.02395775458398       -4.52218433410660       -1.08538781929997
H            9.06903111183980       -3.72922229947714        0.48759709244086
H           10.38250039816165       -2.23952575451196       -2.71153486761180
H            8.90262700697939       -1.35427150200155       -3.09604386160043
H            8.93591736780519       -3.11240890637043       -3.21206102597789
H           10.57902483920233       -1.23295947625053       -0.49703488469093
H            9.23425436871892       -1.20079247855829        0.63835586711093
H            9.17944055266145       -0.22315167215228       -0.84071238483520
H            7.14267395642040       -4.13872748059699       -2.27908021223511
H            4.69711713862070       -4.20284653587967       -2.14464749933411
H            7.14104637054953       -0.58672202916899        0.08282627445634
H            6.67767289706271        1.29931813701125        0.42963097697287
H            9.43396293253687        3.50246525862330        0.78455227476909
H            8.18625334625517        2.82637905199206       -0.25697253796861
H            8.70600812943807        1.95475468414491        1.19785429440870
H            6.55627208934249        5.67125359782977        1.55976259491627
H            8.19913762547688        5.59880926081742        0.92657812268865
H            6.85250259264574        4.97529364577458       -0.03205083278599
H            7.29967059850009        4.40941617535450        3.65181081295065
H            8.94579097720586        4.32535437454830        3.02888162304502
H            8.09783931503551        2.84638102886306        3.49313053267178
H            5.17310971248697        4.45453145523460        2.87392660888488
H            2.98585018027587        3.35011058487230        2.91382502463836
H           -0.09197027035574        0.41398528628195        1.72659348230352
H           -0.04175033615234       -3.90907620885861        1.49360418346857
H           -1.41257906116160       -5.84225905990948        2.22541479967138
H           -3.85728467367863       -5.77947587982317        2.02810397820048
H           -5.01942068109978       -3.79404009052639        1.17582386821865
H           -5.58780921482010       -1.56180896012813        2.50270574395091
H           -7.75362769104283       -2.59948526272521        3.04231075223661
H           -9.41226970815222       -3.00370227065076        1.25690315566855
H           -8.88220378823831       -2.37862001162851       -1.07204218561161
H           -6.72091127451450       -1.33794844106566       -1.61024258042206
H           -1.11846074799723        2.80230046639662        0.19984226110635
H            1.05485854540862        3.77904145249386       -0.42038286097251
H            2.54122783722356        2.59203337591951       -1.99364406006350
H            1.82223733502813        0.44497567706586       -2.97636203493904
H           -0.35065202972243       -0.52931245310107       -2.36160085151989
H           -1.88167809909259        3.18712624105227       -2.37265100099706
H           -3.03578014837324        5.13638141353424       -3.32012155215850
H           -5.45925764574545        5.42684435377890       -3.07304952201068
H           -6.81926502381807        3.72097354339057       -1.90307855927553
H           -6.52191634400469        1.27018759876897        1.65032252172765
H           -8.88709599627547        1.20101595980290        2.34617405075034
H          -10.67647096017802        1.24401060787983        0.64725472556176
H          -10.09573647364320        1.36176685854386       -1.74804182672010
H           -7.72919809215655        1.40801611616257       -2.44383146764760
H            0.66736075166785       -2.97224706829662       -0.80670836824758

          :  Hamiltonian                  GFN2-xTB          :
         :: gradient norm              0.000039287819 Eh/a0 ::
         :: HOMO-LUMO gap              0.084500547439 eV    ::
         :: SCC energy              -176.150673898971 Eh    ::
         :: -> dispersion             -0.180371178698 Eh    ::
         :: -> Gsolv                  -0.062446374145 Eh    ::
         :: repulsion energy           3.048170728021 Eh    ::

    * Orbital Energies and Occupations

         #    Occupation            Energy/Eh            Energy/eV
      -------------------------------------------------------------
         1        2.0000           -0.7238611             -19.6973
       ...           ...                  ...                  ...
       150        2.0000           -0.4019335             -10.9372
       151        2.0000           -0.3979273             -10.8282
       152        2.0000           -0.3930561             -10.6956
       153        2.0000           -0.3918566             -10.6630
       154        2.0000           -0.3902476             -10.6192
       155        2.0000           -0.3847644             -10.4700
       156        2.0000           -0.3839754             -10.4485
       157        2.0000           -0.3797107             -10.3325
       158        2.0000           -0.3762046             -10.2370
       159        2.0000           -0.3695578             -10.0562
       160        1.9690           -0.3626681              -9.8687
       161        1.0310           -0.3561290              -9.6908
       162        0.8367           -0.2665841              -7.2541 (HOMO)
       163        0.1633           -0.2634791              -7.1696 (LUMO)
       164                         -0.2422717              -6.5925
       165                         -0.2369174              -6.4469
       166                         -0.2349932              -6.3945
       167                         -0.2304507              -6.2709
       168                         -0.2278992              -6.2015
       169                         -0.2275052              -6.1907
       170                         -0.2221763              -6.0457
       171                         -0.2208893              -6.0107
       172                         -0.2173484              -5.9144
       173                         -0.2161799              -5.8826
       ...                                ...                  ...
       317                          0.7332170              19.9518
      -------------------------------------------------------------
                  HL-Gap            0.0031050 Eh            0.0845 eV

     #   Z          covCN         q      C6AA      α(0)
     1   6 C        3.761    -0.105    22.555     6.770
     2   6 C        3.902     0.025    20.104     6.374
     3   6 C        3.761    -0.105    22.556     6.770
     4   6 C        3.761    -0.108    22.604     6.778
     5   6 C        2.968    -0.001    28.051     8.688
     6   6 C        2.927    -0.038    28.953     8.824
     7   6 C        2.913    -0.060    29.503     8.907
     8   6 C        2.875     0.128    25.193     8.228
     9   6 C        2.881    -0.094    30.350     9.032
    10   6 C        2.931    -0.050    29.243     8.869
    11   5 B        2.723     0.192    18.507     7.209
    12   6 C        2.881    -0.094    30.354     9.032
    13   6 C        2.931    -0.050    29.241     8.868
    14   6 C        2.968    -0.001    28.056     8.688
    15   6 C        3.902     0.025    20.104     6.373
    16   6 C        3.761    -0.108    22.603     6.777
    17   6 C        3.761    -0.105    22.552     6.770
    18   6 C        3.761    -0.105    22.557     6.770
    19   6 C        2.927    -0.038    28.952     8.824
    20   6 C        2.913    -0.060    29.493     8.905
    21   6 C        2.875     0.129    25.173     8.225
    22   8 O        1.711    -0.250    18.133     5.749
    23   6 C        2.873     0.136    25.026     8.201
    24   6 C        2.916    -0.079    29.986     8.980
    25   6 C        2.918     0.055    26.763     8.483
    26   7 N        2.808    -0.003    21.313     6.857
    27   6 C        3.076     0.042    26.988     8.517
    28   6 C        2.908    -0.046    29.131     8.850
    29   6 C        2.922    -0.043    29.080     8.843
    30   6 C        2.918    -0.032    28.793     8.799
    31   6 C        2.910    -0.042    29.054     8.839
    32   6 C        3.061    -0.012    28.246     8.715
    33   6 C        3.067    -0.038    28.873     8.811
    34   6 C        2.961    -0.011    28.286     8.724
    35   6 C        2.974     0.012    27.746     8.640
    36   6 C        2.924    -0.032    28.800     8.801
    37   6 C        2.918    -0.031    28.765     8.795
    38   6 C        2.920    -0.034    28.851     8.808
    39   6 C        2.918    -0.031    28.769     8.796
    40   6 C        2.924    -0.035    28.872     8.812
    41   6 C        3.062     0.041    27.022     8.524
    42   6 C        3.069    -0.037    28.851     8.807
    43   6 C        2.961    -0.009    28.234     8.716
    44   6 C        2.974     0.013    27.714     8.635
    45   6 C        2.924    -0.031    28.763     8.795
    46   6 C        2.918    -0.028    28.711     8.787
    47   6 C        2.920    -0.034    28.839     8.806
    48   6 C        2.918    -0.031    28.775     8.797
    49   6 C        2.924    -0.035    28.872     8.812
    50   6 C        3.065     0.041    27.011     8.522
    51   6 C        3.061    -0.011    28.236     8.714
    52   6 C        2.911    -0.042    29.042     8.837
    53   6 C        2.918    -0.032    28.792     8.799
    54   6 C        2.922    -0.043    29.062     8.841
    55   6 C        2.908    -0.047    29.176     8.857
    56   6 C        3.076     0.042    26.989     8.518
    57   7 N        2.807    -0.007    21.387     6.868
    58   6 C        2.916     0.063    26.579     8.454
    59   6 C        2.922    -0.035    28.864     8.810
    60   6 C        2.920    -0.025    28.619     8.773
    61   6 C        2.920    -0.028    28.696     8.785
    62   6 C        2.920    -0.026    28.640     8.776
    63   6 C        2.922    -0.037    28.913     8.818
    64   6 C        2.915    -0.081    30.022     8.985
    65   6 C        2.873     0.135    25.041     8.203
    66   6 C        2.887    -0.125    31.182     9.155
    67   8 O        1.711    -0.250    18.133     5.749
    68   1 H        0.925     0.039     2.468     2.457
    69   1 H        0.925     0.035     2.514     2.479
    70   1 H        0.925     0.032     2.559     2.501
    71   1 H        0.925     0.039     2.466     2.456
    72   1 H        0.925     0.033     2.548     2.496
    73   1 H        0.925     0.035     2.513     2.479
    74   1 H        0.925     0.038     2.480     2.463
    75   1 H        0.925     0.036     2.505     2.475
    76   1 H        0.925     0.038     2.474     2.460
    77   1 H        0.926     0.032     2.560     2.502
    78   1 H        0.926     0.032     2.559     2.501
    79   1 H        0.926     0.046     2.365     2.405
    80   1 H        0.926     0.046     2.368     2.406
    81   1 H        0.925     0.038     2.481     2.463
    82   1 H        0.925     0.036     2.506     2.475
    83   1 H        0.925     0.038     2.476     2.461
    84   1 H        0.925     0.035     2.512     2.479
    85   1 H        0.925     0.038     2.470     2.458
    86   1 H        0.925     0.032     2.559     2.501
    87   1 H        0.925     0.035     2.512     2.479
    88   1 H        0.925     0.039     2.467     2.456
    89   1 H        0.925     0.033     2.550     2.497
    90   1 H        0.926     0.032     2.558     2.501
    91   1 H        0.926     0.032     2.560     2.502
    92   1 H        0.926     0.045     2.380     2.412
    93   1 H        0.926     0.031     2.569     2.506
    94   1 H        0.926     0.030     2.580     2.512
    95   1 H        0.926     0.033     2.548     2.496
    96   1 H        0.926     0.035     2.517     2.481
    97   1 H        0.926     0.033     2.551     2.498
    98   1 H        0.926     0.033     2.549     2.497
    99   1 H        0.926     0.031     2.568     2.506
   100   1 H        0.926     0.031     2.569     2.506
   101   1 H        0.926     0.026     2.640     2.541
   102   1 H        0.926     0.033     2.541     2.493
   103   1 H        0.926     0.032     2.563     2.503
   104   1 H        0.926     0.028     2.616     2.529
   105   1 H        0.926     0.027     2.626     2.534
   106   1 H        0.926     0.026     2.640     2.541
   107   1 H        0.926     0.031     2.571     2.507
   108   1 H        0.926     0.031     2.570     2.507
   109   1 H        0.926     0.032     2.561     2.502
   110   1 H        0.926     0.035     2.511     2.478
   111   1 H        0.926     0.043     2.407     2.426
   112   1 H        0.926     0.047     2.364     2.404
   113   1 H        0.926     0.047     2.361     2.403
   114   1 H        0.926     0.048     2.341     2.393
   115   1 H        0.926     0.048     2.341     2.393
   116   1 H        0.926     0.049     2.335     2.389

molecular dipole:
                 x           y           z       tot (Debye)
 q only:       -2.283       0.697      -0.051
   full:       -2.377       0.609      -0.043       6.237

 projected vibrational frequencies (cm⁻¹)
eigval :       -0.00    -0.00    -0.00    -0.00     0.00     0.00
eigval :        9.36     9.68    10.55    20.81    23.71    26.18
eigval :       29.93    37.52    41.22    45.31    50.60    52.99
eigval :       58.65    61.43    65.18    68.53    73.01    82.08
eigval :       87.66    93.72    99.18   106.38   114.40   117.20
eigval :      126.29   137.17   140.14   151.12   157.40   175.51
eigval :      180.11   182.56   191.99   197.20   209.30   210.75
eigval :      222.17   223.93   227.36   228.00   231.15   235.39
eigval :      244.28   249.69   257.33   264.37   268.47   274.48
eigval :      280.71   288.20   299.44   314.85   317.65   319.10
eigval :      327.92   334.81   346.21   360.87   364.86   366.88
eigval :      372.90   376.56   378.53   380.90   384.12   384.83
eigval :      394.70   397.70   407.04   411.59   413.52   431.23
eigval :      432.41   442.38   443.25   458.53   461.13   470.84
eigval :      475.62   487.96   497.46   513.02   515.16   516.53
eigval :      517.17   525.14   532.30   545.38   564.32   568.79
eigval :      575.66   576.96   579.85   582.58   587.95   590.20
eigval :      593.01   600.85   601.44   611.62   621.21   623.30
eigval :      640.13   644.83   648.41   656.51   660.00   662.37
eigval :      667.98   672.46   681.81   684.92   687.80   691.49
eigval :      698.54   710.31   711.08   719.40   728.58   744.60
eigval :      752.43   759.35   760.25   770.22   779.99   784.29
eigval :      817.66   820.71   822.64   825.89   829.46   847.84
eigval :      851.77   854.39   858.49   863.59   868.02   872.24
eigval :      874.38   875.45   876.56   878.17   887.33   888.66
eigval :      891.14   897.16   899.63   900.46   908.43   909.62
eigval :      909.79   910.06   911.50   924.84   926.49   928.67
eigval :      928.94   930.19   931.01   931.36   937.16   958.60
eigval :      959.49   959.80   962.13   962.33   962.97   963.35
eigval :      967.88   974.36   991.24  1016.74  1024.96  1034.35
eigval :     1035.04  1035.46  1035.96  1064.32  1065.21  1067.10
eigval :     1074.95  1077.97  1079.24  1080.75  1095.82  1102.77
eigval :     1109.34  1115.87  1118.18  1120.39  1131.02  1134.33
eigval :     1134.68  1138.24  1152.90  1159.29  1173.86  1176.66
eigval :     1177.08  1178.07  1180.44  1181.85  1185.38  1186.91
eigval :     1194.44  1196.03  1200.06  1211.34  1212.52  1225.36
eigval :     1225.72  1227.94  1228.56  1230.80  1237.12  1241.15
eigval :     1242.59  1244.91  1266.83  1270.92  1275.49  1278.25
eigval :     1278.40  1279.23  1289.16  1290.77  1293.76  1299.62
eigval :     1313.59  1314.68  1316.32  1318.61  1319.55  1320.71
eigval :     1329.15  1349.33  1364.71  1372.08  1377.43  1382.81
eigval :     1385.10  1389.36  1393.73  1397.62  1401.75  1401.98
eigval :     1403.66  1403.97  1405.67  1415.32  1424.38  1425.96
eigval :     1426.64  1427.17  1428.05  1434.07  1439.65  1443.18
eigval :     1449.03  1459.33  1464.03  1466.06  1470.05  1471.65
eigval :     1480.63  1489.12  1489.42  1492.00  1492.64  1497.20
eigval :     1499.93  1501.58  1502.34  1510.33  1511.42  1512.87
eigval :     1516.57  1518.88  1521.96  1540.65  1541.32  1544.69
eigval :     1548.83  1556.72  1557.84  1559.15  1561.30  1570.38
eigval :     1578.29  1578.78  1580.86  1587.77  1588.20  3018.50
eigval :     3019.17  3019.29  3019.59  3023.21  3023.32  3024.36
eigval :     3024.51  3026.42  3026.66  3031.59  3032.31  3036.57
eigval :     3037.73  3043.13  3044.16  3046.55  3046.60  3067.29
eigval :     3067.83  3068.34  3069.57  3073.50  3073.83  3074.81
eigval :     3075.47  3076.77  3077.00  3080.05  3080.12  3080.76
eigval :     3083.35  3083.66  3084.74  3087.95  3088.69  3089.86
eigval :     3089.95  3090.11  3094.32  3095.01  3096.10  3101.05
eigval :     3101.23  3106.46  3112.62  3114.18  3141.38  3147.89

   temp. (K)  partition function   enthalpy   heat capacity  entropy
                                   cal/mol     cal/K/mol   cal/K/mol   J/K/mol
 298.15  VIB  0.934E+26            33945.483    213.215    210.877
         ROT  0.199E+09              888.752      2.981     40.955
         INT  0.186E+35            34834.235    216.196    251.832
         TR   0.246E+29             1481.254      4.968     46.128
         TOT                       36315.4894   221.1640   297.9598  1246.6640

       T/K    H(0)-H(T)+PV         H(T)/Eh          T*S/Eh         G(T)/Eh
   ------------------------------------------------------------------------
    298.15    0.578724E-01    0.969936E+00    0.141570E+00    0.828366E+00
   ------------------------------------------------------------------------

         :::::::::::::::::::::::::::::::::::::::::::::::::::::
         ::                  THERMODYNAMIC                  ::
         :::::::::::::::::::::::::::::::::::::::::::::::::::::
         :: total free energy        -172.274137048939 Eh   ::
         ::.................................................::
         :: total energy             -173.102503172450 Eh   ::
         :: zero point energy           0.912064046705 Eh   ::
         :: G(RRHO) w/o ZPVE           -0.083697923195 Eh   ::
         :: G(RRHO) contrib.            0.828366123511 Eh   ::
         :::::::::::::::::::::::::::::::::::::::::::::::::::::

           -------------------------------------------------
          | TOTAL ENERGY             -173.102503172450 Eh   |
          | TOTAL ENTHALPY           -172.132566709683 Eh   |
          | TOTAL FREE ENERGY        -172.274137048939 Eh   |
          | GRADIENT NORM               0.000039647043 Eh/α |
          | HOMO-LUMO GAP               0.084491062858 eV   |
           -------------------------------------------------

 * finished run on 2025/07/18 at 03:20:14.607
