   * xtb version 6.7.1 (edcfbbe) compiled by 'albert@albert-system' on 2024-07-22

   ID    Z sym.   atoms
    1    6 C      1-6, 8-12, 14, 15, 17-40
    2    5 B      7
    3    7 N      13, 16
    4    1 H      41-73

          program call               : xtb data2507/gas/CzCNoB/CzCNoB_gas_T1_crest.xyz --gfn 2 --spinpol --tblite --uhf 2 --ohess vtight --parallel 40 --molden --ceasefiles --namespace data2507/gas/CzCNoB/CzCNoB_gas_T1_finalOpt
 * total energy  :  -103.0715614 Eh     change       -0.2911499E-07 Eh
 * total energy  :  -103.0715679 Eh     change       -0.6482517E-05 Eh
 * total energy  :  -103.0715709 Eh     change       -0.2955713E-05 Eh
 * total energy  :  -103.0715722 Eh     change       -0.1393552E-05 Eh
 * total energy  :  -103.0715742 Eh     change       -0.1994345E-05 Eh
 * total energy  :  -103.0715754 Eh     change       -0.1144981E-05 Eh
 * total energy  :  -103.0715762 Eh     change       -0.8431540E-06 Eh
 * total energy  :  -103.0715769 Eh     change       -0.7007570E-06 Eh
 * total energy  :  -103.0715773 Eh     change       -0.3651034E-06 Eh
 * total energy  :  -103.0715778 Eh     change       -0.4598117E-06 Eh
 * total energy  :  -103.0715786 Eh     change       -0.3462524E-06 Eh
 * total energy  :  -103.0715789 Eh     change       -0.3232785E-06 Eh
 * total energy  :  -103.0715793 Eh     change       -0.3610681E-06 Eh
 * total energy  :  -103.0715794 Eh     change       -0.1563041E-06 Eh
 * total energy  :  -103.0715796 Eh     change       -0.1315748E-06 Eh
 * total energy  :  -103.0715794 Eh     change        0.1372912E-06 Eh
 * total energy  :  -103.0715796 Eh     change       -0.1829584E-06 Eh
 * total energy  :  -103.0715796 Eh     change       -0.1326225E-07 Eh
 * total energy  :  -103.0715797 Eh     change       -0.6426205E-07 Eh
   *** GEOMETRY OPTIMIZATION CONVERGED AFTER 20 ITERATIONS ***

 final structure:
================
73
 xtb: 6.7.1 (edcfbbe)
C            2.87804736981444        3.94900522084861        1.20333380809777
C            1.74683368247682        2.98320809938008        1.05626771537314
C            0.71520620785592        3.22628007844762        0.15117693617583
C           -0.32745011121888        2.33825791277840       -0.01223653483079
C           -1.42302839943470        2.66776486165080       -0.97722579361604
C           -0.34362637510228        1.11673485503507        0.70260233789857
B           -1.31942296423456       -0.04466734899047        0.31221875307096
C           -0.82070872982709       -1.44400399306776        0.00473566554011
C           -1.68739592885545       -2.57417878537174        0.11200155504794
C           -1.25825867082860       -3.86200121495518        0.06695759147738
C            0.11970743678113       -4.14774518354096       -0.14744476253471
C            0.57531591186850       -5.46159211613835       -0.23368211157268
N            0.95503893545460       -6.55041839997273       -0.28111584436365
C            1.00204309172209       -3.07272402381708       -0.31935767507352
C            0.56495374738275       -1.76810366967951       -0.28727345247859
N            1.52170594699754       -0.76715846148114       -0.48623083483843
C            2.71572499010104       -0.66149035534324        0.19613480272733
C            3.21143385336912       -1.43620804275498        1.23734808185432
C            4.43864748497655       -1.09051789229564        1.77256669598726
C            5.16096554671959       -0.00246032332587        1.29001007281032
C            4.67453136553056        0.77158932347071        0.25046011252864
C            3.44740070348302        0.44373437639841       -0.30101085524045
C            2.66416431572768        0.99870822779619       -1.37287018668075
C            2.86908745905041        2.03775198055530       -2.26534694222856
C            1.92070577737598        2.26185864998029       -3.24761433918895
C            0.79863514277147        1.44668721233668       -3.35994074781677
C            0.57297326725700        0.40623696476395       -2.47779015767588
C            1.49666419081606        0.20675881677702       -1.46347829336100
C           -2.88629159902115        0.23647947126577        0.25615898375862
C           -3.52399087211856        0.80143890504946        1.37257768272366
C           -2.76428204772614        1.11357079223929        2.62691434348916
C           -4.88883606228381        1.04025223752399        1.35250128903082
C           -5.66444528206836        0.74345545724619        0.24117870452131
C           -7.14153571506715        0.99730416370526        0.24636671272303
C           -5.03316810298645        0.18913832881646       -0.85745371288612
C           -3.66618449956947       -0.06516623467550       -0.86832498080036
C           -3.09290548729426       -0.61179244959571       -2.14456439499677
C            0.62848112667450        0.94155167167182        1.71589459286572
C            0.55383492275316       -0.19035451085702        2.69545007448030
C            1.66283129748189        1.85140270768468        1.85441125035929
H            3.13189593263157        4.38991023808096        0.24157642433490
H            3.75515500011793        3.45430889960955        1.61427381188214
H            2.59712741136445        4.75881820895203        1.87838162508962
H            0.74157001743954        4.12940950524547       -0.44282803946000
H           -1.58564977164327        1.84321992365232       -1.66542662992219
H           -1.17789903648733        3.56069022922926       -1.54758686480397
H           -2.35694091668023        2.83996613120217       -0.44320910166432
H           -2.73548714718520       -2.37389834841265        0.28361168432864
H           -1.94767036963561       -4.68451695704659        0.18716233533924
H            2.03960389724632       -3.27611593258293       -0.54885664303057
H            2.66056131304570       -2.28250445935339        1.61762470197123
H            4.84600305358007       -1.67860962179469        2.58133426302244
H            6.11623748408458        0.23552495668916        1.73359988002720
H            5.23732618811111        1.61269388834834       -0.12480441591633
H            3.75592415062006        2.64971287075898       -2.20088080757674
H            2.06104588954386        3.06737738581402       -3.95287203158826
H            0.09395776477024        1.62595901017635       -4.15826049629929
H           -0.28347156970908       -0.23877954859427       -2.58127359483507
H           -3.41750850933221        1.56125340058447        3.37252638008827
H           -2.33841521445618        0.20171195004731        3.04199763330085
H           -1.94717915401938        1.80269661938019        2.42114738828080
H           -5.36286216234235        1.45918332717019        2.22985307570720
H           -7.52993031952942        1.05463186057146       -0.76772941723492
H           -7.65735674395925        0.18681197666178        0.76277234836127
H           -7.37225313006782        1.92499618105080        0.76633666045776
H           -5.61187031774471       -0.04387833673579       -1.74101868676067
H           -2.17444601314955       -1.16095678891253       -1.96407929298650
H           -3.80578142194705       -1.27886973735664       -2.62532224635332
H           -2.88302595249930        0.20357062047298       -2.83956787288946
H            0.02046601889168        0.14238340583198        3.58736540911698
H            0.02065990578734       -1.04430233270879        2.28707952071040
H            1.55048993513654       -0.49703961729959        3.00556679352845
H            2.42329654701205        1.67414291111024        2.60280496651656

 projected vibrational frequencies (cm⁻¹)
eigval :       -0.00    -0.00    -0.00     0.00     0.00     0.00
eigval :       19.31    20.70    29.36    33.35    35.50    39.68
eigval :       45.11    47.52    63.38    69.09    83.04    85.79
eigval :       99.97   105.27   111.31   118.65   129.50   140.11
eigval :      141.10   149.91   160.83   166.46   167.79   178.19
eigval :      179.57   190.43   191.78   204.44   208.34   220.98
eigval :      251.31   274.23   276.52   278.94   289.63   303.12
eigval :      306.69   322.36   327.65   350.80   382.52   391.22
eigval :      403.56   424.70   426.71   435.36   443.47   456.14
eigval :      476.46   481.18   488.02   494.15   499.93   513.02
eigval :      515.03   517.71   526.54   528.26   537.10   538.75
eigval :      560.93   565.83   578.14   585.11   599.63   600.27
eigval :      607.09   611.05   648.97   664.86   668.65   674.19
eigval :      680.75   708.30   753.99   769.96   779.96   796.58
eigval :      803.40   834.95   839.20   850.96   863.36   865.98
eigval :      869.95   873.57   878.63   883.40   895.60   901.85
eigval :      908.94   914.21   920.65   926.09   961.65   962.64
eigval :      966.87   974.34   975.01  1012.40  1013.24  1018.82
eigval :     1023.54  1024.98  1026.80  1028.95  1031.08  1033.36
eigval :     1035.43  1038.07  1042.36  1043.89  1060.56  1067.00
eigval :     1070.38  1086.84  1119.26  1132.99  1141.92  1169.17
eigval :     1178.31  1179.10  1194.78  1197.70  1202.51  1207.73
eigval :     1227.00  1228.22  1231.77  1236.07  1254.84  1277.78
eigval :     1283.38  1293.64  1299.86  1306.75  1318.14  1331.24
eigval :     1336.77  1343.65  1366.05  1379.25  1391.75  1396.79
eigval :     1397.47  1400.36  1401.66  1402.71  1406.63  1412.45
eigval :     1417.77  1420.54  1424.86  1428.76  1438.45  1442.23
eigval :     1461.95  1468.01  1470.26  1473.96  1477.55  1480.01
eigval :     1480.78  1481.41  1482.58  1483.23  1484.01  1485.56
eigval :     1489.14  1494.01  1508.38  1535.76  1547.98  1569.45
eigval :     1576.98  1578.56  1582.87  1585.12  1604.44  2290.90
eigval :     2976.15  2985.38  2988.15  2992.84  3008.52  3012.96
eigval :     3021.58  3027.03  3027.44  3029.07  3030.69  3034.36
eigval :     3035.41  3035.54  3037.28  3046.74  3049.77  3057.79
eigval :     3060.71  3062.48  3063.87  3065.04  3066.05  3071.31
eigval :     3080.16  3081.40  3086.64  3088.13  3088.42  3094.46
eigval :     3096.47  3100.09  3121.95

   temp. (K)  partition function   enthalpy   heat capacity  entropy
                                   cal/mol     cal/K/mol   cal/K/mol   J/K/mol
 298.15  VIB  0.415E+17            22149.779    133.980    138.379
         ROT  0.298E+08              888.752      2.981     37.179
         INT  0.123E+25            23038.532    136.961    175.558
         TR   0.114E+29             1481.254      4.968     44.592
         TOT                       24519.7855   141.9292   220.1499   921.1072

       T/K    H(0)-H(T)+PV         H(T)/Eh          T*S/Eh         G(T)/Eh
   ------------------------------------------------------------------------
    298.15    0.390748E-01    0.618226E+00    0.104600E+00    0.513625E+00
   ------------------------------------------------------------------------

         :::::::::::::::::::::::::::::::::::::::::::::::::::::
         ::                  THERMODYNAMIC                  ::
         :::::::::::::::::::::::::::::::::::::::::::::::::::::
         :: total free energy        -102.557954286657 Eh   ::
         ::.................................................::
         :: total energy             -103.071579720036 Eh   ::
         :: zero point energy           0.579150987390 Eh   ::
         :: G(RRHO) w/o ZPVE           -0.065525554011 Eh   ::
         :: G(RRHO) contrib.            0.513625433379 Eh   ::
         :::::::::::::::::::::::::::::::::::::::::::::::::::::

           -------------------------------------------------
          | TOTAL ENERGY             -103.071579720036 Eh   |
          | TOTAL ENTHALPY           -102.453353967315 Eh   |
          | TOTAL FREE ENERGY        -102.557954286657 Eh   |
          | GRADIENT NORM               0.000037321081 Eh/α |
           -------------------------------------------------

 * finished run on 2025/08/24 at 01:04:05.720
