   * xtb version 6.7.1 (edcfbbe) compiled by 'albert@albert-system' on 2024-07-22

   ID    Z sym.   atoms
    1    6 C      1-6, 8-12, 14, 15, 17-40
    2    5 B      7
    3    7 N      13, 16
    4    1 H      41-73

          program call               : xtb data2507/gas/CzCNoB/CzCNoB_gas_S0_finalOpt.xtbopt.xyz --gfn 2 --spinpol --tblite --uhf 2 --ohess vtight --parallel 40 --molden --ceasefiles --namespace data2507/gas/CzCNoB/CzCNoB_gas_T1_preOpt
 * total energy  :  -103.0650817 Eh     change       -0.2961707E-07 Eh
 * total energy  :  -103.0689229 Eh     change       -0.3841269E-02 Eh
 * total energy  :  -103.0704969 Eh     change       -0.1574025E-02 Eh
 * total energy  :  -103.0707030 Eh     change       -0.2060676E-03 Eh
 * total energy  :  -103.0709434 Eh     change       -0.2403703E-03 Eh
 * total energy  :  -103.0710755 Eh     change       -0.1321437E-03 Eh
 * total energy  :  -103.0712555 Eh     change       -0.1799305E-03 Eh
 * total energy  :  -103.0713819 Eh     change       -0.1264802E-03 Eh
 * total energy  :  -103.0714553 Eh     change       -0.7332877E-04 Eh
 * total energy  :  -103.0714903 Eh     change       -0.3501867E-04 Eh
 * total energy  :  -103.0715777 Eh     change       -0.1665725E-06 Eh
 * total energy  :  -103.0715778 Eh     change       -0.1759343E-06 Eh
 * total energy  :  -103.0715780 Eh     change       -0.1472032E-06 Eh
 * total energy  :  -103.0715781 Eh     change       -0.1317880E-06 Eh
 * total energy  :  -103.0715783 Eh     change       -0.1738304E-06 Eh
 * total energy  :  -103.0715785 Eh     change       -0.1737161E-06 Eh
 * total energy  :  -103.0715785 Eh     change       -0.3129372E-08 Eh
 * total energy  :  -103.0715786 Eh     change       -0.1210459E-06 Eh
 * total energy  :  -103.0715786 Eh     change       -0.2110264E-07 Eh
   *** GEOMETRY OPTIMIZATION CONVERGED AFTER 82 ITERATIONS ***

 final structure:
================
73
 xtb: 6.7.1 (edcfbbe)
C            2.96514345259686        3.89732419686908        1.19178506348195
C            1.81369362103973        2.95530087815149        1.04768074954890
C            0.78978100093485        3.21360642229762        0.13823826089195
C           -0.27117796581444        2.34671941788792       -0.02140604289640
C           -1.35709609628408        2.69236261133217       -0.99167067392291
C           -0.31522243090940        1.13123869920028        0.70246845252213
B           -1.31555362485891       -0.01127534198603        0.31892567609818
C           -0.84683844387900       -1.42315119099523        0.02157027247420
C           -1.73746044319202       -2.53383406326377        0.13599162872889
C           -1.33584382978822       -3.83078277041254        0.09937422274433
C            0.03566501499077       -4.14718866397538       -0.11325344838415
C            0.46318447143892       -5.47096292240939       -0.19147499761419
N            0.81958496584791       -6.56788459434287       -0.23239074114646
C            0.94079971138694       -3.09232304084541       -0.29137720045424
C            0.53170435104974       -1.77848412688192       -0.26748988346380
N            1.51010025722173       -0.79957594375004       -0.47122369356122
C            2.70439826242937       -0.71527455311489        0.21360678243587
C            3.18056029870197       -1.49387995722520        1.26100599275784
C            4.41353087446324       -1.17129850531101        1.79740077925477
C            5.16038994585869       -0.10216090281854        1.30993178807745
C            4.69355095658942        0.67543557160472        0.26405510322066
C            3.46102690561654        0.37064127134763       -0.28864106228424
C            2.69279533429467        0.93523857836996       -1.36629900441667
C            2.92256124877361        1.96376977911416       -2.26487521302336
C            1.98193795704013        2.20183072553271       -3.25129877260217
C            0.84279415235690        1.41038233770082       -3.36146994692726
C            0.59219612042911        0.38097287769285       -2.47311278330670
C            1.50861584156013        0.16815725597564       -1.45490263483022
C           -2.87549969968261        0.30461480764894        0.25692762210229
C           -3.50235233215984        0.89486223704098        1.36703887844896
C           -2.73862175662569        1.19721484347318        2.62130602726924
C           -4.85999843266706        1.16811461121816        1.34012342630833
C           -5.63993520336464        0.88116140592621        0.22834061943307
C           -7.10674872742739        1.18906835550770        0.22771463770515
C           -5.02009695603719        0.30122847151362       -0.86260477410258
C           -3.65934210627472        0.01219554021409       -0.86657296487095
C           -3.09757476435589       -0.56119402198391       -2.13615397366496
C            0.65069181425650        0.94269648213702        1.71934285420644
C            0.54960954027887       -0.18045202126664        2.70660292372496
C            1.70375250978645        1.83126504135990        1.85385090078805
H            3.21490539074411        4.34645713127005        0.23286272275227
H            3.83769600830610        3.38011744434847        1.58448072532440
H            2.70917967013843        4.70263840573534        1.88200256664220
H            0.83675718263047        4.11149630479909       -0.46239495028787
H           -1.09095522615587        3.57483821294853       -1.56882320499970
H           -2.28805398217881        2.88977568453786       -0.46121629884494
H           -1.53675532077229        1.86595644963907       -1.67337817288530
H           -2.78111759619735       -2.31011132627109        0.30556068849486
H           -2.04262293374515       -4.63763110545363        0.22475404212903
H            1.97391717906842       -3.31920950150371       -0.51893125128891
H            2.61046071811543       -2.32559129327365        1.64510343350343
H            4.80593538869497       -1.76273433903712        2.61110308427130
H            6.11945785308578        0.11794590353129        1.75456624125767
H            5.27564345456566        1.50137901019241       -0.11545759183374
H            3.82200353040012        2.55714466728542       -2.20146888551541
H            2.14151560624600        2.99954623458401       -3.96132308969093
H            0.14438428484941        1.59949656496382       -4.16301581819522
H           -0.27773675584019       -0.24603159117907       -2.57502336213003
H           -3.38318665922133        1.66435707894253        3.36250232469395
H           -2.33456784349316        0.27849473556992        3.04297315140594
H           -1.90553380144423        1.86625915639448        2.41326602380021
H           -5.32703520676113        1.60612507719285        2.21189485136978
H           -7.54794692423756        0.98051851650892       -0.74363365533179
H           -7.61912428582896        0.58620342863188        0.97718989990965
H           -7.27679772300012        2.23693856105927        0.47143113663503
H           -5.60103711316961        0.07381961983366       -1.74616527320503
H           -2.87971674402813        0.24074216705450       -2.84417940418300
H           -2.18582001316141       -1.11959151442166       -1.95042776208424
H           -3.82077647266405       -1.22615302715133       -2.60428330149612
H            0.02152714824197        0.16984613686780        3.59493348982247
H           -0.00084500726309       -1.02561141440680        2.30290732433948
H            1.53876010977632       -0.50626937807226        3.02117561268263
H            2.45865949940464        1.64341059772933        2.60527809136734

 projected vibrational frequencies (cm⁻¹)
eigval :       -0.00    -0.00    -0.00     0.00     0.00     0.00
eigval :      -23.65    18.94    28.66    33.05    35.97    39.57
eigval :       44.94    46.94    63.56    69.04    82.51    85.69
eigval :      100.03   105.72   111.22   118.15   129.79   139.96
eigval :      141.17   150.20   161.01   166.42   168.06   178.03
eigval :      178.85   190.14   192.45   204.62   208.66   220.83
eigval :      251.21   273.93   276.34   278.54   289.58   303.09
eigval :      306.87   322.49   327.66   350.81   382.59   391.07
eigval :      403.64   424.78   426.52   435.36   443.55   455.82
eigval :      476.38   481.18   487.49   494.53   500.00   512.62
eigval :      515.08   517.81   526.67   528.67   537.10   538.73
eigval :      561.05   565.61   578.46   585.23   599.71   599.97
eigval :      606.98   611.12   649.31   664.87   668.40   674.22
eigval :      680.80   708.30   753.96   769.96   779.94   796.50
eigval :      803.24   835.30   839.24   851.01   863.24   865.94
eigval :      870.08   873.67   878.71   883.48   895.57   901.80
eigval :      908.99   914.11   920.62   925.96   961.37   962.43
eigval :      966.81   974.47   974.93  1012.30  1013.16  1019.18
eigval :     1023.85  1025.05  1026.17  1028.79  1030.77  1033.91
eigval :     1035.50  1038.39  1042.22  1043.97  1060.61  1066.88
eigval :     1070.35  1087.00  1119.43  1132.87  1141.83  1168.86
eigval :     1178.23  1179.17  1194.82  1197.37  1202.57  1206.99
eigval :     1227.04  1228.24  1231.75  1235.91  1254.69  1277.71
eigval :     1283.29  1293.39  1298.06  1306.98  1318.05  1332.78
eigval :     1337.22  1343.64  1366.09  1379.38  1391.68  1396.86
eigval :     1397.67  1400.20  1401.71  1403.04  1406.89  1412.45
eigval :     1417.75  1420.19  1424.87  1428.82  1438.45  1442.15
eigval :     1461.86  1468.40  1470.58  1474.09  1477.57  1480.13
eigval :     1481.15  1481.89  1482.13  1482.59  1484.30  1486.92
eigval :     1488.92  1493.85  1508.25  1535.59  1547.96  1569.40
eigval :     1577.00  1578.50  1583.55  1585.01  1604.41  2291.08
eigval :     2976.74  2985.62  2988.21  3001.74  3008.69  3013.09
eigval :     3017.03  3022.08  3027.51  3030.83  3031.34  3034.68
eigval :     3034.94  3035.95  3043.08  3046.85  3050.04  3058.61
eigval :     3061.13  3062.36  3064.10  3065.03  3066.12  3071.72
eigval :     3080.16  3081.45  3086.67  3088.17  3088.54  3094.52
eigval :     3096.40  3099.93  3121.70

   temp. (K)  partition function   enthalpy   heat capacity  entropy
                                   cal/mol     cal/K/mol   cal/K/mol   J/K/mol
 298.15  VIB  0.417E+16            21589.393    132.935    133.934
         ROT  0.298E+08              888.752      2.981     37.179
         INT  0.124E+24            22478.145    135.915    171.112
         TR   0.114E+29             1481.254      4.968     44.592
         TOT                       23959.3992   140.8836   215.7041   902.5058

       T/K    H(0)-H(T)+PV         H(T)/Eh          T*S/Eh         G(T)/Eh
   ------------------------------------------------------------------------
    298.15    0.381817E-01    0.617308E+00    0.102488E+00    0.514820E+00
   ------------------------------------------------------------------------

         :::::::::::::::::::::::::::::::::::::::::::::::::::::
         ::                  THERMODYNAMIC                  ::
         :::::::::::::::::::::::::::::::::::::::::::::::::::::
         :: total free energy        -102.556758686699 Eh   ::
         ::.................................................::
         :: total energy             -103.071578608655 Eh   ::
         :: zero point energy           0.579126150836 Eh   ::
         :: G(RRHO) w/o ZPVE           -0.064306228880 Eh   ::
         :: G(RRHO) contrib.            0.514819921957 Eh   ::
         :::::::::::::::::::::::::::::::::::::::::::::::::::::

           -------------------------------------------------
          | TOTAL ENERGY             -103.071578608655 Eh   |
          | TOTAL ENTHALPY           -102.454270724834 Eh   |
          | TOTAL FREE ENERGY        -102.556758686699 Eh   |
          | GRADIENT NORM               0.000157254361 Eh/α |
           -------------------------------------------------

 * finished run on 2025/08/24 at 00:59:25.380
