   * xtb version 6.7.1 (edcfbbe) compiled by 'albert@albert-system' on 2024-07-22

   ID    Z sym.   atoms
    1    6 C      1-6, 8-12, 14, 15, 17-40
    2    5 B      7
    3    7 N      13, 16
    4    1 H      41-73

          program call               : xtb data2507/gas/CzCNoB/CzCNoB.xyz --gfn 2 --ohess vtight --parallel 40 --molden --ceasefiles --namespace data2507/gas/CzCNoB/CzCNoB_gas_S0_preOpt
          :  Hamiltonian                  GFN2-xTB          :
 * total energy  :  -103.0933396 Eh     change       -0.4593687E-08 Eh
 * total energy  :  -103.1286748 Eh     change       -0.3533523E-01 Eh
 * total energy  :  -103.1374747 Eh     change       -0.8799931E-02 Eh
 * total energy  :  -103.1398417 Eh     change       -0.2366935E-02 Eh
 * total energy  :  -103.1414046 Eh     change       -0.1562883E-02 Eh
 * total energy  :  -103.1421987 Eh     change       -0.7941538E-03 Eh
 * total energy  :  -103.1426967 Eh     change       -0.4979603E-03 Eh
 * total energy  :  -103.1430516 Eh     change       -0.3549693E-03 Eh
 * total energy  :  -103.1435528 Eh     change       -0.5011652E-03 Eh
 * total energy  :  -103.1440560 Eh     change       -0.5032111E-03 Eh
 * total energy  :  -103.1496653 Eh     change        0.2048359E-06 Eh
 * total energy  :  -103.1496649 Eh     change        0.3401139E-06 Eh
 * total energy  :  -103.1496644 Eh     change        0.5199009E-06 Eh
 * total energy  :  -103.1496661 Eh     change       -0.1677914E-05 Eh
 * total energy  :  -103.1496666 Eh     change       -0.5104481E-06 Eh
 * total energy  :  -103.1496668 Eh     change       -0.2100283E-06 Eh
 * total energy  :  -103.1496673 Eh     change       -0.5238855E-06 Eh
 * total energy  :  -103.1496675 Eh     change       -0.1847040E-06 Eh
 * total energy  :  -103.1496676 Eh     change       -0.8559314E-07 Eh
   *** GEOMETRY OPTIMIZATION CONVERGED AFTER 189 ITERATIONS ***

 final structure:
================
73
 xtb: 6.7.1 (edcfbbe)
C            3.52024975237829        3.31920561364312       -1.20334130379417
C            2.29483962923940        2.55022234634789       -0.81793389683501
C            1.39397710374209        2.10785620344489       -1.77569849695983
C            0.27385877079220        1.36982014791916       -1.43452145895982
C           -0.67844750400790        0.96356471434515       -2.52117404679911
C            0.03663882861788        1.01750715485735       -0.09234014316531
B           -1.10023041693758       -0.00101206546805        0.25586775197389
C           -0.77009674728929       -1.26152716777988        1.14901523013702
C           -1.79632623689006       -1.76443728266272        1.96327485884408
C           -1.60541811318746       -2.79479470085804        2.85839094822978
C           -0.34569255088549       -3.38694388088751        2.95874643175821
C           -0.12478150263147       -4.44827556415933        3.86533647592895
N            0.05233784397864       -5.30678171617542        4.60430234012443
C            0.69587947991339       -2.92685691307145        2.15806087446247
C            0.49358691251409       -1.87581443514770        1.27213674067624
N            1.61474261729201       -1.43650250992568        0.54590215704122
C            2.76210155403460       -0.93208128003171        1.12738022923651
C            3.08857988125814       -0.79851757097909        2.46879049820206
C            4.30609581389860       -0.22510256905377        2.78332289676303
C            5.18327121313247        0.20845365428671        1.79207216643641
C            4.86624466698499        0.07186392309005        0.45546777916628
C            3.64993231276191       -0.50380333517134        0.11528357464415
C            3.01630360346797       -0.80537241902529       -1.13587809102066
C            3.40390681344822       -0.66417308156151       -2.46070586397413
C            2.56192430301987       -1.13116941617677       -3.44985352623349
C            1.35834280315240       -1.75330157668791       -3.12933297434315
C            0.94723622385213       -1.89454481516146       -1.81775461727599
C            1.76830476848112       -1.38959176887522       -0.82282967448232
C           -2.59165512815150        0.22722554395761       -0.18153285469808
C           -3.22861618236246        1.44387937400985        0.13719216273960
C           -2.50479023821019        2.51894296954644        0.89410890063138
C           -4.55297070693175        1.65888569795576       -0.20201603593742
C           -5.29850181023123        0.70208998507386       -0.87685278035461
C           -6.72157068010799        0.96858413537934       -1.25953398650059
C           -4.67778772154440       -0.49290756903163       -1.19455967869977
C           -3.35508623379490       -0.74213852594887       -0.85342989011042
C           -2.77506651846188       -2.05694233153693       -1.28914417781361
C            0.90039998255722        1.54463834110319        0.88159067357240
C            0.61034564922531        1.41239571885631        2.34931466101945
C            2.00879309266928        2.29068966911453        0.51190249616037
H            3.83361266210391        3.06418479734352       -2.21296711249691
H            4.33450639359032        3.10873514556492       -0.51338944552220
H            3.31881465072318        4.39078594188733       -1.17143507249331
H            1.57707968685535        2.33544243813034       -2.81672135010003
H           -0.25456429846825        1.18066116508602       -3.49886391531904
H           -1.61415768720999        1.51312779760512       -2.42026663160259
H           -0.90642587345872       -0.09613630781332       -2.47133294328862
H           -2.77403629806503       -1.31038448245536        1.88941491579104
H           -2.41642236171334       -3.14855091286417        3.47729147087590
H            1.67109312647555       -3.38795362460353        2.22425780443151
H            2.41668588755704       -1.13002184924330        3.24701029050619
H            4.58326873105829       -0.11109537822257        3.82123117230550
H            6.12459024784480        0.65335894893398        2.07927555878963
H            5.54686510545604        0.40369326427429       -0.31402322197410
H            4.35109576152234       -0.20847630344280       -2.70677778877477
H            2.84478273204109       -1.03294517124653       -4.48750925180556
H            0.73500265024212       -2.13809308894375       -3.92347995636204
H            0.02398784873527       -2.39600244061969       -1.57485359101979
H           -3.15143814766380        3.38010096742250        1.04683758268090
H           -2.18633895839786        2.15089090731658        1.86750802612456
H           -1.61812709736355        2.84075425059384        0.35267808015674
H           -5.02116122464532        2.59655407879387        0.06497960935741
H           -7.24093077548811        1.50411062377956       -0.46722976604619
H           -6.75603157658043        1.58607406211562       -2.15790271565217
H           -7.25027768624501        0.04080871939922       -1.46503954263720
H           -5.23591871621145       -1.25619495844404       -1.71955615121022
H           -2.37133187712440       -1.96899389118186       -2.29922053092672
H           -1.97854003952064       -2.38224061791427       -0.62717232583961
H           -3.54670992989170       -2.82422380498025       -1.30924733896687
H            0.16071130938884        2.33925514370430        2.70964001576125
H           -0.08100785226048        0.60074719588790        2.55792620633903
H            1.52999502271219        1.25466025998373        2.90864235611412
H            2.67047725522196        2.66413142663440        1.28127321302568

          :  Hamiltonian                  GFN2-xTB          :
         :: gradient norm              0.000069575338 Eh/a0 ::
         :: HOMO-LUMO gap              1.858324274410 eV    ::
         :: SCC energy              -105.070936618020 Eh    ::
         :: -> dispersion             -0.112797582913 Eh    ::
         :: repulsion energy           1.921269015864 Eh    ::

    * Orbital Energies and Occupations

         #    Occupation            Energy/Eh            Energy/eV
      -------------------------------------------------------------
         1        2.0000           -0.6760632             -18.3966
       ...           ...                  ...                  ...
        85        2.0000           -0.4195780             -11.4173
        86        2.0000           -0.4178907             -11.3714
        87        2.0000           -0.4167140             -11.3394
        88        2.0000           -0.4144781             -11.2785
        89        2.0000           -0.4081610             -11.1066
        90        2.0000           -0.4048332             -11.0161
        91        2.0000           -0.3993176             -10.8660
        92        2.0000           -0.3875255             -10.5451
        93        2.0000           -0.3857016             -10.4955
        94        2.0000           -0.3805642             -10.3557
        95        2.0000           -0.3762911             -10.2394
        96        2.0000           -0.3728888             -10.1468
        97        2.0000           -0.3621147              -9.8536 (HOMO)
        98                         -0.2938225              -7.9953 (LUMO)
        99                         -0.2505337              -6.8174
       100                         -0.2475895              -6.7373
       101                         -0.2422213              -6.5912
       102                         -0.2228245              -6.0634
       103                         -0.2158419              -5.8734
       104                         -0.2134848              -5.8092
       105                         -0.2081873              -5.6651
       106                         -0.2079649              -5.6590
       107                         -0.1977974              -5.3823
       108                         -0.1907288              -5.1900
       ...                                ...                  ...
       193                          1.1696921              31.8289
      -------------------------------------------------------------
                  HL-Gap            0.0682922 Eh            1.8583 eV

     #   Z          covCN         q      C6AA      α(0)
     1   6 C        3.758    -0.106    22.581     6.775
     2   6 C        2.964     0.016    27.648     8.625
     3   6 C        2.930    -0.054    29.339     8.883
     4   6 C        2.967     0.013    27.731     8.638
     5   6 C        3.759    -0.111    22.677     6.789
     6   6 C        2.890    -0.085    30.119     8.998
     7   5 B        2.708     0.254    17.661     7.048
     8   6 C        2.880    -0.067    29.670     8.930
     9   6 C        2.925    -0.029    28.716     8.788
    10   6 C        2.920    -0.027    28.681     8.782
    11   6 C        2.973     0.020    27.558     8.611
    12   6 C        1.912     0.112    28.342     8.598
    13   7 N        0.911    -0.232    26.075     7.385
    14   6 C        2.930    -0.035    28.868     8.811
    15   6 C        2.912     0.068    26.467     8.436
    16   7 N        2.805    -0.049    22.179     6.995
    17   6 C        3.082     0.050    26.799     8.487
    18   6 C        2.910    -0.050    29.231     8.865
    19   6 C        2.924    -0.034    28.853     8.809
    20   6 C        2.920    -0.041    29.022     8.834
    21   6 C        2.913    -0.032    28.791     8.799
    22   6 C        3.070    -0.014    28.300     8.723
    23   6 C        3.071    -0.015    28.319     8.725
    24   6 C        2.913    -0.031    28.778     8.797
    25   6 C        2.920    -0.041    29.007     8.832
    26   6 C        2.925    -0.032    28.807     8.802
    27   6 C        2.911    -0.052    29.293     8.875
    28   6 C        3.079     0.050    26.804     8.488
    29   6 C        2.887    -0.085    30.123     8.998
    30   6 C        2.967     0.013    27.718     8.636
    31   6 C        3.759    -0.114    22.734     6.797
    32   6 C        2.930    -0.056    29.384     8.890
    33   6 C        2.963     0.015    27.666     8.627
    34   6 C        3.758    -0.108    22.613     6.780
    35   6 C        2.931    -0.056    29.392     8.891
    36   6 C        2.966     0.012    27.748     8.640
    37   6 C        3.760    -0.107    22.586     6.775
    38   6 C        2.967     0.011    27.764     8.643
    39   6 C        3.759    -0.108    22.605     6.778
    40   6 C        2.931    -0.054    29.353     8.885
    41   1 H        0.925     0.041     2.440     2.443
    42   1 H        0.925     0.042     2.418     2.432
    43   1 H        0.924     0.045     2.387     2.416
    44   1 H        0.925     0.025     2.663     2.552
    45   1 H        0.925     0.037     2.486     2.466
    46   1 H        0.925     0.047     2.362     2.403
    47   1 H        0.925     0.043     2.416     2.430
    48   1 H        0.926     0.043     2.406     2.426
    49   1 H        0.926     0.041     2.439     2.442
    50   1 H        0.926     0.046     2.375     2.410
    51   1 H        0.926     0.024     2.677     2.558
    52   1 H        0.926     0.028     2.611     2.527
    53   1 H        0.926     0.027     2.625     2.534
    54   1 H        0.926     0.031     2.575     2.509
    55   1 H        0.926     0.031     2.571     2.508
    56   1 H        0.926     0.028     2.620     2.531
    57   1 H        0.926     0.027     2.627     2.535
    58   1 H        0.926     0.022     2.698     2.569
    59   1 H        0.925     0.038     2.472     2.459
    60   1 H        0.925     0.040     2.444     2.445
    61   1 H        0.925     0.051     2.311     2.378
    62   1 H        0.925     0.025     2.652     2.547
    63   1 H        0.925     0.042     2.420     2.433
    64   1 H        0.924     0.046     2.372     2.408
    65   1 H        0.925     0.040     2.447     2.446
    66   1 H        0.925     0.025     2.659     2.550
    67   1 H        0.924     0.040     2.445     2.445
    68   1 H        0.925     0.036     2.504     2.474
    69   1 H        0.925     0.040     2.455     2.450
    70   1 H        0.924     0.042     2.418     2.432
    71   1 H        0.925     0.031     2.567     2.506
    72   1 H        0.925     0.042     2.417     2.431
    73   1 H        0.925     0.024     2.667     2.554

molecular dipole:
                 x           y           z       tot (Debye)
 q only:       -0.588       1.159      -0.801
   full:       -0.719       1.413      -1.002       4.767

 projected vibrational frequencies (cm⁻¹)
eigval :       -0.00    -0.00    -0.00    -0.00     0.00     0.00
eigval :       12.76    21.96    25.82    29.26    31.54    36.26
eigval :       41.03    48.77    56.43    60.98    84.59    91.82
eigval :      100.93   102.86   120.65   127.73   130.85   136.31
eigval :      141.95   146.70   160.95   164.36   169.01   176.82
eigval :      181.79   185.83   195.80   202.86   204.58   217.28
eigval :      248.61   274.77   275.04   279.63   285.56   310.59
eigval :      320.29   326.59   331.79   342.94   387.61   398.82
eigval :      412.33   426.81   437.17   447.96   451.86   464.40
eigval :      486.11   489.34   493.45   498.61   507.92   513.39
eigval :      519.42   527.42   536.63   540.32   541.53   544.13
eigval :      569.56   583.66   589.14   597.30   602.25   604.13
eigval :      621.04   630.24   671.45   674.10   679.82   691.49
eigval :      703.62   707.74   755.97   770.42   782.21   806.92
eigval :      829.49   838.87   840.59   867.50   874.52   874.57
eigval :      886.59   887.39   890.25   890.42   899.54   900.79
eigval :      905.99   921.05   924.82   926.49   963.92   964.87
eigval :      976.46   978.45   988.05  1013.66  1020.08  1023.43
eigval :     1029.27  1029.65  1030.56  1032.28  1033.68  1034.66
eigval :     1041.45  1042.30  1044.40  1044.74  1069.37  1071.75
eigval :     1074.41  1111.42  1144.59  1151.90  1163.93  1173.70
eigval :     1179.60  1181.82  1182.37  1207.27  1216.74  1222.04
eigval :     1235.73  1236.94  1237.66  1243.87  1260.57  1289.47
eigval :     1302.01  1302.96  1304.54  1307.23  1333.47  1336.64
eigval :     1341.58  1362.07  1365.21  1396.00  1399.83  1400.80
eigval :     1402.17  1404.13  1406.07  1409.97  1426.10  1429.25
eigval :     1429.72  1436.05  1449.62  1454.32  1460.13  1477.41
eigval :     1478.16  1479.51  1481.78  1482.08  1483.43  1485.43
eigval :     1485.97  1486.51  1488.38  1490.18  1492.53  1494.21
eigval :     1500.30  1520.84  1558.51  1559.32  1569.00  1576.68
eigval :     1593.07  1601.27  1601.93  1604.02  1618.48  2373.90
eigval :     2982.82  2984.40  2991.99  2995.04  3005.42  3020.45
eigval :     3027.18  3028.10  3032.01  3033.05  3033.35  3036.38
eigval :     3037.08  3038.65  3038.92  3050.22  3057.88  3063.48
eigval :     3064.27  3064.83  3066.34  3068.64  3072.26  3074.04
eigval :     3077.87  3080.36  3082.03  3085.64  3086.49  3092.45
eigval :     3094.42  3094.79  3107.75

   temp. (K)  partition function   enthalpy   heat capacity  entropy
                                   cal/mol     cal/K/mol   cal/K/mol   J/K/mol
 298.15  VIB  0.885E+17            22001.734    132.209    137.852
         ROT  0.299E+08              888.752      2.981     37.190
         INT  0.265E+25            22890.487    135.190    175.042
         TR   0.114E+29             1481.254      4.968     44.592
         TOT                       24371.7405   140.1585   219.6335   918.9467

       T/K    H(0)-H(T)+PV         H(T)/Eh          T*S/Eh         G(T)/Eh
   ------------------------------------------------------------------------
    298.15    0.388388E-01    0.621339E+00    0.104355E+00    0.516984E+00
   ------------------------------------------------------------------------

         :::::::::::::::::::::::::::::::::::::::::::::::::::::
         ::                  THERMODYNAMIC                  ::
         :::::::::::::::::::::::::::::::::::::::::::::::::::::
         :: total free energy        -102.632683996170 Eh   ::
         ::.................................................::
         :: total energy             -103.149667602157 Eh   ::
         :: zero point energy           0.582499744299 Eh   ::
         :: G(RRHO) w/o ZPVE           -0.065516138313 Eh   ::
         :: G(RRHO) contrib.            0.516983605987 Eh   ::
         :::::::::::::::::::::::::::::::::::::::::::::::::::::

           -------------------------------------------------
          | TOTAL ENERGY             -103.149667602157 Eh   |
          | TOTAL ENTHALPY           -102.528329017096 Eh   |
          | TOTAL FREE ENERGY        -102.632683996170 Eh   |
          | GRADIENT NORM               0.000069530377 Eh/α |
          | HOMO-LUMO GAP               1.858325617434 eV   |
           -------------------------------------------------

 * finished run on 2025/08/24 at 00:54:59.047
