   * xtb version 6.7.1 (edcfbbe) compiled by 'albert@albert-system' on 2024-07-22

   ID    Z sym.   atoms
    1    6 C      1-6, 8-12, 14, 15, 17-40
    2    5 B      7
    3    7 N      13, 16
    4    1 H      41-73

          program call               : xtb data2507/gas/CzCNoB/CzCNoB_gas_S0_crest.xyz --gfn 2 --ohess vtight --parallel 40 --molden --ceasefiles --namespace data2507/gas/CzCNoB/CzCNoB_gas_S0_finalOpt
          :  Hamiltonian                  GFN2-xTB          :
 * total energy  :  -103.1496629 Eh     change       -0.4074977E-08 Eh
 * total energy  :  -103.1496608 Eh     change        0.2048163E-05 Eh
 * total energy  :  -103.1496641 Eh     change       -0.3211703E-05 Eh
 * total energy  :  -103.1496647 Eh     change       -0.6187325E-06 Eh
 * total energy  :  -103.1496655 Eh     change       -0.8101042E-06 Eh
 * total energy  :  -103.1496668 Eh     change       -0.1290486E-05 Eh
 * total energy  :  -103.1496673 Eh     change       -0.4815031E-06 Eh
 * total energy  :  -103.1496678 Eh     change       -0.5720114E-06 Eh
 * total energy  :  -103.1496687 Eh     change       -0.8903997E-06 Eh
 * total energy  :  -103.1496693 Eh     change       -0.6169776E-06 Eh
 * total energy  :  -103.1496696 Eh     change       -0.2783424E-06 Eh
 * total energy  :  -103.1496698 Eh     change       -0.2067310E-06 Eh
 * total energy  :  -103.1496698 Eh     change        0.2662119E-09 Eh
 * total energy  :  -103.1496700 Eh     change       -0.1524468E-06 Eh
 * total energy  :  -103.1496702 Eh     change       -0.1818577E-06 Eh
 * total energy  :  -103.1496702 Eh     change       -0.9313027E-08 Eh
   *** GEOMETRY OPTIMIZATION CONVERGED AFTER 16 ITERATIONS ***

 final structure:
================
73
 xtb: 6.7.1 (edcfbbe)
C            2.92560548167321        3.99609639386215        1.33995130624543
C            1.79606664447358        3.03274530375296        1.14634185802070
C            0.81135558361865        3.25679639567600        0.19585623153149
C           -0.21752096593487        2.35406983983329       -0.01214369891987
C           -1.27112094103955        2.68670959760390       -1.02803056991284
C           -0.27040070225946        1.15508132104080        0.72327158761978
B           -1.29739066510056        0.04249727398551        0.32545298001821
C           -0.79172387645141       -1.43419195613007        0.08197238197450
C           -1.68455656426305       -2.47877981026944        0.36637140233588
C           -1.33135024681357       -3.80856280609784        0.28798790224503
C           -0.03694321118132       -4.14849706989799       -0.10772264444999
C            0.34914720371580       -5.50475753209609       -0.20081442813526
N            0.66023898473811       -6.60603557794941       -0.27161572264262
C            0.87521556946643       -3.14220730246696       -0.41243971148240
C            0.51077818842829       -1.80510247245288       -0.31224980878054
N            1.51265049864370       -0.85570201218222       -0.58088147315613
C            2.69228733215570       -0.75606106609806        0.13160167815958
C            3.16593241277538       -1.54078067753420        1.17265801231987
C            4.38107656199557       -1.20114894308501        1.73672507939971
C            5.11354926161490       -0.10736244724505        1.28167449013308
C            4.64946758963030        0.67369496326787        0.24230915190344
C            3.43221090431157        0.35070054662529       -0.34126718800528
C            2.67265281375936        0.91769488289488       -1.41800592508767
C            2.89394088790634        1.97507307625553       -2.28882988946925
C            1.96713531156311        2.21899296575620       -3.28224936704834
C            0.84393261490881        1.40906795217114       -3.42660942635325
C            0.59767967480938        0.35825128745867       -2.56390386967472
C            1.50221876208920        0.13521527230899       -1.53870219871492
C           -2.84094201754099        0.32098547225339        0.23746878373394
C           -3.50381367455311        0.90216479663982        1.33805004068631
C           -2.75733442428730        1.24743920804503        2.59351721339400
C           -4.86826858051039        1.12813346027880        1.30265160754721
C           -5.63284323345438        0.80944984402388        0.18820663925421
C           -7.10447033689933        1.08614459869695        0.16887232924770
C           -4.98781881611942        0.24012164712176       -0.89467277185484
C           -3.62197190036548       -0.01190724575425       -0.88151314084938
C           -3.02483903645652       -0.59148959911490       -2.13157523518043
C            0.67504967839274        0.97668393289619        1.74682485624189
C            0.57207374657866       -0.15582903586974        2.72797798255199
C            1.68788948995165        1.90270078759381        1.94021925525567
H            3.05702653873323        4.62044367487336        0.45956115169821
H            3.85114264494750        3.45897026029670        1.53723685319106
H            2.72631577179537        4.64595432401184        2.19288342956042
H            0.85353115863715        4.15368202012472       -0.40650672051067
H           -0.97929616839897        3.56030475259265       -1.60620867555960
H           -2.21487604647440        2.90298341978864       -0.52768181121021
H           -1.43729321840797        1.86031348477170       -1.71118810387897
H           -2.68846496232848       -2.22166874782211        0.67225711060680
H           -2.04240154866870       -4.58576170102776        0.52519260985670
H            1.87604134947711       -3.39948926658152       -0.72895179386203
H            2.60735056030698       -2.39132031299857        1.53530785183577
H            4.77136355976976       -1.79799451579829        2.54820176378073
H            6.05849845091734        0.12571399027016        1.74990067111905
H            5.21830121282071        1.51901937129941       -0.11475044785774
H            3.78010843925597        2.58419345694095       -2.19392821239680
H            2.12034156565497        3.03593886297485       -3.97182299157640
H            0.15262421380402        1.60407205741586       -4.23366120759945
H           -0.26337577260262       -0.27789985092414       -2.69325298828001
H           -3.42923290966427        1.68216523437933        3.33016622260453
H           -2.30425546509414        0.35665847120995        3.02434885501569
H           -1.96156606854993        1.95893084986720        2.38502816401172
H           -5.35466898306703        1.56490357825634        2.16427063398113
H           -7.57787442110118        0.62064690348807       -0.69209051345408
H           -7.57691750237612        0.71190644002003        1.07564114501804
H           -7.28288893005998        2.16056462064487        0.12068628721055
H           -5.55912294752835       -0.01943831788891       -1.77556882521262
H           -2.75639565227927        0.20999916317308       -2.82193135838247
H           -2.13430175073924       -1.17417060270435       -1.91747884211446
H           -3.74687881689272       -1.23115938248721       -2.63563837434759
H            0.11681758540206        0.21035347795857        3.64978239073155
H           -0.04168717745416       -0.96902612740098        2.35077732288483
H            1.55990938989578       -0.53658314358513        2.97841347216327
H            2.41700160290049        1.72884947156273        2.71958249447104

          :  Hamiltonian                  GFN2-xTB          :
         :: gradient norm              0.000195477040 Eh/a0 ::
         :: HOMO-LUMO gap              1.858954051434 eV    ::
         :: SCC energy              -105.070894926394 Eh    ::
         :: -> dispersion             -0.112809966046 Eh    ::
         :: repulsion energy           1.921224766085 Eh    ::

    * Orbital Energies and Occupations

         #    Occupation            Energy/Eh            Energy/eV
      -------------------------------------------------------------
         1        2.0000           -0.6760777             -18.3970
       ...           ...                  ...                  ...
        85        2.0000           -0.4196007             -11.4179
        86        2.0000           -0.4179611             -11.3733
        87        2.0000           -0.4167473             -11.3403
        88        2.0000           -0.4144306             -11.2772
        89        2.0000           -0.4081299             -11.1058
        90        2.0000           -0.4049153             -11.0183
        91        2.0000           -0.3993284             -10.8663
        92        2.0000           -0.3874915             -10.5442
        93        2.0000           -0.3856075             -10.4929
        94        2.0000           -0.3805435             -10.3551
        95        2.0000           -0.3763318             -10.2405
        96        2.0000           -0.3729623             -10.1488
        97        2.0000           -0.3621576              -9.8548 (HOMO)
        98                         -0.2938424              -7.9959 (LUMO)
        99                         -0.2505169              -6.8169
       100                         -0.2476107              -6.7378
       101                         -0.2422264              -6.5913
       102                         -0.2227711              -6.0619
       103                         -0.2158911              -5.8747
       104                         -0.2134759              -5.8090
       105                         -0.2082058              -5.6656
       106                         -0.2080192              -5.6605
       107                         -0.1978697              -5.3843
       108                         -0.1906539              -5.1880
       ...                                ...                  ...
       193                          1.1694127              31.8213
      -------------------------------------------------------------
                  HL-Gap            0.0683152 Eh            1.8590 eV

     #   Z          covCN         q      C6AA      α(0)
     1   6 C        3.758    -0.106    22.583     6.775
     2   6 C        2.964     0.016    27.648     8.625
     3   6 C        2.929    -0.054    29.337     8.883
     4   6 C        2.967     0.013    27.730     8.638
     5   6 C        3.759    -0.111    22.677     6.789
     6   6 C        2.890    -0.085    30.119     8.998
     7   5 B        2.708     0.254    17.662     7.048
     8   6 C        2.880    -0.067    29.672     8.930
     9   6 C        2.925    -0.029    28.716     8.788
    10   6 C        2.920    -0.027    28.681     8.782
    11   6 C        2.973     0.020    27.558     8.611
    12   6 C        1.912     0.112    28.342     8.598
    13   7 N        0.911    -0.232    26.075     7.385
    14   6 C        2.930    -0.035    28.869     8.812
    15   6 C        2.912     0.068    26.468     8.436
    16   7 N        2.805    -0.049    22.176     6.994
    17   6 C        3.082     0.050    26.800     8.487
    18   6 C        2.910    -0.050    29.231     8.865
    19   6 C        2.924    -0.034    28.854     8.809
    20   6 C        2.920    -0.041    29.022     8.834
    21   6 C        2.913    -0.032    28.794     8.799
    22   6 C        3.070    -0.014    28.301     8.723
    23   6 C        3.071    -0.015    28.319     8.726
    24   6 C        2.913    -0.031    28.777     8.797
    25   6 C        2.920    -0.040    29.006     8.832
    26   6 C        2.925    -0.032    28.805     8.802
    27   6 C        2.911    -0.052    29.290     8.874
    28   6 C        3.079     0.050    26.804     8.488
    29   6 C        2.887    -0.085    30.122     8.998
    30   6 C        2.967     0.013    27.719     8.636
    31   6 C        3.759    -0.114    22.734     6.797
    32   6 C        2.930    -0.056    29.388     8.890
    33   6 C        2.963     0.015    27.666     8.627
    34   6 C        3.758    -0.108    22.613     6.780
    35   6 C        2.931    -0.056    29.389     8.891
    36   6 C        2.966     0.012    27.749     8.640
    37   6 C        3.760    -0.107    22.585     6.775
    38   6 C        2.967     0.011    27.763     8.643
    39   6 C        3.759    -0.108    22.605     6.778
    40   6 C        2.931    -0.055    29.356     8.886
    41   1 H        0.925     0.040     2.450     2.448
    42   1 H        0.925     0.043     2.405     2.425
    43   1 H        0.924     0.045     2.389     2.417
    44   1 H        0.925     0.025     2.665     2.553
    45   1 H        0.925     0.037     2.486     2.466
    46   1 H        0.925     0.047     2.362     2.403
    47   1 H        0.925     0.043     2.414     2.430
    48   1 H        0.926     0.043     2.405     2.425
    49   1 H        0.926     0.041     2.439     2.442
    50   1 H        0.926     0.046     2.375     2.410
    51   1 H        0.926     0.024     2.676     2.558
    52   1 H        0.926     0.028     2.610     2.526
    53   1 H        0.926     0.027     2.624     2.533
    54   1 H        0.926     0.030     2.582     2.513
    55   1 H        0.926     0.031     2.567     2.506
    56   1 H        0.926     0.028     2.620     2.531
    57   1 H        0.926     0.027     2.626     2.534
    58   1 H        0.926     0.022     2.698     2.568
    59   1 H        0.925     0.038     2.472     2.459
    60   1 H        0.925     0.040     2.445     2.445
    61   1 H        0.925     0.051     2.312     2.378
    62   1 H        0.925     0.026     2.650     2.546
    63   1 H        0.925     0.040     2.455     2.450
    64   1 H        0.925     0.043     2.406     2.426
    65   1 H        0.925     0.045     2.378     2.411
    66   1 H        0.925     0.025     2.661     2.551
    67   1 H        0.924     0.040     2.446     2.446
    68   1 H        0.925     0.036     2.505     2.475
    69   1 H        0.925     0.040     2.455     2.450
    70   1 H        0.924     0.042     2.418     2.432
    71   1 H        0.925     0.031     2.566     2.505
    72   1 H        0.925     0.042     2.418     2.432
    73   1 H        0.925     0.025     2.665     2.553

molecular dipole:
                 x           y           z       tot (Debye)
 q only:       -0.743       1.306       0.258
   full:       -0.908       1.606       0.300       4.752

 projected vibrational frequencies (cm⁻¹)
eigval :       -0.00    -0.00    -0.00     0.00     0.00     0.00
eigval :       13.30    13.89    25.66    28.88    31.21    36.27
eigval :       41.11    48.65    57.29    61.26    85.00    91.79
eigval :      100.83   102.96   120.56   128.27   130.96   136.02
eigval :      141.96   146.86   160.97   164.25   169.18   176.92
eigval :      181.71   185.95   195.93   203.16   204.87   216.92
eigval :      248.52   274.51   275.06   279.17   285.40   310.83
eigval :      320.35   326.51   332.04   343.19   387.58   398.77
eigval :      412.24   426.86   437.19   448.16   451.67   464.11
eigval :      486.47   489.78   493.28   498.76   507.71   513.44
eigval :      519.43   527.50   536.22   540.63   541.52   544.16
eigval :      569.60   583.67   589.21   597.48   602.37   603.85
eigval :      620.99   630.30   671.47   674.04   679.86   691.37
eigval :      703.61   707.73   755.97   770.35   782.18   807.03
eigval :      829.50   838.80   840.78   867.26   874.43   874.64
eigval :      886.60   887.54   890.12   890.61   899.55   900.70
eigval :      906.16   921.00   924.82   926.50   963.72   964.87
eigval :      976.09   978.32   988.14  1013.69  1019.99  1023.56
eigval :     1029.37  1029.84  1030.39  1032.23  1033.78  1034.96
eigval :     1041.46  1042.26  1044.22  1044.67  1069.45  1071.67
eigval :     1074.55  1111.46  1144.66  1151.95  1163.95  1173.68
eigval :     1179.59  1181.85  1182.40  1207.20  1216.72  1221.93
eigval :     1235.78  1236.84  1237.62  1243.90  1260.62  1289.54
eigval :     1300.89  1303.01  1304.53  1308.00  1333.50  1337.29
eigval :     1341.65  1362.18  1365.17  1395.91  1399.87  1400.83
eigval :     1402.14  1404.09  1405.93  1409.95  1425.96  1429.26
eigval :     1429.83  1435.97  1449.66  1454.43  1459.90  1477.51
eigval :     1478.14  1479.50  1481.31  1481.67  1483.41  1485.49
eigval :     1486.42  1486.64  1488.62  1490.13  1492.70  1494.29
eigval :     1500.20  1520.80  1558.66  1559.29  1569.03  1576.70
eigval :     1593.03  1601.25  1601.99  1604.16  1618.54  2373.36
eigval :     2982.43  2984.40  2993.65  2999.95  3005.20  3020.28
eigval :     3021.55  3027.02  3029.26  3031.92  3032.91  3036.64
eigval :     3038.64  3039.52  3041.60  3050.13  3058.29  3063.56
eigval :     3064.63  3065.15  3066.26  3068.84  3072.39  3074.07
eigval :     3077.77  3080.50  3082.14  3085.34  3086.53  3092.53
eigval :     3094.38  3094.70  3107.73

   temp. (K)  partition function   enthalpy   heat capacity  entropy
                                   cal/mol     cal/K/mol   cal/K/mol   J/K/mol
 298.15  VIB  0.132E+18            22010.519    132.186    138.192
         ROT  0.299E+08              888.752      2.981     37.190
         INT  0.396E+25            22899.271    135.167    175.382
         TR   0.114E+29             1481.254      4.968     44.592
         TOT                       24380.5253   140.1352   219.9739   920.3707

       T/K    H(0)-H(T)+PV         H(T)/Eh          T*S/Eh         G(T)/Eh
   ------------------------------------------------------------------------
    298.15    0.388528E-01    0.621342E+00    0.104517E+00    0.516826E+00
   ------------------------------------------------------------------------

         :::::::::::::::::::::::::::::::::::::::::::::::::::::
         ::                  THERMODYNAMIC                  ::
         :::::::::::::::::::::::::::::::::::::::::::::::::::::
         :: total free energy        -102.632844419662 Eh   ::
         ::.................................................::
         :: total energy             -103.149670160302 Eh   ::
         :: zero point energy           0.582489589858 Eh   ::
         :: G(RRHO) w/o ZPVE           -0.065663849217 Eh   ::
         :: G(RRHO) contrib.            0.516825740640 Eh   ::
         :::::::::::::::::::::::::::::::::::::::::::::::::::::

           -------------------------------------------------
          | TOTAL ENERGY             -103.149670160302 Eh   |
          | TOTAL ENTHALPY           -102.528327730258 Eh   |
          | TOTAL FREE ENERGY        -102.632844419662 Eh   |
          | GRADIENT NORM               0.000195235742 Eh/α |
          | HOMO-LUMO GAP               1.858952457941 eV   |
           -------------------------------------------------

 * finished run on 2025/08/24 at 00:59:15.260
