   * xtb version 6.7.1 (edcfbbe) compiled by 'albert@albert-system' on 2024-07-22

   ID    Z sym.   atoms
    1    7 N      1, 6, 14, 20, 28, 36
    2    6 C      2-5, 7-13, 15-19, 21-27, 29-35
    3    1 H      37-52

          program call               : xtb data2507/gas/δ-2CbPN/δ-2CbPN_gas_S0_crest.xyz --gfn 2 --ohess vtight --parallel 40 --molden --ceasefiles --namespace data2507/gas/δ-2CbPN/δ-2CbPN_gas_S0_finalOpt
          :  Hamiltonian                  GFN2-xTB          :
 * total energy  :   -89.9298248 Eh     change       -0.1457039E-08 Eh
 * total energy  :   -89.9298251 Eh     change       -0.2185536E-06 Eh
 * total energy  :   -89.9298255 Eh     change       -0.4192811E-06 Eh
 * total energy  :   -89.9298259 Eh     change       -0.4048405E-06 Eh
 * total energy  :   -89.9298252 Eh     change        0.6757729E-06 Eh
 * total energy  :   -89.9298251 Eh     change        0.1305186E-06 Eh
 * total energy  :   -89.9298267 Eh     change       -0.1661948E-05 Eh
 * total energy  :   -89.9298270 Eh     change       -0.2125420E-06 Eh
 * total energy  :   -89.9298272 Eh     change       -0.2163024E-06 Eh
 * total energy  :   -89.9298274 Eh     change       -0.1928296E-06 Eh
 * total energy  :   -89.9298276 Eh     change       -0.1905564E-06 Eh
 * total energy  :   -89.9298277 Eh     change       -0.1592155E-06 Eh
 * total energy  :   -89.9298278 Eh     change       -0.1059762E-06 Eh
 * total energy  :   -89.9298279 Eh     change       -0.9359194E-07 Eh
   *** GEOMETRY OPTIMIZATION CONVERGED AFTER 14 ITERATIONS ***

 final structure:
================
52
 xtb: 6.7.1 (edcfbbe)
N            5.94622062951473       -1.83373404480793        0.84331985212276
C            4.96939038248179       -1.28832219088120        0.59758852111009
C            3.75030698237487       -0.63761664430807        0.29638133070237
C            2.54239964525968       -1.25621607843047        0.59713297411104
C            1.33264949966839       -0.63356093579083        0.31486769357442
N            0.13570618589127       -1.26124177127966        0.65714190203835
C           -0.27472740466279       -2.51678386641269        0.22057983950597
C            0.43055036513610       -3.47658077546720       -0.48817831195972
C           -0.23523241645063       -4.63805594139509       -0.83547376317053
C           -1.57106101411767       -4.84145482360235       -0.49832764628607
C           -2.28401417592761       -3.88041256561658        0.19033378167339
C           -1.63321631909523       -2.70890715393408        0.55171533945521
C           -2.06254814094641       -1.51613405089201        1.22830201347052
N           -3.24506357104156       -1.20583220779924        1.73347584718009
C           -3.34296601053586       -0.02961227625063        2.32311981243393
C           -2.27922556774649        0.85619200964719        2.48747893823413
C           -1.03229770861007        0.54151872017849        1.97355356667851
C           -0.93860788870820       -0.65441894634363        1.28156847081637
C            1.33248123116329        0.63404697728564       -0.31349209599114
N            0.13532622110808        1.26121673816710       -0.65594585917805
C           -0.27577584437908        2.51675678351605       -0.21999689453336
C            0.42902822233418        3.47744376600711        0.48802042815877
C           -0.23729086472841        4.63891672378796        0.83432272207854
C           -1.57320723554722        4.84143748192883        0.49700342197559
C           -2.28573623051719        3.87945789421738       -0.19079025611717
C           -1.63438470282786        2.70796985951992       -0.55121449126233
C           -2.06311296024969        1.51460611018242       -1.22714625342187
N           -3.24551584431162        1.20330882249009       -1.73197536586060
C           -3.34272784294539        0.02680375579382       -2.32117324506258
C           -2.27834493106152       -0.85820458517257       -2.48565814999444
C           -1.03154008668296       -0.54247402599895       -1.97208494218882
C           -0.93864040876947        0.65359018759498       -1.28021313651092
C            2.54210300870906        1.25692888642244       -0.59584221752373
C            3.75014417997733        0.63845566686199       -0.29536966238167
C            4.96909219968420        1.28909637596211       -0.59726312623045
N            5.94582169691757        1.83438869009260       -0.84363597661958
H            2.54291610320880       -2.21766539406759        1.08882494814297
H            1.46153777856308       -3.32841056310004       -0.77402770077584
H            0.29515096272542       -5.40192965724616       -1.38407617007260
H           -2.05225874701667       -5.76297556268668       -0.78850384767082
H           -3.32247506091989       -4.01581122075104        0.44592944340649
H           -4.32286041597960        0.21400195738871        2.70920044630054
H           -2.42553049149322        1.78228499170233        3.02023019117113
H           -0.18500669223328        1.19662675739693        2.11714980916948
H            1.46009212650910        3.33002268337950        0.77397294539143
H            0.29275512986187        5.40351904296846        1.38223966481664
H           -2.05480155717793        5.76302590068885        0.78631281226569
H           -3.32424999308145        4.01416547837390       -0.44654046048754
H           -4.32256439449083       -0.21769411875004       -2.70683974630711
H           -2.42404153974242       -1.78449718724228       -3.01823159497660
H           -0.18374883433357       -1.19688942277345       -2.11586883286347
H            2.54242813974304        2.21836214264566       -1.08755751613739

          :  Hamiltonian                  GFN2-xTB          :
         :: gradient norm              0.000028904128 Eh/a0 ::
         :: HOMO-LUMO gap              1.724548562416 eV    ::
         :: SCC energy               -91.612507539138 Eh    ::
         :: -> dispersion             -0.086423257340 Eh    ::
         :: repulsion energy           1.682679629139 Eh    ::

    * Orbital Energies and Occupations

         #    Occupation            Energy/Eh            Energy/eV
      -------------------------------------------------------------
         1        2.0000           -0.7196803             -19.5835
       ...           ...                  ...                  ...
        71        2.0000           -0.4469011             -12.1608
        72        2.0000           -0.4450146             -12.1095
        73        2.0000           -0.4427067             -12.0467
        74        2.0000           -0.4402286             -11.9792
        75        2.0000           -0.4401376             -11.9768
        76        2.0000           -0.4351559             -11.8412
        77        2.0000           -0.4343476             -11.8192
        78        2.0000           -0.4089637             -11.1285
        79        2.0000           -0.4025080             -10.9528
        80        2.0000           -0.3955470             -10.7634
        81        2.0000           -0.3926255             -10.6839
        82        2.0000           -0.3791970             -10.3185
        83        2.0000           -0.3785945             -10.3021 (HOMO)
        84                         -0.3152187              -8.5775 (LUMO)
        85                         -0.2932384              -7.9794
        86                         -0.2757575              -7.5037
        87                         -0.2753711              -7.4932
        88                         -0.2545486              -6.9266
        89                         -0.2455969              -6.6830
        90                         -0.2330266              -6.3410
        91                         -0.2314491              -6.2981
        92                         -0.2266992              -6.1688
        93                         -0.2222684              -6.0482
        94                         -0.2111325              -5.7452
       ...                                ...                  ...
       160                          1.1690979              31.8128
      -------------------------------------------------------------
                  HL-Gap            0.0633758 Eh            1.7245 eV

     #   Z          covCN         q      C6AA      α(0)
     1   7 N        0.911    -0.207    25.499     7.303
     2   6 C        1.910     0.114    28.289     8.590
     3   6 C        2.975     0.023    27.488     8.600
     4   6 C        2.929    -0.035    28.865     8.811
     5   6 C        2.910     0.061    26.636     8.463
     6   7 N        2.797    -0.050    22.213     7.000
     7   6 C        3.072     0.049    26.836     8.494
     8   6 C        2.910    -0.049    29.221     8.864
     9   6 C        2.925    -0.029    28.713     8.787
    10   6 C        2.921    -0.035    28.881     8.813
    11   6 C        2.913    -0.024    28.601     8.770
    12   6 C        3.064    -0.018    28.384     8.736
    13   6 C        3.072     0.072    26.310     8.410
    14   7 N        1.833    -0.224    26.724     7.661
    15   6 C        2.925     0.055    26.768     8.485
    16   6 C        2.923    -0.042    29.041     8.837
    17   6 C        2.915    -0.032    28.802     8.801
    18   6 C        3.069     0.038    27.079     8.533
    19   6 C        2.910     0.061    26.636     8.463
    20   7 N        2.797    -0.050    22.213     7.000
    21   6 C        3.072     0.049    26.836     8.494
    22   6 C        2.910    -0.049    29.221     8.864
    23   6 C        2.925    -0.029    28.713     8.787
    24   6 C        2.921    -0.035    28.881     8.813
    25   6 C        2.913    -0.024    28.601     8.770
    26   6 C        3.064    -0.018    28.384     8.736
    27   6 C        3.072     0.072    26.310     8.410
    28   7 N        1.833    -0.224    26.724     7.661
    29   6 C        2.925     0.055    26.768     8.485
    30   6 C        2.923    -0.042    29.041     8.837
    31   6 C        2.915    -0.032    28.802     8.801
    32   6 C        3.070     0.038    27.079     8.533
    33   6 C        2.929    -0.035    28.865     8.811
    34   6 C        2.975     0.023    27.488     8.600
    35   6 C        1.910     0.114    28.289     8.590
    36   7 N        0.911    -0.207    25.499     7.303
    37   1 H        0.926     0.062     2.178     2.308
    38   1 H        0.926     0.028     2.610     2.527
    39   1 H        0.926     0.040     2.452     2.449
    40   1 H        0.926     0.040     2.445     2.445
    41   1 H        0.926     0.054     2.270     2.356
    42   1 H        0.926     0.045     2.390     2.417
    43   1 H        0.926     0.039     2.467     2.456
    44   1 H        0.926     0.025     2.657     2.549
    45   1 H        0.926     0.028     2.610     2.526
    46   1 H        0.926     0.040     2.452     2.449
    47   1 H        0.926     0.040     2.445     2.445
    48   1 H        0.926     0.054     2.270     2.356
    49   1 H        0.926     0.045     2.389     2.417
    50   1 H        0.926     0.039     2.467     2.456
    51   1 H        0.926     0.025     2.656     2.549
    52   1 H        0.926     0.062     2.178     2.308

molecular dipole:
                 x           y           z       tot (Debye)
 q only:       -1.269       0.000       0.000
   full:       -1.300       0.001       0.000       3.304

 projected vibrational frequencies (cm⁻¹)
eigval :       -0.00    -0.00     0.00     0.00     0.00     0.00
eigval :       21.27    29.16    37.50    44.70    47.47    51.98
eigval :       87.29    96.67   107.41   108.70   118.48   136.40
eigval :      146.07   162.27   172.40   189.70   195.47   207.07
eigval :      261.01   265.68   280.73   285.67   309.96   310.11
eigval :      349.81   390.47   398.85   403.74   419.70   422.45
eigval :      428.18   434.66   445.93   446.00   480.27   481.88
eigval :      520.42   521.76   530.09   531.21   543.32   547.28
eigval :      552.76   567.80   589.56   596.31   596.62   599.75
eigval :      652.08   657.40   668.96   680.67   683.36   691.26
eigval :      710.97   725.41   725.65   750.30   760.89   771.24
eigval :      777.53   777.71   799.83   800.66   840.92   868.24
eigval :      872.39   884.81   894.03   901.39   902.77   904.22
eigval :      908.96   910.74   910.79   919.65   919.82   926.22
eigval :      926.47   960.98  1022.81  1023.86  1067.57  1068.09
eigval :     1078.07  1091.52  1091.59  1120.46  1139.21  1145.49
eigval :     1145.79  1165.52  1169.21  1179.11  1180.19  1203.76
eigval :     1211.84  1220.50  1229.18  1232.29  1255.75  1284.86
eigval :     1285.57  1293.53  1294.83  1309.76  1319.46  1332.21
eigval :     1332.57  1354.88  1355.56  1363.62  1380.12  1399.99
eigval :     1410.39  1423.54  1424.37  1468.82  1470.61  1481.53
eigval :     1484.09  1484.38  1503.44  1553.82  1561.31  1561.45
eigval :     1582.85  1582.90  1588.07  1589.06  1606.21  1606.76
eigval :     2375.09  2375.74  3069.36  3069.52  3072.61  3072.84
eigval :     3078.27  3078.28  3088.45  3088.47  3098.24  3098.28
eigval :     3099.33  3099.74  3103.81  3103.89  3113.53  3113.62

   temp. (K)  partition function   enthalpy   heat capacity  entropy
                                   cal/mol     cal/K/mol   cal/K/mol   J/K/mol
 298.15  VIB  0.560E+11            15388.642     99.559     93.617
         ROT  0.107E+08              888.752      2.981     35.142
         INT  0.598E+18            16277.395    102.540    128.759
         TR   0.956E+28             1481.254      4.968     44.250
         TOT                       17758.6484   107.5082   173.0089   723.8691

       T/K    H(0)-H(T)+PV         H(T)/Eh          T*S/Eh         G(T)/Eh
   ------------------------------------------------------------------------
    298.15    0.283002E-01    0.403036E+00    0.822021E-01    0.320833E+00
   ------------------------------------------------------------------------

         :::::::::::::::::::::::::::::::::::::::::::::::::::::
         ::                  THERMODYNAMIC                  ::
         :::::::::::::::::::::::::::::::::::::::::::::::::::::
         :: total free energy         -89.608994471735 Eh   ::
         ::.................................................::
         :: total energy              -89.929827909999 Eh   ::
         :: zero point energy           0.374735324055 Eh   ::
         :: G(RRHO) w/o ZPVE           -0.053901885791 Eh   ::
         :: G(RRHO) contrib.            0.320833438264 Eh   ::
         :::::::::::::::::::::::::::::::::::::::::::::::::::::

           -------------------------------------------------
          | TOTAL ENERGY              -89.929827909999 Eh   |
          | TOTAL ENTHALPY            -89.526792378264 Eh   |
          | TOTAL FREE ENERGY         -89.608994471735 Eh   |
          | GRADIENT NORM               0.000028944207 Eh/α |
          | HOMO-LUMO GAP               1.724544146455 eV   |
           -------------------------------------------------

 * finished run on 2025/07/16 at 17:14:38.111
