   * xtb version 6.7.1 (edcfbbe) compiled by 'albert@albert-system' on 2024-07-22

   ID    Z sym.   atoms
    1    7 N      1, 6, 14, 20, 28, 36
    2    6 C      2-5, 7-13, 15-19, 21-27, 29-35
    3    1 H      37-52

          program call               : xtb data2507/gas/δ-2CbPN/δ-2CbPN.xyz --gfn 2 --ohess vtight --parallel 40 --molden --ceasefiles --namespace data2507/gas/δ-2CbPN/δ-2CbPN_gas_S0_preOpt
          :  Hamiltonian                  GFN2-xTB          :
 * total energy  :   -89.9081588 Eh     change       -0.2848893E-08 Eh
 * total energy  :   -89.9228523 Eh     change       -0.1469347E-01 Eh
 * total energy  :   -89.9261677 Eh     change       -0.3315451E-02 Eh
 * total energy  :   -89.9266448 Eh     change       -0.4770421E-03 Eh
 * total energy  :   -89.9271937 Eh     change       -0.5489282E-03 Eh
 * total energy  :   -89.9274607 Eh     change       -0.2670496E-03 Eh
 * total energy  :   -89.9275876 Eh     change       -0.1269087E-03 Eh
 * total energy  :   -89.9276753 Eh     change       -0.8761353E-04 Eh
 * total energy  :   -89.9277510 Eh     change       -0.7576959E-04 Eh
 * total energy  :   -89.9278491 Eh     change       -0.9804568E-04 Eh
 * total energy  :   -89.9298281 Eh     change        0.6951788E-07 Eh
 * total energy  :   -89.9298284 Eh     change       -0.3363499E-06 Eh
 * total energy  :   -89.9298284 Eh     change        0.1754049E-07 Eh
 * total energy  :   -89.9298285 Eh     change       -0.1055062E-06 Eh
 * total energy  :   -89.9298285 Eh     change       -0.3442025E-08 Eh
 * total energy  :   -89.9298283 Eh     change        0.1610758E-06 Eh
 * total energy  :   -89.9298286 Eh     change       -0.2947719E-06 Eh
 * total energy  :   -89.9298286 Eh     change        0.1601705E-09 Eh
 * total energy  :   -89.9298287 Eh     change       -0.4656469E-07 Eh
   *** GEOMETRY OPTIMIZATION CONVERGED AFTER 50 ITERATIONS ***

 final structure:
================
52
 xtb: 6.7.1 (edcfbbe)
N           -1.81442672802945       -6.24728822935154        0.88549368136662
C           -1.27486209187770       -5.27056428724393        0.62675394585858
C           -0.63120972625232       -4.05154896574248        0.31048302486571
C           -1.24281354968584       -2.84352147828026        0.62478930402414
C           -0.62660111811457       -1.63390242601119        0.32822284706574
N           -1.24629401431064       -0.43674144398718        0.68417068581256
C           -2.51034677938295       -0.02540013948426        0.27372350401671
C           -3.48605104943910       -0.73076518064028       -0.41285272901088
C           -4.65371539623174       -0.06399482215464       -0.73672666027588
C           -4.84794117449818        1.27285622427687       -0.39824667982345
C           -3.87146457249180        1.98580871140519        0.26834782111639
C           -2.69349592074343        1.33402008091847        0.60613093886246
C           -1.48593396848292        1.76308660108822        1.25613120470746
N           -1.16296274754365        2.94637179322225        1.75145151071880
C            0.02591775576525        3.04387757382656        2.31520968161919
C            0.91323447443257        1.97904306141505        2.46347466144668
C            0.58558858556959        0.73132853945196        1.95965435382870
C           -0.62491304809666        0.63799228624621        1.29343634122135
C            0.62649446060603       -1.63401520633837       -0.32863030225590
N            1.24633568720868       -0.43696886545716       -0.68470504868257
C            2.51032956422461       -0.02569782635639       -0.27398229497489
C            3.48587831285571       -0.73115675983423        0.41271886079025
C            4.65344402205643       -0.06441255979754        0.73700525745957
C            4.84772176920788        1.27249999868281        0.39879911165590
C            3.87141689572978        1.98552637143072       -0.26796650713469
C            2.69355559848404        1.33376270718203       -0.60617023393951
C            1.48611922083156        1.76293269820942       -1.25633439917768
N            1.16326601064309        2.94628986335108       -1.75155776207030
C           -0.02553341766411        3.04390903971325       -2.31546663851633
C           -0.91290795828563        1.97914634651654       -2.46390717441967
C           -0.58538980846147        0.73136094119419       -1.96017773479557
C            0.62506126829203        0.63787504789281       -1.29388883293395
C            1.24265009246848       -2.84373525696978       -0.62490626336558
C            0.63105107063373       -4.05165393816547       -0.31019899996871
C            1.27465727451728       -5.27077483522768       -0.62622354799518
N            1.81431197807810       -6.24761419823028       -0.88425272447565
H           -2.19288330280123       -2.84383194147727        1.13811960881062
H           -3.34546574148231       -1.76255574340595       -0.69961798898432
H           -5.42991069437441       -0.59443115885045       -1.26769837803765
H           -5.77478759844858        1.75477312621485       -0.66965000306549
H           -3.99989190922674        3.02498219104955        0.52462810162183
H            0.27944438216766        4.02440368694574        2.69320317385281
H            1.85079879759736        2.12516364285556        2.97581699603455
H            1.24223637397555       -0.11672031721280        2.09125174102109
H            3.34524657452219       -1.76299714905343        0.69928295890702
H            5.42951153672564       -0.59491901747169        1.26809306873218
H            5.77445290863843        1.75441794441056        0.67059488950171
H            3.99987087478407        3.02475327468860       -0.52401644585002
H           -0.27898714741735        4.02450291090777       -2.69333486429271
H           -1.85042620956484        2.12538894082377       -2.97629894653582
H           -1.24208252562118       -0.11663479266278       -2.09190834306128
H            2.19270470851260       -2.84422406449630       -1.13826577128075

          :  Hamiltonian                  GFN2-xTB          :
         :: gradient norm              0.000080454447 Eh/a0 ::
         :: HOMO-LUMO gap              1.723791710472 eV    ::
         :: SCC energy               -91.612510893008 Eh    ::
         :: -> dispersion             -0.086501354086 Eh    ::
         :: repulsion energy           1.682682214370 Eh    ::

    * Orbital Energies and Occupations

         #    Occupation            Energy/Eh            Energy/eV
      -------------------------------------------------------------
         1        2.0000           -0.7196735             -19.5833
       ...           ...                  ...                  ...
        71        2.0000           -0.4468901             -12.1605
        72        2.0000           -0.4450204             -12.1096
        73        2.0000           -0.4427128             -12.0468
        74        2.0000           -0.4402202             -11.9790
        75        2.0000           -0.4401347             -11.9767
        76        2.0000           -0.4351506             -11.8411
        77        2.0000           -0.4343334             -11.8188
        78        2.0000           -0.4089915             -11.1292
        79        2.0000           -0.4024618             -10.9515
        80        2.0000           -0.3955452             -10.7633
        81        2.0000           -0.3926213             -10.6838
        82        2.0000           -0.3791811             -10.3180
        83        2.0000           -0.3785781             -10.3016 (HOMO)
        84                         -0.3152299              -8.5778 (LUMO)
        85                         -0.2932406              -7.9795
        86                         -0.2757523              -7.5036
        87                         -0.2753577              -7.4929
        88                         -0.2545658              -6.9271
        89                         -0.2455518              -6.6818
        90                         -0.2330092              -6.3405
        91                         -0.2314613              -6.2984
        92                         -0.2267008              -6.1688
        93                         -0.2222870              -6.0487
        94                         -0.2111280              -5.7451
       ...                                ...                  ...
       160                          1.1690904              31.8126
      -------------------------------------------------------------
                  HL-Gap            0.0633481 Eh            1.7238 eV

     #   Z          covCN         q      C6AA      α(0)
     1   7 N        0.911    -0.207    25.498     7.303
     2   6 C        1.910     0.114    28.289     8.590
     3   6 C        2.975     0.023    27.488     8.600
     4   6 C        2.929    -0.035    28.864     8.811
     5   6 C        2.910     0.061    26.636     8.463
     6   7 N        2.797    -0.051    22.215     7.000
     7   6 C        3.072     0.049    26.836     8.494
     8   6 C        2.910    -0.049    29.221     8.864
     9   6 C        2.925    -0.029    28.713     8.787
    10   6 C        2.921    -0.035    28.881     8.813
    11   6 C        2.913    -0.024    28.601     8.770
    12   6 C        3.064    -0.018    28.385     8.736
    13   6 C        3.072     0.072    26.310     8.410
    14   7 N        1.833    -0.224    26.724     7.661
    15   6 C        2.925     0.055    26.767     8.484
    16   6 C        2.923    -0.042    29.041     8.837
    17   6 C        2.915    -0.032    28.802     8.801
    18   6 C        3.070     0.038    27.079     8.533
    19   6 C        2.910     0.061    26.636     8.463
    20   7 N        2.797    -0.051    22.215     7.000
    21   6 C        3.072     0.049    26.836     8.494
    22   6 C        2.910    -0.049    29.221     8.864
    23   6 C        2.925    -0.029    28.713     8.787
    24   6 C        2.921    -0.035    28.881     8.813
    25   6 C        2.913    -0.024    28.601     8.770
    26   6 C        3.064    -0.018    28.384     8.736
    27   6 C        3.072     0.072    26.310     8.410
    28   7 N        1.833    -0.224    26.724     7.661
    29   6 C        2.925     0.055    26.767     8.484
    30   6 C        2.923    -0.042    29.041     8.837
    31   6 C        2.915    -0.032    28.802     8.801
    32   6 C        3.070     0.038    27.079     8.533
    33   6 C        2.929    -0.035    28.864     8.811
    34   6 C        2.975     0.023    27.488     8.600
    35   6 C        1.910     0.114    28.289     8.590
    36   7 N        0.911    -0.207    25.498     7.303
    37   1 H        0.926     0.062     2.177     2.308
    38   1 H        0.926     0.028     2.610     2.526
    39   1 H        0.926     0.040     2.452     2.449
    40   1 H        0.926     0.040     2.445     2.445
    41   1 H        0.926     0.054     2.271     2.356
    42   1 H        0.926     0.045     2.389     2.417
    43   1 H        0.926     0.039     2.467     2.456
    44   1 H        0.926     0.025     2.657     2.549
    45   1 H        0.926     0.028     2.610     2.526
    46   1 H        0.926     0.040     2.452     2.449
    47   1 H        0.926     0.040     2.445     2.445
    48   1 H        0.926     0.054     2.271     2.356
    49   1 H        0.926     0.045     2.389     2.417
    50   1 H        0.926     0.039     2.467     2.456
    51   1 H        0.926     0.025     2.657     2.549
    52   1 H        0.926     0.062     2.177     2.308

molecular dipole:
                 x           y           z       tot (Debye)
 q only:       -0.000       1.268      -0.000
   full:       -0.000       1.299      -0.001       3.302

 projected vibrational frequencies (cm⁻¹)
eigval :       -0.00    -0.00    -0.00     0.00     0.00     0.00
eigval :       21.37    29.47    37.53    44.75    47.52    52.07
eigval :       87.23    96.66   107.42   108.77   118.44   136.39
eigval :      146.11   162.39   172.40   189.89   195.45   207.10
eigval :      261.06   265.57   280.83   285.74   309.94   310.12
eigval :      349.87   390.46   398.85   403.76   419.71   422.47
eigval :      428.18   434.66   445.88   446.01   480.27   481.91
eigval :      520.43   521.77   530.11   531.24   543.34   547.29
eigval :      552.81   567.77   589.60   596.31   596.61   599.75
eigval :      652.06   657.43   668.97   680.65   683.37   691.32
eigval :      711.01   725.41   725.63   750.28   760.89   771.26
eigval :      777.51   777.69   799.84   800.67   840.91   868.23
eigval :      872.37   884.76   893.99   901.36   902.75   904.21
eigval :      908.95   910.70   910.76   919.67   919.83   926.20
eigval :      926.45   960.94  1022.81  1023.86  1067.57  1068.09
eigval :     1078.05  1091.48  1091.55  1120.43  1139.19  1145.47
eigval :     1145.76  1165.50  1169.18  1179.10  1180.19  1203.74
eigval :     1211.81  1220.45  1229.18  1232.28  1255.72  1284.84
eigval :     1285.56  1293.53  1294.82  1309.69  1319.42  1332.20
eigval :     1332.55  1354.88  1355.57  1363.58  1380.12  1399.95
eigval :     1410.37  1423.52  1424.31  1468.81  1470.61  1481.48
eigval :     1484.07  1484.36  1503.39  1553.84  1561.33  1561.47
eigval :     1582.85  1582.91  1588.08  1589.07  1606.23  1606.78
eigval :     2375.10  2375.76  3069.31  3069.48  3072.67  3072.90
eigval :     3078.30  3078.31  3088.48  3088.49  3098.27  3098.30
eigval :     3099.32  3099.73  3103.84  3103.93  3113.58  3113.66

   temp. (K)  partition function   enthalpy   heat capacity  entropy
                                   cal/mol     cal/K/mol   cal/K/mol   J/K/mol
 298.15  VIB  0.549E+11            15387.283     99.568     93.604
         ROT  0.107E+08              888.752      2.981     35.140
         INT  0.586E+18            16276.035    102.549    128.744
         TR   0.956E+28             1481.254      4.968     44.250
         TOT                       17757.2889   107.5167   172.9939   723.8065

       T/K    H(0)-H(T)+PV         H(T)/Eh          T*S/Eh         G(T)/Eh
   ------------------------------------------------------------------------
    298.15    0.282980E-01    0.403035E+00    0.821950E-01    0.320840E+00
   ------------------------------------------------------------------------

         :::::::::::::::::::::::::::::::::::::::::::::::::::::
         ::                  THERMODYNAMIC                  ::
         :::::::::::::::::::::::::::::::::::::::::::::::::::::
         :: total free energy         -89.608988764201 Eh   ::
         ::.................................................::
         :: total energy              -89.929828678635 Eh   ::
         :: zero point energy           0.374736857623 Eh   ::
         :: G(RRHO) w/o ZPVE           -0.053896943190 Eh   ::
         :: G(RRHO) contrib.            0.320839914433 Eh   ::
         :::::::::::::::::::::::::::::::::::::::::::::::::::::

           -------------------------------------------------
          | TOTAL ENERGY              -89.929828678635 Eh   |
          | TOTAL ENTHALPY            -89.526793779917 Eh   |
          | TOTAL FREE ENERGY         -89.608988764201 Eh   |
          | GRADIENT NORM               0.000080395526 Eh/α |
          | HOMO-LUMO GAP               1.723790431865 eV   |
           -------------------------------------------------

 * finished run on 2025/07/16 at 17:12:36.163
