   * xtb version 6.7.1 (edcfbbe) compiled by 'albert@albert-system' on 2024-07-22

   ID    Z sym.   atoms
    1    7 N      1, 6, 14, 20, 28, 36
    2    6 C      2-5, 7-13, 15-19, 21-27, 29-35
    3    1 H      37-52

          program call               : xtb data2507/gas/δ-2CbPN/δ-2CbPN_gas_T1_crest.xyz --gfn 2 --spinpol --tblite --uhf 2 --ohess vtight --parallel 40 --molden --ceasefiles --namespace data2507/gas/δ-2CbPN/δ-2CbPN_gas_T1_finalOpt
 * total energy  :   -89.8439366 Eh     change        0.4330104E-07 Eh
 * total energy  :   -89.8439936 Eh     change       -0.5698242E-04 Eh
 * total energy  :   -89.8440295 Eh     change       -0.3595773E-04 Eh
 * total energy  :   -89.8440451 Eh     change       -0.1559590E-04 Eh
 * total energy  :   -89.8440481 Eh     change       -0.2967348E-05 Eh
 * total energy  :   -89.8440534 Eh     change       -0.5267048E-05 Eh
 * total energy  :   -89.8440572 Eh     change       -0.3848693E-05 Eh
 * total energy  :   -89.8440604 Eh     change       -0.3219841E-05 Eh
 * total energy  :   -89.8440636 Eh     change       -0.3207531E-05 Eh
 * total energy  :   -89.8440665 Eh     change       -0.2846203E-05 Eh
 * total energy  :   -89.8440711 Eh     change       -0.7895552E-06 Eh
 * total energy  :   -89.8440715 Eh     change       -0.4095404E-06 Eh
 * total energy  :   -89.8440718 Eh     change       -0.3312153E-06 Eh
 * total energy  :   -89.8440721 Eh     change       -0.2627123E-06 Eh
 * total energy  :   -89.8440722 Eh     change       -0.1551133E-06 Eh
 * total energy  :   -89.8440725 Eh     change       -0.3104631E-06 Eh
 * total energy  :   -89.8440727 Eh     change       -0.1596075E-06 Eh
 * total energy  :   -89.8440727 Eh     change        0.3271168E-08 Eh
 * total energy  :   -89.8440728 Eh     change       -0.7912537E-07 Eh
   *** GEOMETRY OPTIMIZATION CONVERGED AFTER 21 ITERATIONS ***

 final structure:
================
52
 xtb: 6.7.1 (edcfbbe)
N            5.96832744537970        1.83065754634372        0.91402565938066
C            4.98960420987165        1.27780575101753        0.64960766932931
C            3.79335472933295        0.65265405022539        0.31600106977733
C            2.57599395958717        1.26353398437595        0.60436602178802
C            1.37281117163416        0.64393223020622        0.33679547540836
N            0.16797803908940        1.22404675453104        0.72751186692474
C           -0.89639006833833        0.54819318130875        1.30518640501613
C           -0.90077174006532       -0.67382105358105        1.96116695501047
C           -2.10965882909389       -1.14093798319579        2.44386474767082
C           -3.28195396053936       -0.39969279000635        2.30511216034032
C           -3.27193447906871        0.85024597869633        1.71641680551340
C           -2.06853185024653        1.33587040656218        1.22187400521028
C           -1.67726575489406        2.56607375753128        0.60385682544767
N           -2.38422069675703        3.63769320706726        0.29589630790564
C           -1.76865092727428        4.63245006584324       -0.30781128920749
C           -0.42076195498736        4.60257688936100       -0.66546922998489
C            0.35632054768043        3.50420441727472       -0.32856349414763
C           -0.27864698752621        2.46532607613425        0.33092450232503
C            1.37041470093760       -0.65162561724502       -0.33325378049362
N            0.16352439518146       -1.22603370270204       -0.72602573817523
C           -0.89631241982624       -0.54477999994601       -1.30567340780612
C           -0.89314389114782        0.67725548771327       -1.96160989574202
C           -2.09868312986680        1.15059754580461       -2.44658871991744
C           -3.27500459851910        0.41533894392793       -2.31011190831033
C           -3.27248525104749       -0.83474312237032       -1.72162581031016
C           -2.07252975228607       -1.32659156036612       -1.22486092037241
C           -1.68851349866694       -2.55900669854519       -0.60669037860057
N           -2.40125150816875       -3.62743697678561       -0.30106636809818
C           -1.79164451513040       -4.62576420774390        0.30277546189121
C           -0.44433600356723       -4.60276209518163        0.66308171408009
C            0.33870623156996       -3.50783258246296        0.32878368760819
C           -0.28994895669545       -2.46529821407036       -0.33097608702013
C            2.57126940071121       -1.27627194347665       -0.59963030970007
C            3.79087779632234       -0.67031577866826       -0.31042000443533
C            4.98488087631873       -1.29996489476302       -0.64366149354451
N            5.96174125876751       -1.85626016704814       -0.90775088374882
H            2.58153156041330        2.21713893087406        1.11327950584350
H            0.01044366261339       -1.23572274291116        2.10387137149857
H           -2.14240545548394       -2.09707807078004        2.94357863028425
H           -4.20735222712824       -0.80695732087280        2.68174394762130
H           -4.16694017550923        1.44573974505279        1.63635950858856
H           -2.37649809027791        5.50147634094597       -0.51676007926559
H            0.01809424748864        5.44361197907929       -1.17737299065639
H            1.40887765375428        3.47511977031477       -0.56866401902509
H            0.02124733742105        1.23442030813504       -2.10255608298334
H           -2.12556016501324        2.10692049092664       -2.94630032518622
H           -4.19759153773698        0.82739291332673       -2.68842274379258
H           -4.17067159750488       -1.42567994613591       -1.64343988593433
H           -2.40406661429228       -5.49209886564953        0.50956876790340
H           -0.01054372711726       -5.44650250073027        1.17485348791509
H            1.39094761082833       -3.48409703642062        0.57084055732563
H            2.57330162357093       -2.22990682072124       -1.10851658694951

 projected vibrational frequencies (cm⁻¹)
eigval :       -0.00    -0.00    -0.00    -0.00     0.00     0.00
eigval :       20.50    34.84    40.04    40.65    49.69    58.07
eigval :       84.95    97.57   105.62   106.85   115.10   138.29
eigval :      147.58   163.28   172.36   182.39   193.15   199.88
eigval :      257.49   269.43   275.94   277.38   310.51   318.05
eigval :      339.82   371.30   373.49   396.13   399.24   402.85
eigval :      416.98   420.86   435.56   442.27   461.62   476.80
eigval :      477.87   516.48   517.76   522.42   532.08   532.38
eigval :      549.71   552.78   576.96   577.94   583.20   589.57
eigval :      597.66   638.31   643.65   662.12   664.85   677.55
eigval :      679.53   710.76   712.94   724.84   756.89   763.21
eigval :      774.27   775.58   778.31   784.42   831.95   866.53
eigval :      877.37   878.12   884.66   892.56   892.88   894.50
eigval :      894.69   904.19   905.99   908.64   908.93   920.91
eigval :      921.12   924.29  1013.99  1015.09  1059.57  1062.38
eigval :     1069.88  1084.28  1087.47  1093.94  1134.97  1136.33
eigval :     1137.43  1139.86  1152.31  1170.42  1173.78  1174.90
eigval :     1182.24  1196.86  1218.16  1223.21  1238.51  1268.51
eigval :     1271.81  1278.45  1283.34  1306.12  1309.53  1311.77
eigval :     1316.45  1325.37  1349.07  1354.42  1354.82  1360.85
eigval :     1368.88  1403.38  1408.94  1414.79  1426.96  1429.21
eigval :     1455.75  1456.31  1475.04  1477.51  1506.37  1525.88
eigval :     1540.72  1551.86  1571.42  1571.70  1575.11  1576.44
eigval :     2245.23  2248.79  3073.10  3073.26  3079.74  3080.03
eigval :     3081.25  3081.29  3082.48  3082.85  3092.97  3093.03
eigval :     3102.00  3102.06  3108.96  3109.18  3112.73  3113.79

   temp. (K)  partition function   enthalpy   heat capacity  entropy
                                   cal/mol     cal/K/mol   cal/K/mol   J/K/mol
 298.15  VIB  0.636E+11            15687.012    101.719     95.305
         ROT  0.104E+08              888.752      2.981     35.086
         INT  0.660E+18            16575.764    104.700    130.391
         TR   0.956E+28             1481.254      4.968     44.250
         TOT                       18057.0182   109.6684   174.6410   730.6978

       T/K    H(0)-H(T)+PV         H(T)/Eh          T*S/Eh         G(T)/Eh
   ------------------------------------------------------------------------
    298.15    0.287757E-01    0.398598E+00    0.829776E-01    0.315620E+00
   ------------------------------------------------------------------------

         :::::::::::::::::::::::::::::::::::::::::::::::::::::
         ::                  THERMODYNAMIC                  ::
         :::::::::::::::::::::::::::::::::::::::::::::::::::::
         :: total free energy         -89.528452799135 Eh   ::
         ::.................................................::
         :: total energy              -89.844072779865 Eh   ::
         :: zero point energy           0.369821845844 Eh   ::
         :: G(RRHO) w/o ZPVE           -0.054201865113 Eh   ::
         :: G(RRHO) contrib.            0.315619980731 Eh   ::
         :::::::::::::::::::::::::::::::::::::::::::::::::::::

           -------------------------------------------------
          | TOTAL ENERGY              -89.844072779865 Eh   |
          | TOTAL ENTHALPY            -89.445475243819 Eh   |
          | TOTAL FREE ENERGY         -89.528452799135 Eh   |
          | GRADIENT NORM               0.000058880781 Eh/α |
           -------------------------------------------------

 * finished run on 2025/07/16 at 17:18:07.745
