   * xtb version 6.7.1 (edcfbbe) compiled by 'albert@albert-system' on 2024-07-22

   ID    Z sym.   atoms
    1    7 N      1, 6, 14, 20, 28, 36
    2    6 C      2-5, 7-13, 15-19, 21-27, 29-35
    3    1 H      37-52

          program call               : xtb data2507/gas/δ-2CbPN/δ-2CbPN_gas_S0_finalOpt.xtbopt.xyz --gfn 2 --spinpol --tblite --uhf 2 --ohess vtight --parallel 40 --molden --ceasefiles --namespace data2507/gas/δ-2CbPN/δ-2CbPN_gas_T1_preOpt
 * total energy  :   -89.8372978 Eh     change       -0.3988958E-08 Eh
 * total energy  :   -89.8401226 Eh     change       -0.2824788E-02 Eh
 * total energy  :   -89.8408803 Eh     change       -0.7576657E-03 Eh
 * total energy  :   -89.8414454 Eh     change       -0.5651134E-03 Eh
 * total energy  :   -89.8416060 Eh     change       -0.1606429E-03 Eh
 * total energy  :   -89.8416770 Eh     change       -0.7100903E-04 Eh
 * total energy  :   -89.8416962 Eh     change       -0.1920143E-04 Eh
 * total energy  :   -89.8417202 Eh     change       -0.2396436E-04 Eh
 * total energy  :   -89.8417362 Eh     change       -0.1594458E-04 Eh
 * total energy  :   -89.8417505 Eh     change       -0.1438294E-04 Eh
 * total energy  :   -89.8418393 Eh     change       -0.2808242E-06 Eh
 * total energy  :   -89.8418396 Eh     change       -0.2919245E-06 Eh
 * total energy  :   -89.8418400 Eh     change       -0.3398279E-06 Eh
 * total energy  :   -89.8418403 Eh     change       -0.3932523E-06 Eh
 * total energy  :   -89.8418408 Eh     change       -0.4364524E-06 Eh
 * total energy  :   -89.8418412 Eh     change       -0.4287634E-06 Eh
 * total energy  :   -89.8418412 Eh     change        0.1375676E-07 Eh
 * total energy  :   -89.8418412 Eh     change        0.1794589E-07 Eh
 * total energy  :   -89.8418412 Eh     change       -0.2549916E-07 Eh
   *** GEOMETRY OPTIMIZATION CONVERGED AFTER 46 ITERATIONS ***

 final structure:
================
52
 xtb: 6.7.1 (edcfbbe)
N            5.95487403096115       -1.87465734910126        0.83838091329783
C            4.97445887606678       -1.31297820199553        0.59654811868676
C            3.78122353212662       -0.67802657884062        0.27972384144762
C            2.56169535057562       -1.30686681259714        0.52268868092670
C            1.36162259461309       -0.67153540262074        0.28806634537784
N            0.15127588383235       -1.26778766318623        0.63837865212216
C           -0.29588795333418       -2.50439379266059        0.20055239082538
C            0.38042792383665       -3.48376992700275       -0.51446050956325
C           -0.32135315464205       -4.61858647372569       -0.87726427051070
C           -1.66542473778490       -4.78169485410850       -0.54464978234188
C           -2.35292544711704       -3.80232273047644        0.14767294891500
C           -1.66869793903985       -2.65343179043981        0.51775810685476
C           -2.05996282461206       -1.45264662467610        1.19689288935243
N           -3.22730098643252       -1.08797885898833        1.69541592082634
C           -3.28942671539414        0.07863607978653        2.30451765096299
C           -2.19099970936020        0.92096861227886        2.48136436278951
C           -0.95269384032055        0.55422531040591        1.98071713408535
C           -0.89628680610160       -0.63593204310585        1.27360190212180
C            1.36135143731428        0.67180906380758       -0.28750578119466
N            0.15075996568741        1.26757472768787       -0.63780086627579
C           -0.29692898321007        2.50397837104272       -0.19993935197787
C            0.37896429405431        3.48360736486857        0.51512469334392
C           -0.32330915957184        4.61809987216721        0.87798941472824
C           -1.66744956387390        4.78064515042488        0.54537652775918
C           -2.35452254003328        3.80102104245850       -0.14701525592622
C           -1.66979770112578        2.65244450322775       -0.51716041721753
C           -2.06054128993593        1.45152514907509       -1.19635247381202
N           -3.22770719237874        1.08637914629436       -1.69492546810940
C           -3.28932968763003       -0.08024072012230       -2.30407093111449
C           -2.19054533277753       -0.92211387538446       -2.48089896051158
C           -0.95241242637714       -0.55486882144831       -1.98019729328836
C           -0.89651865385602        0.63529778327062       -1.27305925769594
C            2.56116576818866        1.30760431046705       -0.52218802477013
C            3.78094592558674        0.67922668906796       -0.27930352624445
C            4.97391414242554        1.31463363782162       -0.59622888568229
N            5.95408780446837        1.87671190269890       -0.83810915720205
H            2.56564691478997       -2.28862682922214        0.97438381352912
H            1.41783644151369       -3.36765589195467       -0.78795869751070
H            0.18482779469362       -5.39431692860293       -1.43119527610180
H           -2.17537669029128       -5.68464806520319       -0.84366244717869
H           -3.39741075758912       -3.90808384222814        0.39296315369089
H           -4.25947986392887        0.34936496607129        2.69590977453200
H           -2.30462339321975        1.84444799437826        3.02550187425663
H           -0.07458918975291        1.16039801149750        2.15230858182813
H            1.41642152039361        3.36791961632999        0.78862085951007
H            0.18252976968321        5.39401581585877        1.43197298801867
H           -2.17779579341870        5.68335710228882        0.84444483427481
H           -3.39905008853928        3.90634875832227       -0.39230931896051
H           -4.25925063360560       -0.35135206352358       -2.69551681786068
H           -2.30376996905479       -1.84562262488595       -3.02506722230289
H           -0.07404955605793       -1.16067817877008       -2.15176110534647
H            2.56471439528317        2.28936615021240       -0.97388129077905

 projected vibrational frequencies (cm⁻¹)
eigval :       -0.00    -0.00     0.00     0.00     0.00     0.00
eigval :       19.36    30.87    37.96    38.54    46.78    54.96
eigval :       83.89    96.60   106.43   107.60   118.39   137.51
eigval :      142.66   160.85   171.36   181.76   194.75   198.16
eigval :      254.39   262.79   275.49   282.85   306.55   316.86
eigval :      336.68   357.14   366.88   388.68   390.34   398.93
eigval :      418.75   421.46   436.61   443.28   448.98   470.43
eigval :      475.82   515.87   517.96   519.01   525.00   527.09
eigval :      548.58   548.79   579.13   579.54   586.50   591.75
eigval :      592.14   634.24   643.81   661.55   666.12   677.83
eigval :      678.98   715.00   715.71   726.61   756.75   765.59
eigval :      772.25   773.19   773.95   774.75   829.51   863.42
eigval :      868.96   879.51   879.62   890.25   894.25   895.48
eigval :      896.03   908.25   909.30   910.19   910.71   921.38
eigval :      921.69   931.85  1015.37  1016.58  1058.74  1061.69
eigval :     1069.82  1083.47  1083.81  1092.29  1131.17  1135.72
eigval :     1138.35  1141.62  1147.87  1162.63  1174.12  1175.86
eigval :     1185.64  1200.50  1219.94  1223.70  1243.07  1267.84
eigval :     1269.21  1280.97  1281.68  1295.05  1306.73  1317.32
eigval :     1319.63  1321.74  1344.26  1348.57  1349.64  1364.90
eigval :     1367.59  1393.95  1402.39  1410.67  1429.97  1434.77
eigval :     1455.30  1457.17  1476.86  1478.58  1523.32  1529.83
eigval :     1543.75  1549.43  1567.77  1568.96  1577.17  1579.12
eigval :     2233.99  2240.48  3069.16  3069.27  3078.04  3078.27
eigval :     3084.82  3085.01  3089.51  3089.52  3095.08  3095.09
eigval :     3103.56  3103.77  3109.18  3109.23  3112.67  3112.78

   temp. (K)  partition function   enthalpy   heat capacity  entropy
                                   cal/mol     cal/K/mol   cal/K/mol   J/K/mol
 298.15  VIB  0.102E+12            15770.731    101.680     95.845
         ROT  0.106E+08              888.752      2.981     35.120
         INT  0.107E+19            16659.483    104.661    130.964
         TR   0.956E+28             1481.254      4.968     44.250
         TOT                       18140.7370   109.6293   175.2143   733.0964

       T/K    H(0)-H(T)+PV         H(T)/Eh          T*S/Eh         G(T)/Eh
   ------------------------------------------------------------------------
    298.15    0.289091E-01    0.398416E+00    0.832499E-01    0.315166E+00
   ------------------------------------------------------------------------

         :::::::::::::::::::::::::::::::::::::::::::::::::::::
         ::                  THERMODYNAMIC                  ::
         :::::::::::::::::::::::::::::::::::::::::::::::::::::
         :: total free energy         -89.526674761475 Eh   ::
         ::.................................................::
         :: total energy              -89.841841216423 Eh   ::
         :: zero point energy           0.369507295636 Eh   ::
         :: G(RRHO) w/o ZPVE           -0.054340840688 Eh   ::
         :: G(RRHO) contrib.            0.315166454948 Eh   ::
         :::::::::::::::::::::::::::::::::::::::::::::::::::::

           -------------------------------------------------
          | TOTAL ENERGY              -89.841841216423 Eh   |
          | TOTAL ENTHALPY            -89.443424816306 Eh   |
          | TOTAL FREE ENERGY         -89.526674761475 Eh   |
          | GRADIENT NORM               0.000050440706 Eh/α |
           -------------------------------------------------

 * finished run on 2025/07/16 at 17:14:43.868
