   * xtb version 6.7.1 (edcfbbe) compiled by 'albert@albert-system' on 2024-07-22

   ID    Z sym.   atoms
    1    6 C      1-5, 7-13, 15-19, 21-47, 49, 50
    2    7 N      6, 14, 20, 48
    3    1 H      51-80

          program call               : xtb data2507/gas/SpiroAC-TRZ/SpiroAC-TRZ.xyz --gfn 2 --ohess vtight --parallel 40 --molden --ceasefiles --namespace data2507/gas/SpiroAC-TRZ/SpiroAC-TRZ_gas_S0_preOpt
          :  Hamiltonian                  GFN2-xTB          :
 * total energy  :  -125.5186607 Eh     change       -0.2294300E-08 Eh
 * total energy  :  -125.5337012 Eh     change       -0.1504056E-01 Eh
 * total energy  :  -125.5384527 Eh     change       -0.4751516E-02 Eh
 * total energy  :  -125.5396057 Eh     change       -0.1152909E-02 Eh
 * total energy  :  -125.5402868 Eh     change       -0.6811662E-03 Eh
 * total energy  :  -125.5405157 Eh     change       -0.2288701E-03 Eh
 * total energy  :  -125.5406262 Eh     change       -0.1105270E-03 Eh
 * total energy  :  -125.5406929 Eh     change       -0.6665552E-04 Eh
 * total energy  :  -125.5407041 Eh     change       -0.1124497E-04 Eh
 * total energy  :  -125.5407098 Eh     change       -0.5712629E-05 Eh
 * total energy  :  -125.5407207 Eh     change       -0.1856343E-05 Eh
 * total energy  :  -125.5407220 Eh     change       -0.1313061E-05 Eh
 * total energy  :  -125.5407230 Eh     change       -0.9335507E-06 Eh
 * total energy  :  -125.5407237 Eh     change       -0.7230082E-06 Eh
 * total energy  :  -125.5407243 Eh     change       -0.6030090E-06 Eh
 * total energy  :  -125.5407248 Eh     change       -0.4995629E-06 Eh
 * total energy  :  -125.5407252 Eh     change       -0.3906365E-06 Eh
 * total energy  :  -125.5407255 Eh     change       -0.3064573E-06 Eh
 * total energy  :  -125.5407255 Eh     change       -0.3038863E-08 Eh
   *** GEOMETRY OPTIMIZATION CONVERGED AFTER 22 ITERATIONS ***

 final structure:
================
80
 xtb: 6.7.1 (edcfbbe)
C            7.97553664535150       -4.79319973362212        0.00001506333346
C            6.58923579973873       -4.79762031734687        0.00002205860070
C            5.89238095888011       -3.60506185304095        0.00002782419611
C            6.58220740150696       -2.39419663296801        0.00002705166905
C            5.84916417648262       -1.12850512219309        0.00001579668669
N            6.55216645622748        0.00000757270449        0.00002265749208
C            5.84915673175235        1.12851558739930        0.00001043670386
C            6.58219087217422        2.39421234740198       -0.00001101743349
C            5.89235531335344        3.60507238841703       -0.00006475862872
C            6.58920111077410        4.79763611088282       -0.00007141648408
C            7.97550198811445        4.79322593944622       -0.00002706789407
C            8.66646711879735        3.59134781402032        0.00002603645510
C            7.97581564933339        2.39528930099788        0.00003381949551
N            4.51919169958393        1.17448584611966       -0.00001615824223
C            3.89705567692687       -0.00000131497636       -0.00001259214714
C            2.43283919363157       -0.00000522292082       -0.00001642044060
C            1.73267334974579        1.20488779249879       -0.00008410191448
C            0.35267724949526        1.20511575782516       -0.00008369073049
C           -0.34173473865750       -0.00001072569263       -0.00002478496643
N           -1.76375815955494       -0.00001225182182       -0.00002141425139
C           -2.43579300946163        0.00000326912674        1.21210716697246
C           -1.72058970347990        0.00001965104558        2.41247051210321
C           -2.37825430103557        0.00003135492373        3.62566510059318
C           -3.76177812297261        0.00002549116577        3.66948709756748
C           -4.47508294572555        0.00000956995005        2.48517490583493
C           -3.83208484568100        0.00000140961011        1.25674857902582
C           -4.66893337562111       -0.00000662933231       -0.00000498656969
C           -5.63095859681069       -1.17221863431529        0.00001362530882
C           -5.33445717443589       -2.51694067334216        0.00001947210709
C           -6.38320469040232       -3.42690357393256        0.00005988349420
C           -7.69977660227728       -2.99206978994421        0.00009123816855
C           -8.00259972546925       -1.63974593638515        0.00008336734458
C           -6.96049265606678       -0.72762033046814        0.00004507519993
C           -6.96048486359219        0.72763198888017        0.00001219521029
C           -8.00258196751172        1.63976902890062        0.00000923166157
C           -7.69974405706622        2.99208955650620       -0.00001237100419
C           -6.38316738709296        3.42690892102885       -0.00002811965720
C           -5.33442986763710        2.51693453417822       -0.00002279595092
C           -5.63094597985366        1.17221577693131       -0.00000354834825
C           -3.83209942675505       -0.00002291842731       -1.25676750514489
C           -4.47511191872144       -0.00003530379859       -2.48518636707276
C           -3.76182082189273       -0.00005876730156       -3.66950687934074
C           -2.37829648145889       -0.00006570114207       -3.62570103565075
C           -1.72061768579133       -0.00004590639536       -2.41251394710703
C           -2.43580674577849       -0.00002562196456       -1.21214223070570
C            0.35268205910588       -1.20513452202534        0.00003604646319
C            1.73267832248747       -1.20490110944036        0.00004609672813
N            4.51919936652744       -1.17448441017031        0.00000822276660
C            7.97583221569551       -2.39526313667692        0.00002664781673
C            8.66649273109297       -3.59131640656210        0.00001954602827
H            8.51807652529718       -5.72734027628426        0.00000538584857
H            6.05323125562709       -5.73545134248034        0.00000018438414
H            4.81393674062153       -3.58936880180090        0.00001101580285
H            4.81391121773303        3.58937117679567       -0.00010437425498
H            6.05318946512821        5.73546307691810       -0.00012466275725
H            8.51803481883872        5.72737057202580       -0.00003862743024
H            9.74664361961569        3.59035465835736        0.00007766635382
H            8.49620182014029        1.45057278733283        0.00009494465739
H            2.28818924208658        2.12911998402605       -0.00011077993465
H           -0.19964235759650        2.13321048644365       -0.00013201039222
H           -0.64120500813097        0.00001898649775        2.38984947740956
H           -1.80394154613468        0.00004406569264        4.54022638389955
H           -4.28056741827340        0.00004074674832        4.61562496161663
H           -5.55537162058653        0.00002261875454        2.50641282716524
H           -4.30849548480482       -2.85581556968606        0.00002236367605
H           -6.17136990444858       -4.48613097300046        0.00007517513402
H           -8.49989007673210       -3.71814465718985        0.00010502038140
H           -9.02980066083180       -1.30594700970722        0.00008149589323
H           -9.02978653335176        1.30598132839422        0.00005004903919
H           -8.49984955824735        3.71817320033434        0.00000541919990
H           -6.17132094997198        4.48613396844515       -0.00005388590591
H           -4.30846449351262        2.85579815549752       -0.00006329980377
H           -5.55540091410786       -0.00003905950257       -2.50641145538018
H           -4.28062093646676       -0.00006357596583       -4.61563880551219
H           -1.80399462822184       -0.00007034264131       -4.54026917824538
H           -0.64123267304245       -0.00005127154303       -2.38990534554617
H           -0.19963369852462       -2.13323154830676        0.00007198200312
H            2.28819803203753       -2.12913107972793        0.00007731170794
H            8.49621126099338       -1.45054269827642        0.00003334602143
H            9.74666922888822       -3.59031506990463        0.00002386962656

          :  Hamiltonian                  GFN2-xTB          :
         :: gradient norm              0.000042323855 Eh/a0 ::
         :: HOMO-LUMO gap              1.512124167585 eV    ::
         :: SCC energy              -127.880379776189 Eh    ::
         :: -> dispersion             -0.115913820403 Eh    ::
         :: repulsion energy           2.339654272201 Eh    ::

    * Orbital Energies and Occupations

         #    Occupation            Energy/Eh            Energy/eV
      -------------------------------------------------------------
         1        2.0000           -0.6855539             -18.6549
       ...           ...                  ...                  ...
       105        2.0000           -0.4113713             -11.1940
       106        2.0000           -0.4089063             -11.1269
       107        2.0000           -0.4086162             -11.1190
       108        2.0000           -0.4081782             -11.1071
       109        2.0000           -0.4059549             -11.0466
       110        2.0000           -0.4028547             -10.9622
       111        2.0000           -0.3939799             -10.7207
       112        2.0000           -0.3917475             -10.6600
       113        2.0000           -0.3890196             -10.5858
       114        2.0000           -0.3755535             -10.2193
       115        2.0000           -0.3730425             -10.1510
       116        2.0000           -0.3724446             -10.1347
       117        2.0000           -0.3455482              -9.4028 (HOMO)
       118                         -0.2899786              -7.8907 (LUMO)
       119                         -0.2877297              -7.8295
       120                         -0.2481861              -6.7535
       121                         -0.2480350              -6.7494
       122                         -0.2391199              -6.5068
       123                         -0.2298924              -6.2557
       124                         -0.2298784              -6.2553
       125                         -0.2274760              -6.1899
       126                         -0.2211034              -6.0165
       127                         -0.2192922              -5.9672
       128                         -0.2182293              -5.9383
       ...                                ...                  ...
       230                          0.7335432              19.9607
      -------------------------------------------------------------
                  HL-Gap            0.0555695 Eh            1.5121 eV

     #   Z          covCN         q      C6AA      α(0)
     1   6 C        2.920    -0.023    28.579     8.767
     2   6 C        2.918    -0.027    28.681     8.782
     3   6 C        2.924    -0.023    28.584     8.768
     4   6 C        2.984    -0.000    28.025     8.684
     5   6 C        2.982     0.203    23.702     7.986
     6   7 N        1.844    -0.293    28.444     7.904
     7   6 C        2.982     0.203    23.702     7.986
     8   6 C        2.984    -0.000    28.025     8.684
     9   6 C        2.924    -0.023    28.584     8.768
    10   6 C        2.918    -0.027    28.681     8.782
    11   6 C        2.920    -0.023    28.579     8.767
    12   6 C        2.918    -0.027    28.680     8.782
    13   6 C        2.924    -0.023    28.583     8.767
    14   7 N        1.844    -0.295    28.488     7.910
    15   6 C        2.983     0.202    23.706     7.987
    16   6 C        2.984    -0.000    28.033     8.685
    17   6 C        2.923    -0.023    28.588     8.768
    18   6 C        2.920    -0.036    28.902     8.816
    19   6 C        2.928     0.075    26.314     8.413
    20   7 N        2.754    -0.072    22.627     7.065
    21   6 C        2.926     0.059    26.672     8.469
    22   6 C        2.924    -0.058    29.448     8.899
    23   6 C        2.920    -0.032    28.800     8.800
    24   6 C        2.917    -0.043    29.066     8.841
    25   6 C        2.926    -0.035    28.863     8.810
    26   6 C        2.983    -0.008    28.212     8.713
    27   6 C        3.950     0.012    20.312     6.404
    28   6 C        3.059     0.003    27.899     8.662
    29   6 C        2.914    -0.032    28.797     8.800
    30   6 C        2.923    -0.032    28.792     8.799
    31   6 C        2.921    -0.033    28.814     8.803
    32   6 C        2.915    -0.034    28.854     8.808
    33   6 C        3.035     0.001    27.962     8.673
    34   6 C        3.035     0.001    27.962     8.673
    35   6 C        2.915    -0.034    28.854     8.808
    36   6 C        2.921    -0.033    28.814     8.803
    37   6 C        2.923    -0.032    28.792     8.799
    38   6 C        2.914    -0.032    28.797     8.800
    39   6 C        3.059     0.003    27.899     8.662
    40   6 C        2.983    -0.008    28.212     8.713
    41   6 C        2.926    -0.035    28.863     8.810
    42   6 C        2.917    -0.043    29.066     8.841
    43   6 C        2.920    -0.032    28.800     8.800
    44   6 C        2.924    -0.058    29.448     8.899
    45   6 C        2.926     0.059    26.672     8.469
    46   6 C        2.920    -0.036    28.902     8.816
    47   6 C        2.923    -0.023    28.588     8.768
    48   7 N        1.844    -0.295    28.488     7.910
    49   6 C        2.924    -0.023    28.583     8.767
    50   6 C        2.918    -0.027    28.680     8.782
    51   1 H        0.926     0.037     2.485     2.465
    52   1 H        0.926     0.037     2.483     2.464
    53   1 H        0.926     0.055     2.262     2.352
    54   1 H        0.926     0.055     2.262     2.352
    55   1 H        0.926     0.037     2.483     2.464
    56   1 H        0.926     0.037     2.485     2.465
    57   1 H        0.926     0.037     2.483     2.464
    58   1 H        0.926     0.055     2.253     2.347
    59   1 H        0.926     0.063     2.169     2.303
    60   1 H        0.926     0.047     2.359     2.402
    61   1 H        0.926     0.025     2.664     2.553
    62   1 H        0.926     0.029     2.598     2.521
    63   1 H        0.926     0.028     2.612     2.527
    64   1 H        0.926     0.029     2.602     2.522
    65   1 H        0.926     0.025     2.660     2.550
    66   1 H        0.926     0.029     2.595     2.519
    67   1 H        0.926     0.029     2.597     2.520
    68   1 H        0.926     0.030     2.586     2.515
    69   1 H        0.926     0.030     2.586     2.515
    70   1 H        0.926     0.029     2.597     2.520
    71   1 H        0.926     0.029     2.595     2.519
    72   1 H        0.926     0.025     2.660     2.550
    73   1 H        0.926     0.029     2.602     2.522
    74   1 H        0.926     0.028     2.612     2.527
    75   1 H        0.926     0.029     2.598     2.521
    76   1 H        0.926     0.025     2.664     2.553
    77   1 H        0.926     0.047     2.359     2.402
    78   1 H        0.926     0.063     2.169     2.303
    79   1 H        0.926     0.055     2.253     2.347
    80   1 H        0.926     0.037     2.483     2.464

molecular dipole:
                 x           y           z       tot (Debye)
 q only:        0.786      -0.000      -0.000
   full:        0.814       0.000      -0.000       2.070

 projected vibrational frequencies (cm⁻¹)
eigval :       -0.00    -0.00     0.00     0.00     0.00     0.00
eigval :      -18.33     4.20     5.39    14.00    17.57    20.99
eigval :       22.80    41.88    43.41    50.93    53.01    55.45
eigval :       68.58    84.00    90.91    92.44   110.86   111.08
eigval :      140.17   146.99   160.21   165.37   178.76   181.44
eigval :      210.03   237.34   239.10   243.16   253.55   258.81
eigval :      279.29   294.35   294.85   322.96   363.77   364.73
eigval :      366.86   376.96   381.09   386.71   401.36   401.59
eigval :      402.22   414.67   417.04   423.45   438.66   440.34
eigval :      459.47   460.95   461.11   499.27   501.03   504.70
eigval :      513.25   540.25   553.44   587.52   587.57   587.83
eigval :      588.91   601.59   603.16   606.70   607.05   616.71
eigval :      626.63   630.47   633.95   653.58   663.37   672.93
eigval :      673.79   680.55   684.05   686.53   713.01   727.85
eigval :      730.38   752.58   754.80   768.72   771.86   775.60
eigval :      777.52   785.92   795.08   825.10   845.55   847.57
eigval :      864.81   865.10   870.35   875.39   877.06   877.62
eigval :      878.61   892.37   899.54   908.82   909.27   909.63
eigval :      909.96   910.77   913.78   919.79   920.47   920.68
eigval :      920.87   926.03   926.70   927.44   927.53   929.73
eigval :      930.50   933.73   934.00   950.09   975.47   990.69
eigval :     1006.50  1015.50  1047.90  1074.16  1074.95  1075.61
eigval :     1079.13  1088.00  1089.66  1107.11  1107.40  1108.48
eigval :     1112.00  1117.88  1126.51  1140.98  1142.74  1161.71
eigval :     1166.62  1177.30  1178.45  1180.25  1180.87  1181.82
eigval :     1184.08  1184.54  1187.46  1194.36  1203.48  1205.38
eigval :     1207.07  1211.14  1233.40  1235.57  1246.62  1251.25
eigval :     1259.93  1268.59  1268.68  1270.03  1274.08  1284.65
eigval :     1316.63  1318.02  1327.42  1327.53  1328.67  1329.73
eigval :     1336.24  1344.25  1367.58  1371.24  1372.80  1376.83
eigval :     1404.60  1429.74  1430.30  1433.02  1434.10  1438.79
eigval :     1439.78  1461.92  1468.05  1472.19  1473.11  1482.40
eigval :     1484.57  1497.23  1513.52  1517.55  1568.72  1574.60
eigval :     1584.07  1585.62  1586.56  1588.37  1590.52  1592.09
eigval :     1595.10  1595.71  1597.29  1602.47  1604.49  1605.65
eigval :     3071.12  3071.68  3074.84  3074.95  3075.01  3075.71
eigval :     3078.34  3078.51  3081.07  3081.09  3081.19  3081.32
eigval :     3081.98  3083.99  3088.16  3089.10  3090.19  3090.27
eigval :     3090.67  3091.47  3092.39  3092.85  3099.09  3099.72
eigval :     3107.72  3108.19  3108.27  3109.78  3111.72  3112.26

   temp. (K)  partition function   enthalpy   heat capacity  entropy
                                   cal/mol     cal/K/mol   cal/K/mol   J/K/mol
 298.15  VIB  0.846E+20            22894.653    142.177    145.776
         ROT  0.545E+08              888.752      2.981     38.382
         INT  0.461E+28            23783.405    145.157    184.158
         TR   0.156E+29             1481.254      4.968     45.225
         TOT                       25264.6591   150.1256   229.3832   959.7394

       T/K    H(0)-H(T)+PV         H(T)/Eh          T*S/Eh         G(T)/Eh
   ------------------------------------------------------------------------
    298.15    0.402618E-01    0.651266E+00    0.108987E+00    0.542279E+00
   ------------------------------------------------------------------------

         :::::::::::::::::::::::::::::::::::::::::::::::::::::
         ::                  THERMODYNAMIC                  ::
         :::::::::::::::::::::::::::::::::::::::::::::::::::::
         :: total free energy        -124.998446799854 Eh   ::
         ::.................................................::
         :: total energy             -125.540725503988 Eh   ::
         :: zero point energy           0.611004279246 Eh   ::
         :: G(RRHO) w/o ZPVE           -0.068725575112 Eh   ::
         :: G(RRHO) contrib.            0.542278704134 Eh   ::
         :::::::::::::::::::::::::::::::::::::::::::::::::::::

           -------------------------------------------------
          | TOTAL ENERGY             -125.540725503988 Eh   |
          | TOTAL ENTHALPY           -124.889459427756 Eh   |
          | TOTAL FREE ENERGY        -124.998446799854 Eh   |
          | GRADIENT NORM               0.000042322081 Eh/α |
          | HOMO-LUMO GAP               1.512124414347 eV   |
           -------------------------------------------------

 * finished run on 2025/07/16 at 23:35:15.240
