   * xtb version 6.7.1 (edcfbbe) compiled by 'albert@albert-system' on 2024-07-22

   ID    Z sym.   atoms
    1    6 C      1-5, 7-13, 15-19, 21-47, 49, 50
    2    7 N      6, 14, 20, 48
    3    1 H      51-80

          program call               : xtb data2507/gas/SpiroAC-TRZ/SpiroAC-TRZ_gas_S0_crest.xyz --gfn 2 --ohess vtight --parallel 40 --molden --ceasefiles --namespace data2507/gas/SpiroAC-TRZ/SpiroAC-TRZ_gas_S0_finalOpt
          :  Hamiltonian                  GFN2-xTB          :
 * total energy  :  -125.5409270 Eh     change       -0.2364672E-08 Eh
 * total energy  :  -125.5409281 Eh     change       -0.1118356E-05 Eh
 * total energy  :  -125.5409302 Eh     change       -0.2068188E-05 Eh
 * total energy  :  -125.5409333 Eh     change       -0.3091474E-05 Eh
 * total energy  :  -125.5409349 Eh     change       -0.1633720E-05 Eh
 * total energy  :  -125.5409359 Eh     change       -0.9405637E-06 Eh
 * total energy  :  -125.5409369 Eh     change       -0.9893696E-06 Eh
 * total energy  :  -125.5409378 Eh     change       -0.9422170E-06 Eh
 * total energy  :  -125.5409386 Eh     change       -0.7953939E-06 Eh
 * total energy  :  -125.5409395 Eh     change       -0.8791445E-06 Eh
 * total energy  :  -125.5409476 Eh     change       -0.1122700E-06 Eh
 * total energy  :  -125.5409479 Eh     change       -0.2363054E-06 Eh
 * total energy  :  -125.5409481 Eh     change       -0.2342132E-06 Eh
 * total energy  :  -125.5409483 Eh     change       -0.1636242E-06 Eh
 * total energy  :  -125.5409485 Eh     change       -0.1815680E-06 Eh
 * total energy  :  -125.5409487 Eh     change       -0.2818190E-06 Eh
 * total energy  :  -125.5409490 Eh     change       -0.2807850E-06 Eh
 * total energy  :  -125.5409492 Eh     change       -0.1627291E-06 Eh
 * total energy  :  -125.5409492 Eh     change       -0.4920784E-07 Eh
   *** GEOMETRY OPTIMIZATION CONVERGED AFTER 32 ITERATIONS ***

 final structure:
================
80
 xtb: 6.7.1 (edcfbbe)
C            7.92091586703250       -4.78900566907898        0.11349648225080
C            6.53528794704078       -4.79421412642868        0.07057700067925
C            5.83850682991666       -3.60201077378710        0.04156950091493
C            6.52749712751731       -2.39073620533052        0.05470219354322
C            5.79282985775386       -1.12609674759938        0.02430704945812
N            6.49369271930147        0.00367988039917       -0.00366423289241
C            5.78714509684543        1.12998092798342       -0.02829751184242
C            6.51518055723730        2.39837089922723       -0.06167915347357
C            5.81991539137531        3.60603027694466       -0.04722884374411
C            6.51035838588798        4.80184119042068       -0.07943689494436
C            7.89583038458618        4.80382322800811       -0.12698772572165
C            8.59217528138139        3.60515263718560       -0.14178340327128
C            7.90786974961715        2.40581144700186       -0.10897006162507
N            4.45748834573986        1.17287371468170       -0.02481660492480
C            3.83752089835503       -0.00293924387158        0.00120494753963
C            2.37483989828589       -0.00626548401477        0.00274551340019
C            1.67081311254794        1.19522451452112       -0.05930716988724
C            0.29163764623094        1.19269269097568       -0.05953557492340
C           -0.40358215696129       -0.01197692342974        0.00413615087198
N           -1.82090570155723       -0.01401654310071        0.00534182932338
C           -2.49610361311025        0.43717561547801        1.13229405671622
C           -1.78753522426339        0.83685338187269        2.26892247526263
C           -2.44790280461227        1.29259262666361        3.39148504015110
C           -3.83065289641837        1.35175956575051        3.41280519629293
C           -4.53911571698975        0.93105523749592        2.30336738518649
C           -3.89226132023424        0.46945038544137        1.16660163224716
C           -4.73001677123770       -0.00493738155654        0.00464125403539
C           -5.70685713982211       -1.07338967370192        0.45596664965343
C           -5.42740463225487       -2.31581878336329        0.97986766299924
C           -6.48774635006752       -3.14144738065840        1.32914800564379
C           -7.79866344660975       -2.72483575797805        1.15486517649373
C           -8.08425992471220       -1.47506613566248        0.62852975613718
C           -7.03061345256029       -0.64731999885352        0.27837894570017
C           -7.01209069024105        0.69374278253708       -0.28649371410829
C           -8.04243050844402        1.54699354455466       -0.64464330608561
C           -7.72231697014431        2.78906392703376       -1.16935182705290
C           -6.40032815538030        3.17315069568382       -1.33434755683846
C           -5.36322877932055        2.32189035598410       -0.97691397510021
C           -5.67706706472948        1.08711362743374       -0.45446901083095
C           -3.89458217781811       -0.49682284841096       -1.15171625720245
C           -4.54399603973400       -0.96379799849811       -2.28482066776784
C           -3.83795455595980       -1.39510195779575       -3.39172379278446
C           -2.45500132927765       -1.34057137857100       -3.37189678068791
C           -1.79207364516175       -0.87971239604629       -2.25291997954885
C           -2.49823124109732       -0.46980606622721       -1.11845598438732
C            0.29663396862090       -1.21376066060536        0.06740834207793
C            1.67586998204762       -1.21061539891824        0.06579063335329
N            4.46336494058699       -1.17565959022487        0.02579557364514
C            7.92034522850008       -2.39095317098930        0.09743394429042
C            8.61102366995078       -3.58673449185445        0.12697600614130
H            8.46349190636561       -5.72286660523830        0.13642279024823
H            5.99976806518807       -5.73229087723333        0.05970487366076
H            4.76058761109494       -3.58667245273074        0.00740076986230
H            4.74220886452415        3.58515457843955       -0.00944636054554
H            5.96994945936561        5.73710138597912       -0.06767654160148
H            8.43345580032157        5.74047131591187       -0.15264436356789
H            9.67171657835883        3.60931227528011       -0.17918626816705
H            8.43251607149431        1.46349485314646       -0.12072945665915
H            2.22374784245910        2.11946057296134       -0.11272473815531
H           -0.26113002867269        2.11945873059095       -0.10759400709379
H           -0.70974652081141        0.78269312859270        2.27447833131977
H           -1.87567387006866        1.59868905368548        4.25464164302145
H           -4.35166219605989        1.71093877824855        4.28673414908627
H           -5.61924971622155        0.95513303051102        2.31217496250942
H           -4.40586800375357       -2.64013125650307        1.11672290051192
H           -6.28940072908886       -4.11979892252498        1.74177895374305
H           -8.60795566171619       -3.38407763689488        1.43373546708376
H           -9.10708099836131       -1.15483020828340        0.49507947108287
H           -9.07379108202102        1.25217943487793       -0.51853361078895
H           -8.51309803799478        3.46782035191931       -1.45444256138712
H           -6.17489986420799        4.14598632265492       -1.74612350038603
H           -4.33305242290536        2.62087619485370       -1.10655359473629
H           -5.62423483039254       -0.98311016828482       -2.29295451582625
H           -4.36096617545703       -1.75816371229748       -4.26284811234341
H           -1.88456824759240       -1.65440951173430       -4.23346218533466
H           -0.71411868788374       -0.82938079480410       -2.25985157859628
H           -0.25222371755625       -2.14278894538875        0.11670139077405
H            2.23254326895888       -2.13264207911925        0.11876707047979
H            8.44017042643585       -1.44595900509016        0.10818055002605
H            9.69068958175700       -3.58524607324596        0.16076668161370

          :  Hamiltonian                  GFN2-xTB          :
         :: gradient norm              0.000083749185 Eh/a0 ::
         :: HOMO-LUMO gap              1.599168029834 eV    ::
         :: SCC energy              -127.880179745443 Eh    ::
         :: -> dispersion             -0.115990030076 Eh    ::
         :: repulsion energy           2.339230505764 Eh    ::

    * Orbital Energies and Occupations

         #    Occupation            Energy/Eh            Energy/eV
      -------------------------------------------------------------
         1        2.0000           -0.6840051             -18.6127
       ...           ...                  ...                  ...
       105        2.0000           -0.4105038             -11.1704
       106        2.0000           -0.4097795             -11.1507
       107        2.0000           -0.4079236             -11.1002
       108        2.0000           -0.4071322             -11.0786
       109        2.0000           -0.4066087             -11.0644
       110        2.0000           -0.4041205             -10.9967
       111        2.0000           -0.3949067             -10.7460
       112        2.0000           -0.3927386             -10.6870
       113        2.0000           -0.3899233             -10.6104
       114        2.0000           -0.3764074             -10.2426
       115        2.0000           -0.3715446             -10.1102
       116        2.0000           -0.3710488             -10.0968
       117        2.0000           -0.3471940              -9.4476 (HOMO)
       118                         -0.2884255              -7.8485 (LUMO)
       119                         -0.2863846              -7.7929
       120                         -0.2488750              -6.7722
       121                         -0.2470762              -6.7233
       122                         -0.2372704              -6.4565
       123                         -0.2290066              -6.2316
       124                         -0.2289936              -6.2312
       125                         -0.2287881              -6.2256
       126                         -0.2219582              -6.0398
       127                         -0.2206252              -6.0035
       128                         -0.2193589              -5.9691
       ...                                ...                  ...
       230                          0.7326943              19.9376
      -------------------------------------------------------------
                  HL-Gap            0.0587685 Eh            1.5992 eV

     #   Z          covCN         q      C6AA      α(0)
     1   6 C        2.920    -0.023    28.584     8.767
     2   6 C        2.918    -0.027    28.684     8.783
     3   6 C        2.924    -0.023    28.588     8.768
     4   6 C        2.984    -0.000    28.024     8.684
     5   6 C        2.982     0.202    23.705     7.987
     6   7 N        1.844    -0.294    28.469     7.908
     7   6 C        2.982     0.202    23.705     7.987
     8   6 C        2.984    -0.000    28.024     8.684
     9   6 C        2.924    -0.023    28.588     8.768
    10   6 C        2.918    -0.027    28.684     8.783
    11   6 C        2.920    -0.023    28.584     8.767
    12   6 C        2.918    -0.027    28.683     8.782
    13   6 C        2.924    -0.023    28.585     8.768
    14   7 N        1.844    -0.295    28.506     7.913
    15   6 C        2.983     0.202    23.713     7.988
    16   6 C        2.984    -0.002    28.067     8.690
    17   6 C        2.923    -0.024    28.601     8.770
    18   6 C        2.920    -0.038    28.936     8.821
    19   6 C        2.928     0.074    26.354     8.419
    20   7 N        2.753    -0.068    22.556     7.054
    21   6 C        2.925     0.059    26.682     8.471
    22   6 C        2.924    -0.058    29.438     8.898
    23   6 C        2.920    -0.032    28.800     8.800
    24   6 C        2.917    -0.042    29.049     8.838
    25   6 C        2.926    -0.035    28.862     8.810
    26   6 C        2.983    -0.007    28.195     8.710
    27   6 C        3.950     0.012    20.311     6.404
    28   6 C        3.059     0.003    27.902     8.662
    29   6 C        2.914    -0.032    28.797     8.800
    30   6 C        2.923    -0.032    28.790     8.799
    31   6 C        2.921    -0.033    28.811     8.802
    32   6 C        2.915    -0.034    28.853     8.808
    33   6 C        3.035     0.001    27.962     8.673
    34   6 C        3.035     0.001    27.962     8.673
    35   6 C        2.915    -0.034    28.852     8.808
    36   6 C        2.921    -0.033    28.811     8.802
    37   6 C        2.923    -0.032    28.790     8.799
    38   6 C        2.914    -0.032    28.799     8.800
    39   6 C        3.059     0.003    27.901     8.662
    40   6 C        2.983    -0.007    28.195     8.710
    41   6 C        2.926    -0.035    28.862     8.810
    42   6 C        2.917    -0.042    29.049     8.838
    43   6 C        2.920    -0.032    28.800     8.800
    44   6 C        2.924    -0.058    29.439     8.898
    45   6 C        2.925     0.059    26.682     8.471
    46   6 C        2.920    -0.038    28.936     8.821
    47   6 C        2.923    -0.024    28.601     8.770
    48   7 N        1.844    -0.295    28.505     7.913
    49   6 C        2.924    -0.023    28.585     8.768
    50   6 C        2.918    -0.027    28.683     8.782
    51   1 H        0.926     0.037     2.489     2.467
    52   1 H        0.926     0.037     2.488     2.467
    53   1 H        0.926     0.055     2.262     2.352
    54   1 H        0.926     0.055     2.262     2.352
    55   1 H        0.926     0.037     2.488     2.467
    56   1 H        0.926     0.037     2.489     2.467
    57   1 H        0.926     0.037     2.488     2.466
    58   1 H        0.926     0.055     2.255     2.348
    59   1 H        0.926     0.062     2.180     2.309
    60   1 H        0.926     0.046     2.370     2.407
    61   1 H        0.926     0.027     2.626     2.534
    62   1 H        0.926     0.030     2.588     2.515
    63   1 H        0.926     0.029     2.603     2.523
    64   1 H        0.926     0.029     2.594     2.519
    65   1 H        0.926     0.025     2.656     2.549
    66   1 H        0.926     0.030     2.591     2.517
    67   1 H        0.926     0.029     2.594     2.518
    68   1 H        0.926     0.030     2.583     2.513
    69   1 H        0.926     0.030     2.583     2.513
    70   1 H        0.926     0.030     2.593     2.518
    71   1 H        0.926     0.030     2.591     2.517
    72   1 H        0.926     0.025     2.657     2.549
    73   1 H        0.926     0.029     2.594     2.519
    74   1 H        0.926     0.029     2.603     2.523
    75   1 H        0.926     0.030     2.588     2.516
    76   1 H        0.926     0.027     2.626     2.534
    77   1 H        0.926     0.046     2.369     2.407
    78   1 H        0.926     0.062     2.180     2.309
    79   1 H        0.926     0.055     2.255     2.348
    80   1 H        0.926     0.037     2.488     2.466

molecular dipole:
                 x           y           z       tot (Debye)
 q only:        0.584       0.001      -0.001
   full:        0.609       0.001      -0.001       1.547

 projected vibrational frequencies (cm⁻¹)
eigval :       -0.00    -0.00    -0.00     0.00     0.00     0.00
eigval :        3.37     4.44    14.26    16.22    22.22    23.63
eigval :       36.51    42.33    50.63    50.84    53.25    55.51
eigval :       70.72    84.12    91.41    94.34   110.13   114.09
eigval :      140.49   147.14   161.81   168.53   181.72   181.84
eigval :      211.25   236.59   238.62   245.61   253.99   258.67
eigval :      281.45   294.03   296.03   324.72   363.93   364.76
eigval :      370.45   377.02   380.92   387.01   400.07   402.18
eigval :      403.04   414.53   417.53   426.00   436.70   443.10
eigval :      459.44   461.94   463.27   499.70   502.69   506.06
eigval :      512.97   540.25   553.54   587.54   587.57   587.80
eigval :      588.56   601.76   603.27   606.54   607.87   616.94
eigval :      626.51   630.35   634.81   653.23   663.66   673.85
eigval :      673.96   680.40   684.78   687.01   711.09   727.51
eigval :      730.51   752.36   754.76   768.85   772.84   775.55
eigval :      778.18   786.06   794.88   827.31   845.41   847.51
eigval :      867.36   867.44   872.89   875.98   877.19   877.80
eigval :      878.80   892.53   899.26   909.07   909.32   909.71
eigval :      910.48   910.73   914.11   920.53   920.57   921.41
eigval :      923.46   925.59   926.83   927.53   928.78   930.53
eigval :      930.70   933.66   933.89   949.56   975.43   990.71
eigval :     1006.40  1015.24  1047.72  1074.20  1074.99  1075.63
eigval :     1079.00  1087.96  1089.53  1107.52  1109.00  1110.62
eigval :     1111.91  1119.54  1126.55  1141.31  1142.78  1162.11
eigval :     1166.77  1177.23  1178.58  1180.29  1181.09  1182.08
eigval :     1184.45  1185.35  1189.54  1194.84  1204.06  1205.26
eigval :     1206.88  1211.10  1233.49  1237.32  1246.88  1252.82
eigval :     1259.90  1268.67  1269.17  1270.17  1274.82  1284.70
eigval :     1316.01  1317.77  1327.33  1328.30  1328.48  1329.76
eigval :     1335.23  1339.30  1367.61  1371.57  1371.93  1376.28
eigval :     1406.24  1429.67  1430.24  1432.90  1434.15  1438.34
eigval :     1438.36  1461.86  1468.16  1472.17  1473.13  1482.29
eigval :     1482.68  1495.86  1512.91  1515.83  1566.35  1574.70
eigval :     1584.14  1585.40  1586.56  1587.94  1590.48  1590.73
eigval :     1595.17  1595.72  1597.25  1602.17  1604.18  1605.56
eigval :     3071.41  3071.96  3074.60  3074.66  3075.02  3075.89
eigval :     3079.28  3079.45  3080.83  3080.96  3082.17  3082.20
eigval :     3082.25  3084.29  3086.44  3087.51  3089.95  3090.34
eigval :     3090.45  3091.83  3095.72  3095.98  3101.19  3101.85
eigval :     3107.44  3108.05  3108.14  3109.41  3111.55  3112.08

   temp. (K)  partition function   enthalpy   heat capacity  entropy
                                   cal/mol     cal/K/mol   cal/K/mol   J/K/mol
 298.15  VIB  0.495E+20            22825.457    142.486    145.457
         ROT  0.109E+09              888.752      2.981     39.761
         INT  0.541E+28            23714.209    145.467    185.218
         TR   0.156E+29             1481.254      4.968     45.225
         TOT                       25195.4631   150.4347   230.4428   964.1726

       T/K    H(0)-H(T)+PV         H(T)/Eh          T*S/Eh         G(T)/Eh
   ------------------------------------------------------------------------
    298.15    0.401515E-01    0.651361E+00    0.109491E+00    0.541870E+00
   ------------------------------------------------------------------------

         :::::::::::::::::::::::::::::::::::::::::::::::::::::
         ::                  THERMODYNAMIC                  ::
         :::::::::::::::::::::::::::::::::::::::::::::::::::::
         :: total free energy        -124.999079381295 Eh   ::
         ::.................................................::
         :: total energy             -125.540949239676 Eh   ::
         :: zero point energy           0.611209135862 Eh   ::
         :: G(RRHO) w/o ZPVE           -0.069339277481 Eh   ::
         :: G(RRHO) contrib.            0.541869858381 Eh   ::
         :::::::::::::::::::::::::::::::::::::::::::::::::::::

           -------------------------------------------------
          | TOTAL ENERGY             -125.540949239676 Eh   |
          | TOTAL ENTHALPY           -124.889588577688 Eh   |
          | TOTAL FREE ENERGY        -124.999079381295 Eh   |
          | GRADIENT NORM               0.000083712285 Eh/α |
          | HOMO-LUMO GAP               1.599172481912 eV   |
           -------------------------------------------------

 * finished run on 2025/07/16 at 23:39:03.967
