   * xtb version 6.7.1 (edcfbbe) compiled by 'albert@albert-system' on 2024-07-22

   ID    Z sym.   atoms
    1    6 C      1-5, 7-13, 15-19, 21-47, 49, 50
    2    7 N      6, 14, 20, 48
    3    1 H      51-80

          program call               : xtb data2507/gas/SpiroAC-TRZ/SpiroAC-TRZ_gas_S0_finalOpt.xtbopt.xyz --gfn 2 --spinpol --tblite --uhf 2 --ohess vtight --parallel 40 --molden --ceasefiles --namespace data2507/gas/SpiroAC-TRZ/SpiroAC-TRZ_gas_T1_preOpt
 * total energy  :  -125.4637759 Eh     change       -0.1656730E-08 Eh
 * total energy  :  -125.4666243 Eh     change       -0.2848394E-02 Eh
 * total energy  :  -125.4683024 Eh     change       -0.1678185E-02 Eh
 * total energy  :  -125.4684371 Eh     change       -0.1346573E-03 Eh
 * total energy  :  -125.4685451 Eh     change       -0.1079922E-03 Eh
 * total energy  :  -125.4685593 Eh     change       -0.1422069E-04 Eh
 * total energy  :  -125.4685717 Eh     change       -0.1235769E-04 Eh
 * total energy  :  -125.4685761 Eh     change       -0.4395458E-05 Eh
 * total energy  :  -125.4685825 Eh     change       -0.6459892E-05 Eh
 * total energy  :  -125.4685871 Eh     change       -0.4577478E-05 Eh
 * total energy  :  -125.4686445 Eh     change       -0.1922744E-05 Eh
 * total energy  :  -125.4686454 Eh     change       -0.9549773E-06 Eh
 * total energy  :  -125.4686462 Eh     change       -0.8275350E-06 Eh
 * total energy  :  -125.4686470 Eh     change       -0.7467437E-06 Eh
 * total energy  :  -125.4686477 Eh     change       -0.7371255E-06 Eh
 * total energy  :  -125.4686485 Eh     change       -0.7928278E-06 Eh
 * total energy  :  -125.4686494 Eh     change       -0.8910618E-06 Eh
 * total energy  :  -125.4686503 Eh     change       -0.9359674E-06 Eh
 * total energy  :  -125.4686504 Eh     change       -0.1887143E-07 Eh
   *** GEOMETRY OPTIMIZATION CONVERGED AFTER 44 ITERATIONS ***

 final structure:
================
80
 xtb: 6.7.1 (edcfbbe)
C            7.94285836172495       -4.79364542603560        0.20902956657995
C            6.55548664131331       -4.80640330799692        0.22488782451713
C            5.84971707083814       -3.62192179781476        0.17875771896636
C            6.52823579029317       -2.40353144659399        0.11609372096636
C            5.78883389967543       -1.15068079787102        0.06091655332005
N            6.49036465835688        0.00258934820447       -0.00345635453166
C            5.78437568299449        1.15317228474557       -0.06633936795278
C            6.51892622728915        2.40881799748205       -0.12323678914657
C            5.83564500518172        3.62461131598018       -0.18445161058768
C            6.53680406292160        4.81176491353348       -0.23231833391084
C            7.92424240579642        4.80426995938396       -0.21964801710226
C            8.60898852825593        3.60021195748843       -0.15914998867030
C            7.91450599951575        2.40813633616932       -0.11122832154773
N            4.48040493702696        1.17152698070602       -0.07723490049893
C            3.80305817283373       -0.00247781825539       -0.00055617868166
C            2.38442334894854       -0.00503872411252        0.00090059564495
C            1.65890555923187        1.19909279165909       -0.11689789029670
C            0.28762411969148        1.19386919903556       -0.11891131602964
C           -0.41077749227871       -0.00992543897694        0.00354291165261
N           -1.83448173036423       -0.01177335281921        0.00496321846827
C           -2.50481553730942        0.41391073302671        1.13463815628071
C           -1.78776841661090        0.80577940426175        2.27299639065473
C           -2.44367096861248        1.24668848498032        3.40120590250118
C           -3.82931586323943        1.30325103107275        3.42817713159806
C           -4.54594286594458        0.89809445121756        2.31788730201592
C           -3.90491562709971        0.44944525056684        1.17291087712263
C           -4.73989279340701       -0.00369845577133        0.00439005391520
C           -5.71613267271838       -1.08310257494705        0.43774774274245
C           -5.43176611937064       -2.33274085243377        0.94088878484799
C           -6.49025251756966       -3.16602809655480        1.27826240607320
C           -7.80219069457845       -2.74932536753786        1.11254782309659
C           -8.09153007941931       -1.49198508615085        0.60664770493002
C           -7.04035289767028       -0.65611328871717        0.26837931307763
C           -7.02536357334319        0.69418356988834       -0.27387545107394
C           -8.05769017578398        1.55066642497550       -0.61858271939551
C           -7.74043863519511        2.80205062696924       -1.12249196826524
C           -6.41953157013982        3.19279472372285       -1.27998223216741
C           -5.37984292381082        2.33875261251731       -0.93616308738334
C           -5.69202301144958        1.09499819590483       -0.43498492133976
C           -3.90694422594369       -0.47074039498288       -1.16012899042355
C           -4.55008618412162       -0.92289643693632       -2.30253486534172
C           -3.83543204545618       -1.33632184899474       -3.41104754522349
C           -2.44960846602269       -1.28396207157645       -3.38518626702248
C           -1.79160877640227       -0.83957964708865       -2.25955691754824
C           -2.50667632478229       -0.43991270937494       -1.12266879441963
C            0.29203750842956       -1.21127258800539        0.12491573666674
C            1.66333908242959       -1.21168217083262        0.12023665796310
N            4.48492885720677       -1.17391408474040        0.07464832239764
C            7.92378455667742       -2.39755540292794        0.10089763219994
C            8.62288906155431       -3.58698726601401        0.14709913494106
H            8.49230031859331       -5.72298246033873        0.24447685866564
H            6.02645429308745       -5.74726902077448        0.27280793823128
H            4.77072361584037       -3.61549259231605        0.18914616431025
H            4.75665957974106        3.61409374747028       -0.19236933532987
H            6.00409082478696        5.75060956005223       -0.27911241748090
H            8.47007383396879        5.73568427243370       -0.25645816629786
H            9.68937060286668        3.59476701299538       -0.14905427361926
H            8.43379536333353        1.46336608059252       -0.06321223343247
H            2.20917133479160        2.12184268051683       -0.21210853444759
H           -0.26813144409669        2.11584546286611       -0.21546077136473
H           -0.71045261043624        0.75583638559708        2.26271008298179
H           -1.87086840247966        1.54606403301935        4.26579865207334
H           -4.34566408447542        1.65195776209968        4.30895813434996
H           -5.62578540280581        0.92517646599692        2.33262758221368
H           -4.40969744383184       -2.65766520035894        1.07128933905607
H           -6.28874903985173       -4.15006616809875        1.67482305551480
H           -8.60948645703863       -3.41446081482496        1.38219370761800
H           -9.11492561190032       -1.17156941997197        0.47983395483505
H           -9.08798794733953        1.25054174347448       -0.49817667997750
H           -8.53274465979846        3.48301918858323       -1.39703047349959
H           -6.19616659192973        4.17267558341571       -1.67512424637718
H           -4.35076877374400        2.64343580235978       -1.06022926014939
H           -5.63003173077523       -0.94578199903509       -2.31682089220590
H           -4.35342521286343       -1.68769938310723       -4.28979838112083
H           -1.87827864620060       -1.58935665877743       -4.24864882910129
H           -0.71414426522084       -0.79298667209573       -2.25027208687051
H           -0.26029902459765       -2.13515628347430        0.22287352002441
H            2.21700640987922       -2.13249460325510        0.21452831788432
H            8.43936293492519       -1.45081594364922        0.05178710759719
H            9.70321645182427       -3.57744190792276        0.13452047397353

 projected vibrational frequencies (cm⁻¹)
eigval :       -0.00    -0.00    -0.00    -0.00     0.00     0.00
eigval :        4.56     7.45    14.11    23.72    25.98    28.62
eigval :       41.07    41.81    49.58    52.73    52.92    56.71
eigval :       72.00    84.22    95.26   105.86   108.98   111.03
eigval :      139.72   141.93   160.40   166.66   179.74   193.91
eigval :      224.60   236.37   237.47   243.43   244.52   246.80
eigval :      272.05   288.94   293.27   328.06   352.70   366.45
eigval :      367.21   370.71   378.73   386.70   394.47   395.27
eigval :      399.72   410.62   411.24   418.46   423.86   428.95
eigval :      443.24   456.94   460.36   484.11   502.46   506.83
eigval :      518.00   539.32   544.38   548.29   559.39   566.36
eigval :      586.56   587.16   588.26   589.78   600.43   601.71
eigval :      601.83   605.50   616.61   648.67   650.49   661.88
eigval :      666.11   672.10   675.74   677.26   677.42   689.82
eigval :      692.08   718.01   729.79   754.20   761.05   762.47
eigval :      769.06   771.88   777.01   786.20   798.21   799.82
eigval :      803.57   843.33   868.65   869.42   869.89   871.59
eigval :      878.25   878.85   891.46   893.47   898.49   899.47
eigval :      900.75   909.10   910.07   910.31   911.63   912.27
eigval :      914.84   919.44   923.00   923.02   925.45   926.40
eigval :      927.49   928.12   928.58   928.83   946.39   955.73
eigval :      983.39   991.67   997.71  1004.11  1061.60  1073.77
eigval :     1074.13  1075.35  1079.14  1087.58  1102.81  1103.65
eigval :     1108.64  1108.79  1119.39  1126.27  1136.03  1142.25
eigval :     1142.58  1154.38  1169.10  1175.80  1178.05  1180.12
eigval :     1180.61  1181.76  1182.08  1184.29  1185.96  1189.76
eigval :     1202.10  1202.46  1228.49  1232.71  1243.02  1251.84
eigval :     1257.40  1258.01  1260.71  1268.31  1274.46  1274.69
eigval :     1284.01  1284.51  1307.41  1313.52  1326.02  1327.64
eigval :     1331.19  1332.24  1332.49  1336.12  1367.27  1388.92
eigval :     1409.06  1420.88  1424.13  1425.14  1428.88  1429.17
eigval :     1434.75  1439.43  1439.86  1458.92  1460.63  1463.62
eigval :     1471.83  1475.63  1480.23  1489.06  1496.05  1557.17
eigval :     1562.77  1571.40  1571.66  1572.35  1579.05  1585.56
eigval :     1586.25  1590.81  1595.29  1597.23  1601.90  1603.94
eigval :     3071.91  3072.07  3072.47  3073.88  3074.62  3075.10
eigval :     3076.53  3076.71  3077.62  3078.59  3083.23  3083.42
eigval :     3085.13  3087.08  3087.53  3087.79  3088.14  3088.19
eigval :     3093.51  3094.62  3098.22  3099.34  3099.90  3100.52
eigval :     3100.68  3100.97  3101.32  3103.14  3109.50  3110.02

   temp. (K)  partition function   enthalpy   heat capacity  entropy
                                   cal/mol     cal/K/mol   cal/K/mol   J/K/mol
 298.15  VIB  0.120E+20            23128.143    145.413    145.678
         ROT  0.110E+09              888.752      2.981     39.769
         INT  0.132E+28            24016.895    148.393    185.447
         TR   0.156E+29             1481.254      4.968     45.225
         TOT                       25498.1490   153.3616   230.6724   965.1332

       T/K    H(0)-H(T)+PV         H(T)/Eh          T*S/Eh         G(T)/Eh
   ------------------------------------------------------------------------
    298.15    0.406339E-01    0.646706E+00    0.109600E+00    0.537106E+00
   ------------------------------------------------------------------------

         :::::::::::::::::::::::::::::::::::::::::::::::::::::
         ::                  THERMODYNAMIC                  ::
         :::::::::::::::::::::::::::::::::::::::::::::::::::::
         :: total free energy        -124.931544156514 Eh   ::
         ::.................................................::
         :: total energy             -125.468650323979 Eh   ::
         :: zero point energy           0.606072170587 Eh   ::
         :: G(RRHO) w/o ZPVE           -0.068966003122 Eh   ::
         :: G(RRHO) contrib.            0.537106167465 Eh   ::
         :::::::::::::::::::::::::::::::::::::::::::::::::::::

           -------------------------------------------------
          | TOTAL ENERGY             -125.468650323979 Eh   |
          | TOTAL ENTHALPY           -124.821944266450 Eh   |
          | TOTAL FREE ENERGY        -124.931544156514 Eh   |
          | GRADIENT NORM               0.000078403062 Eh/α |
           -------------------------------------------------

 * finished run on 2025/07/16 at 23:39:18.212
