   * xtb version 6.7.1 (edcfbbe) compiled by 'albert@albert-system' on 2024-07-22

   ID    Z sym.   atoms
    1    6 C      1-5, 7-13, 15-19, 21-47, 49, 50
    2    7 N      6, 14, 20, 48
    3    1 H      51-80

          program call               : xtb data2507/gas/SpiroAC-TRZ/SpiroAC-TRZ_gas_T1_crest.xyz --gfn 2 --spinpol --tblite --uhf 2 --ohess vtight --parallel 40 --molden --ceasefiles --namespace data2507/gas/SpiroAC-TRZ/SpiroAC-TRZ_gas_T1_finalOpt
 * total energy  :  -125.4686579 Eh     change       -0.4754877E-07 Eh
 * total energy  :  -125.4687087 Eh     change       -0.5083299E-04 Eh
 * total energy  :  -125.4687277 Eh     change       -0.1900638E-04 Eh
 * total energy  :  -125.4687301 Eh     change       -0.2395202E-05 Eh
 * total energy  :  -125.4687330 Eh     change       -0.2854759E-05 Eh
 * total energy  :  -125.4687350 Eh     change       -0.2056755E-05 Eh
 * total energy  :  -125.4687378 Eh     change       -0.2777467E-05 Eh
 * total energy  :  -125.4687407 Eh     change       -0.2873061E-05 Eh
 * total energy  :  -125.4687423 Eh     change       -0.1581392E-05 Eh
 * total energy  :  -125.4687429 Eh     change       -0.6913626E-06 Eh
 * total energy  :  -125.4687478 Eh     change       -0.1596797E-05 Eh
 * total energy  :  -125.4687496 Eh     change       -0.1805337E-05 Eh
 * total energy  :  -125.4687511 Eh     change       -0.1563155E-05 Eh
 * total energy  :  -125.4687529 Eh     change       -0.1754093E-05 Eh
 * total energy  :  -125.4687549 Eh     change       -0.2049664E-05 Eh
 * total energy  :  -125.4687565 Eh     change       -0.1562765E-05 Eh
 * total energy  :  -125.4687577 Eh     change       -0.1188943E-05 Eh
 * total energy  :  -125.4687586 Eh     change       -0.9440834E-06 Eh
 * total energy  :  -125.4687587 Eh     change       -0.4111476E-07 Eh
   *** GEOMETRY OPTIMIZATION CONVERGED AFTER 22 ITERATIONS ***

 final structure:
================
80
 xtb: 6.7.1 (edcfbbe)
C            7.96835957395281       -4.77114110269664        0.09756990664513
C            6.58099752354488       -4.79228845455823        0.09430709296028
C            5.86875497705403       -3.61111060866154        0.06829987705092
C            6.54068699602913       -2.38764112576077        0.04516077661923
C            5.79417451480676       -1.13821118932273        0.01737039433570
N            6.48848871146150        0.02103602218478       -0.00834798302006
C            5.77514270610061        1.16854693333778       -0.03707201184120
C            6.50120917715035        2.43012685632841       -0.06076200751527
C            5.80959389353629        3.64225218195879       -0.09666089429728
C            6.50258566200031        4.83494444327702       -0.11738070177387
C            7.89002670325006        4.83670501498857       -0.10234088153713
C            8.58299317903171        3.63636534649608       -0.06643167183517
C            7.89671815076190        2.43876230747282       -0.04583135763108
N            4.47110095547969        1.17898778972593       -0.04431624148687
C            3.80099077641034       -0.00117677779653       -0.01307363191239
C            2.38238842691402       -0.01301697526734       -0.01242365360721
C            1.64948846461945        1.19138789111831       -0.05487770824750
C            0.27803464359654        1.17736944083729       -0.05192983043373
C           -0.41071021625655       -0.03641874564212       -0.00497952815475
N           -1.83575826801193       -0.04642331802694        0.00322586952111
C           -2.49856045940904        0.14776844215216        1.19766081315806
C           -1.77208857434129        0.32121967048348        2.38304390370923
C           -2.42032839696937        0.51994640485857        3.58207775078780
C           -3.80632934995480        0.54792988965545        3.63178647517980
C           -4.53137076765018        0.36865635985491        2.46855989490405
C           -3.89837340782048        0.16640697796907        1.25145655866741
C           -4.73884678677867       -0.02461082061306        0.01621035212247
C           -5.74944325147889       -1.13867867798371        0.22081134191960
C           -5.50563740577643       -2.47290098730444        0.45758874533246
C           -6.59057442417102       -3.32545096105638        0.61453105182399
C           -7.88844608302070       -2.84434475785543        0.53474269678689
C           -8.13705221299880       -1.50184583776177        0.29697733494749
C           -7.05933697663659       -0.64635769833801        0.13958916808145
C           -7.00052161100785        0.78506505944353       -0.11586688897107
C           -8.00425542800268        1.72553575886499       -0.27756216316607
C           -7.64617582606082        3.04319661270145       -0.51440229304644
C           -6.31315055264876        3.41702880801381       -0.58900734846561
C           -5.30197934711119        2.47896361988508       -0.42773069242225
C           -5.65489097985324        1.16926246135366       -0.19197485782255
C           -3.91250868649572       -0.27175083793314       -1.21869360855239
C           -4.55961187412268       -0.49867378578693       -2.42395862550506
C           -3.84809341534144       -0.70952419643082       -3.59023684408713
C           -2.46154590351950       -0.68525303216803       -3.55644614358198
C           -1.79936560724856       -0.46190260358944       -2.36940319826644
C           -2.51204255176095       -0.25961253636250       -1.18024599930623
C            0.29850941152099       -1.23869948214896        0.03718475357669
C            1.66994885361103       -1.22963496773945        0.03240467818825
N            4.49049756110331       -1.16996387351516        0.01956899793262
C            7.93622325116376       -2.37324489460248        0.04810050430489
C            8.64183426148285       -3.55944405339282        0.07426241363974
H            8.52290185744280       -5.69788591340859        0.11816626270728
H            6.05707172812956       -5.73705594662012        0.11206629292203
H            4.78969038678163       -3.61111971969360        0.06515307138524
H            4.73073334909192        3.62446717373144       -0.10758728735046
H            5.96346480319320        5.77087603037519       -0.14518824319862
H            8.42945097644694        5.77241451209289       -0.11854229543098
H            9.66336141669990        3.63815030302936       -0.05455987243129
H            8.42237547257496        1.49672112351615       -0.01764804692642
H            2.19394467189656        2.12172667879969       -0.09164927935308
H           -0.28454608804823        2.09954590927076       -0.08537452240023
H           -0.69420550120183        0.29548169928759        2.35008002440163
H           -1.84171175257181        0.65259723960118        4.48366075085677
H           -4.31664879036639        0.70512064602984        4.56927759131297
H           -5.61116442427081        0.38417028445904        2.49742778304440
H           -4.49446965966405       -2.84815807067020        0.52004996799535
H           -6.42100215365891       -4.37556231218103        0.80083782933093
H           -8.71689672016242       -3.52615810814283        0.65977355901724
H           -9.14967189350254       -1.13180807389086        0.23575193342713
H           -9.04391122312754        1.43930702117305       -0.22040694899348
H           -8.41580730339299        3.79018708623529       -0.64286338547258
H           -6.05782092961636        4.44975728678326       -0.77471243345746
H           -4.26337957198272        2.77070426119389       -0.48629268127478
H           -5.63973071077289       -0.50707361026461       -2.44131901962591
H           -4.36933376624784       -0.88618667537940       -4.51820462408406
H           -1.89347504412315       -0.84024965243174       -4.46116683072885
H           -0.72110469195380       -0.43936484517824       -2.34883293323810
H           -0.24848208953912       -2.17008571261292        0.07440305010350
H            2.23015590308113       -2.15068954401605        0.06648848354497
H            8.44657149427428       -1.42257970776010        0.02960743550315
H            9.72214946985775       -3.54341685337259        0.07665915859322

 projected vibrational frequencies (cm⁻¹)
eigval :       -0.00    -0.00    -0.00     0.00     0.00     0.00
eigval :        4.19     4.73    13.84    23.38    25.96    28.56
eigval :       40.89    41.49    49.32    49.72    53.02    53.16
eigval :       71.08    84.28    94.30   105.92   108.62   109.98
eigval :      139.60   141.69   159.90   166.29   178.12   193.67
eigval :      225.12   236.71   237.83   242.06   244.21   246.49
eigval :      270.99   288.88   293.14   327.98   351.84   366.44
eigval :      367.20   370.46   377.75   386.68   393.79   395.78
eigval :      399.88   410.93   411.09   418.97   424.09   428.04
eigval :      443.65   456.40   459.88   484.38   502.39   506.75
eigval :      517.38   539.32   544.24   548.32   559.31   566.75
eigval :      586.53   587.14   588.28   589.90   600.75   601.38
eigval :      601.95   604.86   616.70   649.04   650.45   661.84
eigval :      666.59   669.90   675.49   677.13   677.63   689.76
eigval :      692.41   718.13   729.76   754.07   761.10   762.44
eigval :      769.05   771.72   776.90   786.20   797.34   799.80
eigval :      803.79   842.66   868.31   869.40   869.58   871.53
eigval :      878.19   878.83   891.47   892.22   898.43   898.99
eigval :      900.32   907.67   910.00   910.33   911.95   912.12
eigval :      914.81   919.45   922.88   922.90   925.43   926.37
eigval :      927.50   928.13   928.56   928.80   946.48   956.50
eigval :      983.35   990.42   999.11  1004.13  1061.91  1073.81
eigval :     1074.08  1075.73  1079.03  1087.48  1101.76  1102.69
eigval :     1108.65  1108.83  1118.82  1126.19  1135.70  1141.81
eigval :     1142.59  1154.24  1169.22  1175.83  1177.98  1180.11
eigval :     1180.60  1181.52  1181.64  1184.13  1185.44  1189.70
eigval :     1202.21  1203.45  1229.16  1232.00  1242.78  1251.35
eigval :     1257.88  1258.27  1260.27  1268.31  1274.10  1274.62
eigval :     1283.91  1284.80  1309.32  1316.67  1325.42  1326.06
eigval :     1331.22  1332.28  1332.98  1336.34  1367.20  1389.02
eigval :     1408.87  1421.35  1424.22  1424.41  1428.44  1428.85
eigval :     1434.57  1439.46  1440.24  1458.79  1460.14  1463.51
eigval :     1471.51  1475.77  1479.28  1489.29  1497.44  1557.24
eigval :     1564.25  1571.56  1571.92  1572.32  1579.05  1585.54
eigval :     1586.08  1591.32  1595.30  1597.15  1601.81  1603.85
eigval :     3071.95  3072.07  3073.18  3074.53  3074.62  3075.12
eigval :     3076.57  3076.73  3077.61  3078.58  3083.08  3083.27
eigval :     3085.14  3087.12  3087.49  3087.82  3088.00  3088.06
eigval :     3093.48  3094.52  3098.16  3099.28  3099.83  3100.12
eigval :     3100.33  3100.49  3101.15  3102.94  3107.79  3108.00

   temp. (K)  partition function   enthalpy   heat capacity  entropy
                                   cal/mol     cal/K/mol   cal/K/mol   J/K/mol
 298.15  VIB  0.251E+20            23155.052    145.293    146.406
         ROT  0.109E+09              888.752      2.981     39.768
         INT  0.275E+28            24043.805    148.274    186.174
         TR   0.156E+29             1481.254      4.968     45.225
         TOT                       25525.0586   153.2422   231.3990   968.1736

       T/K    H(0)-H(T)+PV         H(T)/Eh          T*S/Eh         G(T)/Eh
   ------------------------------------------------------------------------
    298.15    0.406768E-01    0.646672E+00    0.109945E+00    0.536727E+00
   ------------------------------------------------------------------------

         :::::::::::::::::::::::::::::::::::::::::::::::::::::
         ::                  THERMODYNAMIC                  ::
         :::::::::::::::::::::::::::::::::::::::::::::::::::::
         :: total free energy        -124.932031576369 Eh   ::
         ::.................................................::
         :: total energy             -125.468758629544 Eh   ::
         :: zero point energy           0.605995435256 Eh   ::
         :: G(RRHO) w/o ZPVE           -0.069268382081 Eh   ::
         :: G(RRHO) contrib.            0.536727053175 Eh   ::
         :::::::::::::::::::::::::::::::::::::::::::::::::::::

           -------------------------------------------------
          | TOTAL ENERGY             -125.468758629544 Eh   |
          | TOTAL ENTHALPY           -124.822086424178 Eh   |
          | TOTAL FREE ENERGY        -124.932031576369 Eh   |
          | GRADIENT NORM               0.000092013017 Eh/α |
           -------------------------------------------------

 * finished run on 2025/07/16 at 23:45:14.668
