   * xtb version 6.7.1 (edcfbbe) compiled by 'albert@albert-system' on 2024-07-22

   ID    Z sym.   atoms
    1    6 C      1-8, 10-12, 14-31, 35-38, 40-56
    2    7 N      9, 13, 39
    3   16 S      32
    4    8 O      33, 34
    5    1 H      57-99

          program call               : xtb data2507/toluene/NPE-AcDPS/NPE-AcDPS_toluene_T1_crest.xyz --gfn 2 --uhf 2 --gbsa toluene --ohess vtight --parallel 40 --molden --ceasefiles --namespace data2507/toluene/NPE-AcDPS/NPE-AcDPS_toluene_T1_finalOpt
      * Solvation model:               GBSA
        Solvent                        toluene
        Solvent mass                       9.2140E+01 g/mol
          :  Hamiltonian                  GFN2-xTB          :
 * total energy  :  -149.1813350 Eh     change       -0.6845625E-08 Eh
 * total energy  :  -149.1816637 Eh     change       -0.3286592E-03 Eh
 * total energy  :  -149.1818748 Eh     change       -0.2111094E-03 Eh
 * total energy  :  -149.1819075 Eh     change       -0.3274029E-04 Eh
 * total energy  :  -149.1819447 Eh     change       -0.3713482E-04 Eh
 * total energy  :  -149.1819597 Eh     change       -0.1499029E-04 Eh
 * total energy  :  -149.1819739 Eh     change       -0.1421147E-04 Eh
 * total energy  :  -149.1819859 Eh     change       -0.1204553E-04 Eh
 * total energy  :  -149.1819950 Eh     change       -0.9094092E-05 Eh
 * total energy  :  -149.1820078 Eh     change       -0.1277817E-04 Eh
 * total energy  :  -149.1822137 Eh     change       -0.1358426E-05 Eh
 * total energy  :  -149.1822148 Eh     change       -0.1154886E-05 Eh
 * total energy  :  -149.1822158 Eh     change       -0.1014689E-05 Eh
 * total energy  :  -149.1822168 Eh     change       -0.9974145E-06 Eh
 * total energy  :  -149.1822179 Eh     change       -0.1084208E-05 Eh
 * total energy  :  -149.1822192 Eh     change       -0.1252650E-05 Eh
 * total energy  :  -149.1822206 Eh     change       -0.1455670E-05 Eh
 * total energy  :  -149.1822222 Eh     change       -0.1596408E-05 Eh
 * total energy  :  -149.1822222 Eh     change       -0.4599428E-08 Eh
   *** GEOMETRY OPTIMIZATION CONVERGED AFTER 94 ITERATIONS ***

 final structure:
================
99
 xtb: 6.7.1 (edcfbbe)
C            1.11145368604175       -2.75540136083072       -1.73436556203760
C            0.03377207762626       -1.73083355171910       -1.35559602061402
C           -1.31088715071456       -2.36001282181687       -1.64690663884970
C           -2.04659797061538       -1.97405290230683       -2.75922397951852
C           -3.24444273865344       -2.59819977013418       -3.06175251439232
C           -3.71656021586840       -3.61723729392057       -2.25394381459774
C           -2.98822974395643       -4.00605633301594       -1.14100800069038
C           -1.78961168320213       -3.38542198125629       -0.83875996477223
N            0.12911502836851       -1.39952663218211        0.05834047934255
C           -1.00789003172271       -1.01354987297005        0.77125454415125
C           -1.98733346470014       -0.21755227140056        0.21042853563420
C           -3.09274782437656        0.18400315752392        0.99059649855951
N           -4.12769619350343        0.94224729352444        0.37175012861588
C           -4.02688911152717        2.31612474436826        0.34372296681767
C           -2.91546662837873        2.93538727640576        0.93564025421721
C           -2.78493553824704        4.30541300102107        0.92981731308382
C           -3.76269599074056        5.08880500719513        0.33357653860087
C           -4.85962275636135        4.48304717040257       -0.25216191169971
C           -5.01885401823778        3.10390318453442       -0.26342357882441
C           -6.23988759257636        2.49276692790818       -0.91692944753537
C           -7.49958032654091        3.02826935173874       -0.20765657293016
C           -6.25835759515437        2.89536520366263       -2.40498554898663
C           -6.23511396047966        0.98162395782705       -0.82243187280070
C           -7.28489710357572        0.25393236948949       -1.36638213323950
C           -7.33125116776413       -1.12657293428226       -1.29729381160017
C           -6.30128197570751       -1.81542706246011       -0.67342623333310
C           -5.24289016496495       -1.12293685664264       -0.13217689873144
C           -5.19489224395210        0.27750084827202       -0.19375879266512
C           -3.17550529681375       -0.16217134438515        2.34081329900604
C           -2.19269521697490       -0.93977910769723        2.90882664192371
C           -1.12406586093926       -1.39396625361727        2.12060870396517
S            0.14321531253619       -2.44520532755067        2.71024790667381
O            0.20413870910566       -2.42837927771576        4.16492098232380
O            0.00303271005860       -3.77832752770100        2.11841084682702
C            1.51729662590145       -1.61689729382402        2.01802212909717
C            2.69581433554810       -1.33769663999950        2.72986628421987
C            3.73674730549577       -0.69831475154747        2.10029164363971
C            3.60835381594261       -0.30776817630265        0.76298451512590
N            4.69543882817575        0.31265842083428        0.08581912537953
C            4.94752796654584        1.65089027364421        0.30169483120185
C            4.10820673801565        2.37933147670213        1.15874328267368
C            4.34216046478280        3.71162133159641        1.41162560616992
C            5.41783357983343        4.34945438849439        0.81055334610762
C            6.23638462110143        3.64093349925350       -0.05060128622278
C            6.02392696456305        2.29747974424806       -0.32835275884929
C            6.93642523888773        1.57752223001229       -1.29820185050495
C            6.85144135174486        2.28121040271175       -2.66729211718659
C            8.37992765163349        1.63671977053133       -0.76049072309835
C            6.54554452247797        0.12512157918806       -1.46974622517604
C            7.27491431632066       -0.68758505835819       -2.32748205187619
C            6.97397314699403       -2.02634235674229       -2.50144971970443
C            5.92297122430295       -2.58863449042971       -1.79145309323186
C            5.18268831038750       -1.80825525753523       -0.93291281112369
C            5.46947495702862       -0.44426929229664       -0.76959473445216
C            2.40072944967001       -0.52966962386396        0.06325851232330
C            1.36192828063531       -1.19595797091122        0.68174344595791
H            1.08178923419496       -3.58463246529515       -1.03086067551887
H            2.10635494804963       -2.32210936385758       -1.72067321044245
H            0.90784976638626       -3.13500602527780       -2.73291199834518
H            0.15662418163514       -0.82998639244728       -1.97855868217860
H           -1.67876983458280       -1.18074742038111       -3.39554757998190
H           -3.80935060001077       -2.28850767682476       -3.92876506712855
H           -4.64782343195948       -4.10920714689971       -2.49195340830830
H           -3.35007145311651       -4.80068913986002       -0.50411618562297
H           -1.22754045821461       -3.69284129761828        0.03255889474197
H           -1.93015579928488        0.10223620921838       -0.81681816468979
H           -2.16053877873600        2.32043059829027        1.39988896821185
H           -1.92271814383667        4.76309038070502        1.39082365573288
H           -3.67081829226299        6.16411926850413        0.32531978752217
H           -5.60963657365857        5.10834340443625       -0.71070660994070
H           -7.48183791244892        2.74592622154263        0.84335349070800
H           -7.54763305297418        4.11115647323650       -0.27232327595734
H           -8.39875570474148        2.61889590871018       -0.65812193806325
H           -6.27299394849343        3.97593117904412       -2.51112014044077
H           -7.13519434022446        2.49129319308250       -2.90178834042595
H           -5.37101620980444        2.51094369964618       -2.90415889389472
H           -8.09396318354665        0.77300360421872       -1.85617911371607
H           -8.16426526425670       -1.66166755683398       -1.72692762674799
H           -6.32206444527232       -2.89212452519482       -0.60866400515282
H           -4.43506079914930       -1.65680420032403        0.34277876732583
H           -4.02238415361492        0.16788058508230        2.92398901207926
H           -2.22403381639819       -1.24293423930881        3.94323163430520
H            2.75495823888404       -1.66177425242324        3.75665086048846
H            4.66245316773398       -0.50696821073394        2.62244723933337
H            3.27049896799191        1.88010219840134        1.61962136077972
H            3.68634609282522        4.25344888879004        2.07625521711045
H            5.61287900114462        5.39276807483949        1.00611636388647
H            7.06131426723583        4.15612853549632       -0.51745830126674
H            7.50955296871148        1.80390654100895       -3.38708492780939
H            7.13849015026725        3.32494344514667       -2.58203689163569
H            5.83242861401763        2.23342132493591       -3.04651821899198
H            8.70293720556889        2.66594437269142       -0.63616544779231
H            8.43703470104178        1.13822904146654        0.20542046286798
H            9.06582670371423        1.14352391475992       -1.44276258534359
H            8.10452420303963       -0.27075853213059       -2.87680749951497
H            7.55939716086069       -2.62898377987898       -3.17885506797662
H            5.68233029321683       -3.63495417615512       -1.90470460776930
H            4.37467125146653       -2.24637959739754       -0.36842146831765
H            2.30809563962278       -0.15930572438163       -0.94539288727624

          :  Hamiltonian                  GFN2-xTB          :
         :: gradient norm              0.000053302560 Eh/a0 ::
         :: HOMO-LUMO gap              0.243181900321 eV    ::
         :: SCC energy              -151.698565775836 Eh    ::
         :: -> dispersion             -0.151567148621 Eh    ::
         :: -> Gsolv                  -0.073236923133 Eh    ::
         :: repulsion energy           2.516343541584 Eh    ::

    * Orbital Energies and Occupations

         #    Occupation            Energy/Eh            Energy/eV
      -------------------------------------------------------------
         1        2.0000           -0.7466238             -20.3167
       ...           ...                  ...                  ...
       127        2.0000           -0.4099045             -11.1541
       128        2.0000           -0.4096582             -11.1474
       129        2.0000           -0.4046594             -11.0113
       130        2.0000           -0.4042955             -11.0014
       131        2.0000           -0.4039439             -10.9919
       132        2.0000           -0.4012186             -10.9177
       133        2.0000           -0.3967063             -10.7949
       134        2.0000           -0.3963034             -10.7840
       135        2.0000           -0.3868843             -10.5277
       136        1.9878           -0.3629170              -9.8755
       137        1.6157           -0.3591918              -9.7741
       138        1.3965           -0.3583450              -9.7511
       139        0.9879           -0.2473223              -6.7300 (HOMO)
       140        0.0067           -0.2383863              -6.4868 (LUMO)
       141        0.0052           -0.2381513              -6.4804
       142        0.0001           -0.2347212              -6.3871
       143        0.0000           -0.2303325              -6.2677
       144        0.0000           -0.2302985              -6.2667
       145        0.0000           -0.2299265              -6.2566
       146        0.0000           -0.2293464              -6.2408
       147                         -0.2263278              -6.1587
       148                         -0.2238585              -6.0915
       149                         -0.2216698              -6.0319
       150                         -0.2161627              -5.8821
       ...                                ...                  ...
       272                          1.1558124              31.4513
      -------------------------------------------------------------
                  HL-Gap            0.0089360 Eh            0.2432 eV

     #   Z          covCN         q      C6AA      α(0)
     1   6 C        3.759    -0.110    22.644     6.784
     2   6 C        3.797     0.047    19.795     6.335
     3   6 C        2.979     0.006    27.871     8.660
     4   6 C        2.924    -0.039    28.969     8.826
     5   6 C        2.919    -0.031    28.773     8.796
     6   6 C        2.920    -0.031    28.777     8.797
     7   6 C        2.920    -0.029    28.721     8.788
     8   6 C        2.923    -0.034    28.850     8.808
     9   7 N        2.756    -0.098    23.151     7.146
    10   6 C        2.999     0.063    26.572     8.456
    11   6 C        2.919    -0.074    29.843     8.958
    12   6 C        2.927     0.026    27.433     8.589
    13   7 N        2.755    -0.019    21.617     6.905
    14   6 C        2.930     0.061    26.633     8.463
    15   6 C        2.923    -0.048    29.197     8.861
    16   6 C        2.917    -0.029    28.715     8.787
    17   6 C        2.917    -0.033    28.833     8.805
    18   6 C        2.925    -0.034    28.838     8.807
    19   6 C        2.978    -0.003    28.083     8.693
    20   6 C        3.909     0.024    20.120     6.376
    21   6 C        3.761    -0.108    22.605     6.778
    22   6 C        3.761    -0.108    22.608     6.778
    23   6 C        2.978    -0.003    28.086     8.693
    24   6 C        2.925    -0.034    28.846     8.808
    25   6 C        2.917    -0.033    28.824     8.804
    26   6 C        2.918    -0.028    28.693     8.784
    27   6 C        2.923    -0.046    29.153     8.854
    28   6 C        2.931     0.061    26.633     8.463
    29   6 C        2.915    -0.046    29.146     8.853
    30   6 C        2.939    -0.048    29.196     8.862
    31   6 C        2.971    -0.116    30.946     9.125
    32  16 S        3.882     0.887   109.964    17.649
    33   8 O        0.860    -0.604    26.224     6.866
    34   8 O        0.860    -0.618    26.559     6.910
    35   6 C        2.971    -0.117    30.957     9.126
    36   6 C        2.939    -0.048    29.188     8.861
    37   6 C        2.914    -0.045    29.110     8.847
    38   6 C        2.925     0.023    27.498     8.599
    39   7 N        2.754    -0.019    21.609     6.904
    40   6 C        2.930     0.060    26.652     8.466
    41   6 C        2.923    -0.049    29.205     8.862
    42   6 C        2.917    -0.029    28.721     8.788
    43   6 C        2.917    -0.034    28.843     8.807
    44   6 C        2.925    -0.034    28.844     8.808
    45   6 C        2.978    -0.003    28.092     8.694
    46   6 C        3.909     0.024    20.120     6.376
    47   6 C        3.761    -0.108    22.603     6.777
    48   6 C        3.761    -0.107    22.594     6.776
    49   6 C        2.978    -0.003    28.093     8.694
    50   6 C        2.925    -0.034    28.847     8.808
    51   6 C        2.917    -0.034    28.843     8.807
    52   6 C        2.917    -0.029    28.726     8.789
    53   6 C        2.923    -0.049    29.229     8.866
    54   6 C        2.930     0.060    26.658     8.467
    55   6 C        2.918    -0.075    29.861     8.961
    56   6 C        2.994     0.061    26.624     8.464
    57   1 H        0.925     0.046     2.376     2.411
    58   1 H        0.925     0.054     2.275     2.358
    59   1 H        0.925     0.055     2.263     2.352
    60   1 H        0.923     0.040     2.451     2.448
    61   1 H        0.925     0.035     2.518     2.481
    62   1 H        0.926     0.039     2.464     2.455
    63   1 H        0.926     0.037     2.494     2.469
    64   1 H        0.926     0.028     2.609     2.526
    65   1 H        0.925     0.038     2.482     2.464
    66   1 H        0.926     0.041     2.440     2.443
    67   1 H        0.926     0.039     2.460     2.453
    68   1 H        0.926     0.041     2.441     2.443
    69   1 H        0.926     0.043     2.411     2.428
    70   1 H        0.926     0.049     2.330     2.387
    71   1 H        0.925     0.036     2.509     2.477
    72   1 H        0.925     0.052     2.301     2.372
    73   1 H        0.925     0.051     2.305     2.374
    74   1 H        0.925     0.052     2.298     2.371
    75   1 H        0.925     0.052     2.301     2.372
    76   1 H        0.925     0.037     2.488     2.467
    77   1 H        0.926     0.050     2.322     2.383
    78   1 H        0.926     0.043     2.407     2.426
    79   1 H        0.926     0.039     2.456     2.451
    80   1 H        0.926     0.034     2.525     2.485
    81   1 H        0.926     0.041     2.441     2.443
    82   1 H        0.926     0.028     2.618     2.530
    83   1 H        0.926     0.027     2.631     2.536
    84   1 H        0.926     0.040     2.448     2.447
    85   1 H        0.926     0.040     2.454     2.450
    86   1 H        0.926     0.039     2.456     2.451
    87   1 H        0.926     0.042     2.426     2.436
    88   1 H        0.926     0.048     2.344     2.394
    89   1 H        0.925     0.051     2.308     2.376
    90   1 H        0.925     0.051     2.308     2.376
    91   1 H        0.925     0.037     2.491     2.468
    92   1 H        0.925     0.051     2.309     2.376
    93   1 H        0.925     0.035     2.514     2.480
    94   1 H        0.925     0.050     2.314     2.379
    95   1 H        0.926     0.048     2.343     2.393
    96   1 H        0.926     0.041     2.429     2.437
    97   1 H        0.926     0.039     2.462     2.454
    98   1 H        0.926     0.038     2.477     2.461
    99   1 H        0.926     0.042     2.427     2.436

molecular dipole:
                 x           y           z       tot (Debye)
 q only:        0.039       5.000      -5.004
   full:        0.090       4.652      -4.564      16.566

 projected vibrational frequencies (cm⁻¹)
eigval :       -0.00    -0.00    -0.00     0.00     0.00     0.00
eigval :       -4.30     6.72    10.53    15.91    18.01    27.33
eigval :       34.18    42.19    45.60    50.30    56.60    63.12
eigval :       82.83    90.55    92.88    94.71    97.33    99.83
eigval :      106.19   119.69   125.66   130.33   132.85   141.77
eigval :      148.81   165.39   182.74   186.15   194.20   196.06
eigval :      197.12   215.20   215.91   220.44   229.50   231.18
eigval :      236.92   239.79   253.18   273.47   287.32   300.01
eigval :      301.92   307.23   314.65   321.79   325.14   325.33
eigval :      333.17   337.21   344.69   350.15   353.19   376.64
eigval :      377.32   379.37   384.82   392.82   402.08   403.59
eigval :      414.25   417.11   425.66   442.08   449.28   450.16
eigval :      460.67   486.25   503.84   503.88   505.57   512.58
eigval :      515.81   519.27   526.35   534.12   542.36   542.91
eigval :      551.85   557.65   567.22   575.73   580.45   584.72
eigval :      588.31   591.70   610.09   622.48   628.79   637.91
eigval :      644.40   658.34   670.89   676.13   687.29   688.09
eigval :      691.16   699.69   700.49   708.96   743.87   762.88
eigval :      771.90   772.40   773.22   774.53   774.87   781.52
eigval :      786.31   801.00   807.60   821.40   824.40   824.95
eigval :      869.89   870.79   871.19   871.96   875.19   875.87
eigval :      880.08   885.16   907.41   908.41   909.56   910.24
eigval :      915.00   915.30   915.94   920.56   921.58   922.22
eigval :      923.43   929.40   935.28   935.78   939.82   955.02
eigval :      957.95   958.32   974.32   983.32   986.31  1006.81
eigval :     1012.14  1013.20  1031.10  1037.04  1056.97  1072.41
eigval :     1073.37  1079.83  1081.08  1084.55  1091.54  1098.94
eigval :     1102.46  1109.35  1109.47  1109.72  1130.17  1135.23
eigval :     1136.00  1142.03  1143.68  1146.23  1147.15  1147.41
eigval :     1154.98  1163.88  1177.63  1178.57  1180.47  1181.04
eigval :     1181.36  1182.80  1184.87  1198.64  1203.14  1214.43
eigval :     1220.02  1229.89  1231.42  1235.44  1239.04  1241.11
eigval :     1245.83  1247.92  1255.96  1259.78  1276.29  1281.87
eigval :     1291.01  1291.23  1302.42  1305.11  1309.01  1310.71
eigval :     1312.51  1322.97  1327.50  1328.13  1329.57  1334.33
eigval :     1334.68  1357.10  1380.40  1396.44  1396.72  1397.64
eigval :     1401.77  1402.75  1413.72  1414.72  1414.83  1415.03
eigval :     1421.34  1423.74  1426.91  1439.65  1441.70  1451.05
eigval :     1452.93  1453.22  1472.21  1473.58  1474.93  1480.43
eigval :     1481.54  1481.80  1482.67  1482.86  1490.52  1491.06
eigval :     1492.27  1496.65  1496.93  1534.53  1541.38  1542.36
eigval :     1545.85  1563.21  1568.89  1571.80  1574.70  1583.77
eigval :     1589.47  1599.05  2829.67  3027.85  3027.88  3029.88
eigval :     3029.98  3038.41  3040.58  3047.14  3048.15  3049.46
eigval :     3050.05  3054.42  3055.10  3058.42  3058.92  3059.46
eigval :     3061.30  3070.69  3076.88  3080.09  3080.46  3081.56
eigval :     3082.88  3083.00  3083.31  3084.39  3089.50  3089.73
eigval :     3089.74  3091.06  3093.49  3097.84  3099.13  3099.28
eigval :     3099.89  3100.01  3100.37  3100.89  3105.81  3106.68
eigval :     3107.22  3109.82  3113.28

   temp. (K)  partition function   enthalpy   heat capacity  entropy
                                   cal/mol     cal/K/mol   cal/K/mol   J/K/mol
 298.15  VIB  0.145E+24            29279.203    183.070    183.197
         ROT  0.116E+09              888.752      2.981     39.891
         INT  0.169E+32            30167.955    186.051    223.087
         TR   0.199E+29             1481.254      4.968     45.703
         TOT                       31649.2089   191.0193   268.7905  1124.6196

       T/K    H(0)-H(T)+PV         H(T)/Eh          T*S/Eh         G(T)/Eh
   ------------------------------------------------------------------------
    298.15    0.504362E-01    0.827920E+00    0.127711E+00    0.700209E+00
   ------------------------------------------------------------------------

         :::::::::::::::::::::::::::::::::::::::::::::::::::::
         ::                  THERMODYNAMIC                  ::
         :::::::::::::::::::::::::::::::::::::::::::::::::::::
         :: total free energy        -148.482013506919 Eh   ::
         ::.................................................::
         :: total energy             -149.182222234316 Eh   ::
         :: zero point energy           0.777483559777 Eh   ::
         :: G(RRHO) w/o ZPVE           -0.077274832381 Eh   ::
         :: G(RRHO) contrib.            0.700208727397 Eh   ::
         :::::::::::::::::::::::::::::::::::::::::::::::::::::

           -------------------------------------------------
          | TOTAL ENERGY             -149.182222234316 Eh   |
          | TOTAL ENTHALPY           -148.354302449792 Eh   |
          | TOTAL FREE ENERGY        -148.482013506919 Eh   |
          | GRADIENT NORM               0.000051388718 Eh/α |
          | HOMO-LUMO GAP               0.243159927672 eV   |
           -------------------------------------------------

 * finished run on 2025/09/13 at 15:59:08.386
