   * xtb version 6.7.1 (edcfbbe) compiled by 'albert@albert-system' on 2024-07-22

   ID    Z sym.   atoms
    1    6 C      1-8, 10-12, 14-31, 35-38, 40-56
    2    7 N      9, 13, 39
    3   16 S      32
    4    8 O      33, 34
    5    1 H      57-99

          program call               : xtb data2507/toluene/NPE-AcDPS/NPE-AcDPS.xyz --gfn 2 --gbsa toluene --ohess vtight --parallel 40 --molden --ceasefiles --namespace data2507/toluene/NPE-AcDPS/NPE-AcDPS_toluene_S0_preOpt
      * Solvation model:               GBSA
        Solvent                        toluene
        Solvent mass                       9.2140E+01 g/mol
          :  Hamiltonian                  GFN2-xTB          :
 * total energy  :  -149.2361598 Eh     change       -0.1745235E-08 Eh
 * total energy  :  -149.2573130 Eh     change       -0.2115321E-01 Eh
 * total energy  :  -149.2658673 Eh     change       -0.8554337E-02 Eh
 * total energy  :  -149.2681230 Eh     change       -0.2255675E-02 Eh
 * total energy  :  -149.2694833 Eh     change       -0.1360347E-02 Eh
 * total energy  :  -149.2702256 Eh     change       -0.7422914E-03 Eh
 * total energy  :  -149.2705631 Eh     change       -0.3374699E-03 Eh
 * total energy  :  -149.2707812 Eh     change       -0.2181478E-03 Eh
 * total energy  :  -149.2709714 Eh     change       -0.1901880E-03 Eh
 * total energy  :  -149.2711299 Eh     change       -0.1585260E-03 Eh
 * total energy  :  -149.2733112 Eh     change       -0.9226196E-06 Eh
 * total energy  :  -149.2733123 Eh     change       -0.1024544E-05 Eh
 * total energy  :  -149.2733135 Eh     change       -0.1236124E-05 Eh
 * total energy  :  -149.2733150 Eh     change       -0.1519852E-05 Eh
 * total energy  :  -149.2733169 Eh     change       -0.1853209E-05 Eh
 * total energy  :  -149.2733191 Eh     change       -0.2206582E-05 Eh
 * total energy  :  -149.2733216 Eh     change       -0.2507918E-05 Eh
 * total energy  :  -149.2733244 Eh     change       -0.2808885E-05 Eh
 * total energy  :  -149.2733244 Eh     change       -0.1996574E-07 Eh
   *** GEOMETRY OPTIMIZATION CONVERGED AFTER 94 ITERATIONS ***

 final structure:
================
99
 xtb: 6.7.1 (edcfbbe)
C            0.58441017699130        1.59678226509888        1.97865247253090
C           -0.27866458494734        1.95256615636262        0.77135650600358
C           -0.07803528413201        3.38516194808843        0.31915380143382
C           -1.17479407336448        4.22700044794328        0.19172006369997
C           -1.01936628955795        5.52588323912668       -0.25732047286024
C            0.23726787129127        5.99769780125927       -0.59232451893437
C            1.33591469336685        5.16474068962666       -0.47302386476538
C            1.17876183332673        3.86822200590793       -0.01965050430041
N           -0.12245324747804        1.06192176823350       -0.39786693227924
C           -1.29572351476527        0.76518585041267       -1.09193599316652
C           -2.35382232829964        0.14594624604665       -0.41674492772684
C           -3.50927946303410       -0.21870233645127       -1.08986042704218
N           -4.57479442941804       -0.81982922780685       -0.37145107088486
C           -5.42136044640738       -0.00952407954009        0.37335004960968
C           -5.20134625383022        1.37061943813549        0.41301151757704
C           -6.01851992170119        2.19993322252565        1.15297382422235
C           -7.07912956161994        1.66572442826008        1.86244162814450
C           -7.31158765811222        0.30371141047748        1.80632639499875
C           -6.50505967072238       -0.55421320543374        1.07001739236419
C           -6.83373917777642       -2.03518378936113        1.02778345422435
C           -6.79059497185353       -2.59525031573453        2.46206857563305
C           -8.24331871549603       -2.20644188737978        0.43097579140584
C           -5.84490031575525       -2.81010803946779        0.17640475742909
C           -5.99187461848463       -4.18407423701255        0.03738348409864
C           -5.10909727107149       -4.94655095332292       -0.70530891068920
C           -4.03550198040601       -4.32951935184480       -1.32212846519963
C           -3.86661165534426       -2.96553659901171       -1.20268769227710
C           -4.77063310748105       -2.19085443269020       -0.47028106777171
C           -3.63044714955482       -0.00404514093009       -2.46345240496658
C           -2.59208479986193        0.60265521302600       -3.14093811769196
C           -1.45642330184924        0.99460943783729       -2.45699380309338
S           -0.16672661995179        1.90010258306877       -3.27405686862259
O           -0.10095438635885        1.54525766357910       -4.67427487416266
O           -0.33400224525307        3.30795085307537       -2.98174928326967
C            1.25464608229876        1.27463066651979       -2.41443813190757
C            2.44552656400875        1.08304402443825       -3.08909911703607
C            3.54826298171273        0.59217962506349       -2.41932865711476
C            3.42353714727749        0.26006000754984       -1.07072363212723
N            4.53296783590558       -0.27719050840182       -0.36588398691457
C            4.85605991145140       -1.61745599438067       -0.52989816929358
C            4.06910782055210       -2.42150528036966       -1.35923978675011
C            4.36871386845522       -3.75507732724481       -1.54634985601460
C            5.45864597537327       -4.31231780161543       -0.90202964196300
C            6.22621051026158       -3.52251140924813       -0.06572765923229
C            5.94709861793070       -2.17810881536375        0.14218523509006
C            6.81497471169751       -1.37386563426423        1.09292227158760
C            6.73116899424435       -2.01086734117730        2.49275426428111
C            8.26761061362456       -1.40104575110921        0.58151150716630
C            6.36315357037354        0.07174637420826        1.18537211962775
C            7.05321283857879        0.95485000995434        2.00546635299776
C            6.70335860498186        2.28885770452213        2.11023420163453
C            5.64377081308858        2.77113658505380        1.36306798722354
C            4.94211332206051        1.91486598356744        0.54026985820292
C            5.27531865575475        0.56030003968482        0.45478382072490
C            2.21615643143052        0.42435228189801       -0.40804087543536
C            1.10238851498719        0.96091385849686       -1.06327443842861
H            0.48194926113175        0.54245848013457        2.22298721093336
H            0.23255597214518        2.18186405482869        2.82569802617573
H            1.63024166896657        1.83873759689275        1.82237518093635
H           -1.32404216689180        1.84478399345800        1.07287407971531
H           -2.16121889009357        3.86338383702721        0.44470900609230
H           -1.88278406336957        6.16813038064271       -0.35369881219068
H            0.35965177197592        7.00882092231968       -0.95212473508512
H            2.31955173026349        5.52428379233261       -0.73909894446481
H            2.04384396636583        3.22828565333576        0.06303080479085
H           -2.27453181844022       -0.06979007665181        0.63800951084405
H           -4.38753496216148        1.79644285689605       -0.15382744779764
H           -5.82815494816053        3.26314940964620        1.16845294462120
H           -7.72567053529337        2.30315073175616        2.44656712772025
H           -8.15159462362869       -0.09718120503150        2.35279154291670
H           -7.05310954794920       -3.64928875203825        2.47482620973500
H           -5.78832319334773       -2.48558783649836        2.87255241476942
H           -7.48552517429622       -2.06459549803920        3.10674979045174
H           -8.51893559049216       -3.25624300764080        0.38330293480076
H           -8.27184955142322       -1.79779103896926       -0.57785040430073
H           -8.98444921694464       -1.68682447561095        1.03177124691559
H           -6.81843684885295       -4.68062118672367        0.52234056569985
H           -5.25504929650343       -6.01259238152092       -0.79418233481805
H           -3.32588117277764       -4.90732080050015       -1.89594470535910
H           -3.02278021873427       -2.49127424810064       -1.68002634467103
H           -4.52955691013243       -0.30593342217346       -2.97677909819298
H           -2.64143329576183        0.80176160222196       -4.20010034088828
H            2.48010920399134        1.33277321460185       -4.13802817004287
H            4.49003840425178        0.44927168902807       -2.92505451691332
H            3.21346293587076       -1.99520224019833       -1.86015925006440
H            3.74788476327123       -4.35570876396123       -2.19485915692680
H            5.70657354306881       -5.35367940409915       -1.04251925386380
H            7.06663380599914       -3.97407686931087        0.43907847609894
H            7.05867241737194       -3.04637165960922        2.46717127128145
H            5.70378035710880       -1.98415986550293        2.85165176583902
H            7.35634179133462       -1.47361150853403        3.20042349361566
H            8.63511784217284       -2.42087097124678        0.51102961948889
H            8.32175048282320       -0.94741667629158       -0.40678842774791
H            8.92405657052380       -0.84892809814504        1.24819039669797
H            7.89231124404554        0.59695360454113        2.58239159186369
H            7.26009144948708        2.94604693635866        2.76112124842775
H            5.36284167761545        3.81288347179365        1.41548680723421
H            4.13017420429827        2.29945581148599       -0.05753865662898
H            2.14371804407036        0.10360857728495        0.61688615226648

          :  Hamiltonian                  GFN2-xTB          :
         :: gradient norm              0.000111052581 Eh/a0 ::
         :: HOMO-LUMO gap              2.189655683761 eV    ::
         :: SCC energy              -151.810319039680 Eh    ::
         :: -> dispersion             -0.149846267672 Eh    ::
         :: -> Gsolv                  -0.062327919687 Eh    ::
         :: repulsion energy           2.536994619709 Eh    ::

    * Orbital Energies and Occupations

         #    Occupation            Energy/Eh            Energy/eV
      -------------------------------------------------------------
         1        2.0000           -0.7802783             -21.2325
       ...           ...                  ...                  ...
       126        2.0000           -0.4085434             -11.1170
       127        2.0000           -0.4074953             -11.0885
       128        2.0000           -0.4058219             -11.0430
       129        2.0000           -0.4049752             -11.0199
       130        2.0000           -0.4047915             -11.0149
       131        2.0000           -0.4038213             -10.9885
       132        2.0000           -0.3992254             -10.8635
       133        2.0000           -0.3990592             -10.8590
       134        2.0000           -0.3937446             -10.7143
       135        2.0000           -0.3936174             -10.7109
       136        2.0000           -0.3818741             -10.3913
       137        2.0000           -0.3494868              -9.5100
       138        2.0000           -0.3491210              -9.5001 (HOMO)
       139                         -0.2686527              -7.3104 (LUMO)
       140                         -0.2616436              -7.1197
       141                         -0.2559712              -6.9653
       142                         -0.2515485              -6.8450
       143                         -0.2257199              -6.1422
       144                         -0.2255626              -6.1379
       145                         -0.2246247              -6.1123
       146                         -0.2241348              -6.0990
       147                         -0.2206158              -6.0033
       148                         -0.2204344              -5.9983
       149                         -0.2194283              -5.9709
       ...                                ...                  ...
       272                          1.1783628              32.0649
      -------------------------------------------------------------
                  HL-Gap            0.0804683 Eh            2.1897 eV

     #   Z          covCN         q      C6AA      α(0)
     1   6 C        3.753    -0.119    22.836     6.814
     2   6 C        3.801     0.035    19.981     6.364
     3   6 C        2.973    -0.001    28.059     8.689
     4   6 C        2.926    -0.035    28.866     8.811
     5   6 C        2.919    -0.026    28.663     8.779
     6   6 C        2.921    -0.028    28.689     8.784
     7   6 C        2.920    -0.028    28.697     8.785
     8   6 C        2.925    -0.033    28.831     8.805
     9   7 N        2.744    -0.102    23.240     7.160
    10   6 C        2.977     0.063    26.573     8.456
    11   6 C        2.929    -0.058    29.431     8.897
    12   6 C        2.926     0.079    26.246     8.402
    13   7 N        2.755    -0.068    22.551     7.053
    14   6 C        2.928     0.056    26.735     8.479
    15   6 C        2.924    -0.061    29.512     8.909
    16   6 C        2.919    -0.034    28.850     8.808
    17   6 C        2.917    -0.045    29.129     8.850
    18   6 C        2.928    -0.037    28.911     8.818
    19   6 C        2.979    -0.012    28.309     8.728
    20   6 C        3.908     0.021    20.165     6.383
    21   6 C        3.761    -0.105    22.555     6.770
    22   6 C        3.761    -0.104    22.542     6.768
    23   6 C        2.979    -0.012    28.314     8.728
    24   6 C        2.928    -0.037    28.915     8.818
    25   6 C        2.917    -0.045    29.124     8.850
    26   6 C        2.919    -0.034    28.846     8.808
    27   6 C        2.924    -0.060    29.500     8.907
    28   6 C        2.927     0.056    26.734     8.479
    29   6 C        2.921    -0.041    29.029     8.835
    30   6 C        2.953    -0.021    28.537     8.762
    31   6 C        2.974    -0.102    30.559     9.068
    32  16 S        3.855     0.966   107.642    17.462
    33   8 O        0.860    -0.581    25.644     6.789
    34   8 O        0.860    -0.586    25.772     6.806
    35   6 C        2.975    -0.100    30.516     9.061
    36   6 C        2.958    -0.022    28.542     8.763
    37   6 C        2.921    -0.040    28.992     8.830
    38   6 C        2.926     0.078    26.264     8.404
    39   7 N        2.755    -0.068    22.552     7.053
    40   6 C        2.927     0.056    26.736     8.480
    41   6 C        2.924    -0.061    29.506     8.908
    42   6 C        2.919    -0.034    28.848     8.808
    43   6 C        2.917    -0.045    29.127     8.850
    44   6 C        2.928    -0.037    28.915     8.819
    45   6 C        2.979    -0.012    28.314     8.728
    46   6 C        3.908     0.021    20.164     6.383
    47   6 C        3.761    -0.105    22.553     6.770
    48   6 C        3.761    -0.104    22.542     6.768
    49   6 C        2.979    -0.012    28.313     8.728
    50   6 C        2.928    -0.036    28.907     8.817
    51   6 C        2.917    -0.045    29.127     8.850
    52   6 C        2.919    -0.034    28.848     8.808
    53   6 C        2.925    -0.060    29.498     8.907
    54   6 C        2.928     0.056    26.737     8.480
    55   6 C        2.929    -0.057    29.412     8.894
    56   6 C        2.964     0.069    26.458     8.437
    57   1 H        0.925     0.060     2.203     2.321
    58   1 H        0.925     0.061     2.188     2.313
    59   1 H        0.925     0.059     2.212     2.326
    60   1 H        0.924     0.060     2.195     2.317
    61   1 H        0.925     0.031     2.570     2.507
    62   1 H        0.926     0.035     2.511     2.478
    63   1 H        0.926     0.035     2.520     2.483
    64   1 H        0.926     0.034     2.534     2.489
    65   1 H        0.926     0.032     2.556     2.500
    66   1 H        0.926     0.074     2.045     2.236
    67   1 H        0.926     0.020     2.741     2.589
    68   1 H        0.926     0.027     2.623     2.532
    69   1 H        0.926     0.028     2.615     2.529
    70   1 H        0.926     0.036     2.508     2.477
    71   1 H        0.925     0.043     2.410     2.428
    72   1 H        0.925     0.032     2.554     2.499
    73   1 H        0.925     0.043     2.409     2.427
    74   1 H        0.925     0.043     2.412     2.429
    75   1 H        0.925     0.030     2.583     2.513
    76   1 H        0.925     0.043     2.413     2.429
    77   1 H        0.926     0.035     2.512     2.479
    78   1 H        0.926     0.028     2.617     2.530
    79   1 H        0.926     0.028     2.611     2.527
    80   1 H        0.926     0.023     2.690     2.565
    81   1 H        0.926     0.067     2.118     2.276
    82   1 H        0.926     0.059     2.214     2.327
    83   1 H        0.926     0.058     2.216     2.328
    84   1 H        0.926     0.067     2.116     2.275
    85   1 H        0.926     0.022     2.704     2.571
    86   1 H        0.926     0.028     2.619     2.531
    87   1 H        0.926     0.027     2.622     2.532
    88   1 H        0.926     0.035     2.515     2.480
    89   1 H        0.925     0.043     2.414     2.430
    90   1 H        0.925     0.033     2.551     2.498
    91   1 H        0.925     0.043     2.410     2.427
    92   1 H        0.925     0.043     2.415     2.430
    93   1 H        0.925     0.030     2.583     2.513
    94   1 H        0.925     0.043     2.416     2.430
    95   1 H        0.926     0.035     2.516     2.480
    96   1 H        0.926     0.028     2.620     2.531
    97   1 H        0.926     0.029     2.607     2.525
    98   1 H        0.926     0.020     2.740     2.589
    99   1 H        0.926     0.084     1.939     2.178

molecular dipole:
                 x           y           z       tot (Debye)
 q only:        0.208      -1.647       3.020
   full:        0.163      -1.352       2.470       7.170

 projected vibrational frequencies (cm⁻¹)
eigval :       -0.00    -0.00     0.00     0.00     0.00     0.00
eigval :       -7.47     2.40    11.65    13.57    15.58    20.85
eigval :       25.90    27.10    40.16    46.24    46.38    54.02
eigval :       86.61    90.62    92.51    96.08    99.06    99.49
eigval :      102.91   120.45   122.43   129.26   136.66   139.04
eigval :      151.41   167.39   182.45   186.73   190.03   198.60
eigval :      216.19   218.18   220.33   228.65   232.12   236.23
eigval :      238.72   245.72   247.95   274.49   302.16   304.52
eigval :      305.23   313.67   323.78   329.72   330.25   331.16
eigval :      344.65   345.57   356.86   362.75   371.18   376.09
eigval :      378.11   386.33   393.93   394.66   411.88   414.13
eigval :      425.04   439.19   448.30   450.03   450.58   459.00
eigval :      465.42   487.92   494.02   504.96   514.59   515.88
eigval :      516.79   526.97   541.57   547.06   547.41   550.04
eigval :      556.11   558.09   576.29   585.91   587.18   589.28
eigval :      593.12   613.16   635.98   642.50   648.81   659.96
eigval :      671.02   676.97   682.08   682.87   685.70   693.20
eigval :      693.83   697.41   701.96   707.07   750.46   756.35
eigval :      775.16   776.35   776.82   777.97   782.29   795.82
eigval :      819.97   820.35   829.58   830.13   864.14   864.96
eigval :      866.69   868.13   870.56   877.67   880.62   882.73
eigval :      894.84   911.42   912.13   912.55   913.01   914.05
eigval :      915.23   916.09   916.60   920.46   920.61   921.00
eigval :      922.49   923.13   926.44   936.02   937.77   939.84
eigval :      956.38   957.14   977.64  1000.77  1011.78  1012.76
eigval :     1013.74  1026.00  1039.99  1064.42  1075.81  1076.15
eigval :     1081.62  1084.41  1087.83  1089.94  1099.28  1111.47
eigval :     1112.43  1117.35  1117.80  1119.12  1136.70  1139.18
eigval :     1139.57  1148.11  1148.25  1158.44  1158.67  1159.49
eigval :     1166.95  1181.01  1182.02  1184.80  1185.73  1186.02
eigval :     1187.59  1192.04  1192.73  1200.86  1209.86  1214.60
eigval :     1220.72  1234.47  1237.78  1247.30  1248.71  1254.23
eigval :     1259.97  1266.04  1268.02  1275.39  1292.56  1292.95
eigval :     1303.42  1306.83  1310.07  1316.37  1322.91  1323.04
eigval :     1323.29  1331.70  1332.36  1333.04  1335.71  1336.26
eigval :     1340.87  1397.85  1399.27  1399.49  1399.79  1417.66
eigval :     1418.20  1423.35  1433.39  1434.90  1439.16  1439.51
eigval :     1440.85  1442.65  1454.10  1476.47  1476.85  1476.96
eigval :     1485.20  1485.60  1486.44  1486.67  1487.55  1493.08
eigval :     1493.78  1496.47  1496.69  1496.72  1500.81  1502.72
eigval :     1543.49  1551.21  1566.28  1573.99  1574.23  1579.66
eigval :     1589.57  1589.77  1590.25  1590.37  1595.01  1599.76
eigval :     1599.94  1605.07  2962.87  3021.59  3021.83  3024.54
eigval :     3025.25  3036.30  3040.12  3040.19  3040.74  3042.23
eigval :     3042.30  3048.84  3048.87  3053.00  3053.16  3062.99
eigval :     3068.09  3069.68  3073.02  3073.21  3073.58  3074.01
eigval :     3076.06  3080.23  3080.31  3080.63  3080.70  3086.97
eigval :     3090.35  3090.52  3090.92  3091.02  3096.30  3096.53
eigval :     3096.91  3097.81  3098.00  3098.21  3098.97  3099.22
eigval :     3109.87  3110.13  3139.43

   temp. (K)  partition function   enthalpy   heat capacity  entropy
                                   cal/mol     cal/K/mol   cal/K/mol   J/K/mol
 298.15  VIB  0.714E+24            28989.269    179.938    182.189
         ROT  0.124E+09              888.752      2.981     40.018
         INT  0.887E+32            29878.021    182.919    222.207
         TR   0.199E+29             1481.254      4.968     45.703
         TOT                       31359.2751   187.8873   267.9104  1120.9372

       T/K    H(0)-H(T)+PV         H(T)/Eh          T*S/Eh         G(T)/Eh
   ------------------------------------------------------------------------
    298.15    0.499742E-01    0.832795E+00    0.127293E+00    0.705502E+00
   ------------------------------------------------------------------------

         :::::::::::::::::::::::::::::::::::::::::::::::::::::
         ::                  THERMODYNAMIC                  ::
         :::::::::::::::::::::::::::::::::::::::::::::::::::::
         :: total free energy        -148.567822153347 Eh   ::
         ::.................................................::
         :: total energy             -149.273324425314 Eh   ::
         :: zero point energy           0.782820967719 Eh   ::
         :: G(RRHO) w/o ZPVE           -0.077318695752 Eh   ::
         :: G(RRHO) contrib.            0.705502271968 Eh   ::
         :::::::::::::::::::::::::::::::::::::::::::::::::::::

           -------------------------------------------------
          | TOTAL ENERGY             -149.273324425314 Eh   |
          | TOTAL ENTHALPY           -148.440529271694 Eh   |
          | TOTAL FREE ENERGY        -148.567822153347 Eh   |
          | GRADIENT NORM               0.000111025837 Eh/α |
          | HOMO-LUMO GAP               2.189654938317 eV   |
           -------------------------------------------------

 * finished run on 2025/09/13 at 15:28:01.254
