   * xtb version 6.7.1 (edcfbbe) compiled by 'albert@albert-system' on 2024-07-22

   ID    Z sym.   atoms
    1    6 C      1-8, 10-12, 14-31, 35-38, 40-56
    2    7 N      9, 13, 39
    3   16 S      32
    4    8 O      33, 34
    5    1 H      57-99

          program call               : xtb data2507/toluene/NPE-AcDPS/NPE-AcDPS_toluene_S0_finalOpt.xtbopt.xyz --gfn 2 --uhf 2 --gbsa toluene --ohess vtight --parallel 40 --molden --ceasefiles --namespace data2507/toluene/NPE-AcDPS/NPE-AcDPS_toluene_T1_preOpt
      * Solvation model:               GBSA
        Solvent                        toluene
        Solvent mass                       9.2140E+01 g/mol
          :  Hamiltonian                  GFN2-xTB          :
 * total energy  :  -149.1703153 Eh     change       -0.6393748E-09 Eh
 * total energy  :  -149.1730734 Eh     change       -0.2758064E-02 Eh
 * total energy  :  -149.1739132 Eh     change       -0.8397489E-03 Eh
 * total energy  :  -149.1740699 Eh     change       -0.1567315E-03 Eh
 * total energy  :  -149.1741734 Eh     change       -0.1034897E-03 Eh
 * total energy  :  -149.1742063 Eh     change       -0.3288620E-04 Eh
 * total energy  :  -149.1742344 Eh     change       -0.2812230E-04 Eh
 * total energy  :  -149.1742502 Eh     change       -0.1585133E-04 Eh
 * total energy  :  -149.1742624 Eh     change       -0.1216889E-04 Eh
 * total energy  :  -149.1742743 Eh     change       -0.1191739E-04 Eh
 * total energy  :  -149.1744182 Eh     change       -0.2929549E-06 Eh
 * total energy  :  -149.1744185 Eh     change       -0.2461929E-06 Eh
 * total energy  :  -149.1744187 Eh     change       -0.2605861E-06 Eh
 * total energy  :  -149.1744192 Eh     change       -0.4410980E-06 Eh
 * total energy  :  -149.1744197 Eh     change       -0.5218070E-06 Eh
 * total energy  :  -149.1744202 Eh     change       -0.4644161E-06 Eh
 * total energy  :  -149.1744206 Eh     change       -0.4269802E-06 Eh
 * total energy  :  -149.1744210 Eh     change       -0.4062363E-06 Eh
 * total energy  :  -149.1744210 Eh     change       -0.3138325E-08 Eh
   *** GEOMETRY OPTIMIZATION CONVERGED AFTER 94 ITERATIONS ***

 final structure:
================
99
 xtb: 6.7.1 (edcfbbe)
C            1.22483776683043        2.34193084694080       -2.06453081000524
C            0.14380486686071        1.72182349726860       -1.16927468523038
C           -1.19378898770357        2.22225017878720       -1.66830589743631
C           -1.87994581058683        3.20987954531963       -0.97465680144114
C           -3.07940920882884        3.70420570922092       -1.45695445588216
C           -3.60378811819863        3.21412001579704       -2.64004034993681
C           -2.91988483202340        2.23404994943266       -3.34150877101449
C           -1.71825358286267        1.74311518332609       -2.86374054615166
N            0.19740148047037        0.26758379972362       -1.24889135838200
C           -0.95515454509913       -0.49950720356919       -1.07994944918422
C           -1.93738439113543       -0.15477437812877       -0.17665692514718
C           -3.08675533283842       -0.97001800730823        0.00021250464143
N           -4.07708638194361       -0.60577772315400        0.88923303781474
C           -5.24546459848654       -1.35076815313250        1.10273640799420
C           -5.19557639953987       -2.71657529460452        1.38906974567118
C           -6.35892635508685       -3.40900733932277        1.65154364748324
C           -7.57662346920284       -2.74372327369545        1.64696845019615
C           -7.62216876952590       -1.37690745422089        1.40866588364911
C           -6.47003564347487       -0.65951542668717        1.14250705397335
C           -6.42224997943859        0.83449420903874        0.88164803532631
C           -6.15865162296432        1.07735016867643       -0.61945785706876
C           -7.73007545464357        1.53575962396416        1.25125949370667
C           -5.24168947601628        1.34311670696901        1.68723328822143
C           -5.25288874557077        2.49081016075399        2.45857050536541
C           -4.13918065159828        2.87079707990578        3.19537811591584
C           -3.00502193903985        2.07217294675462        3.20084774619054
C           -2.96683715537369        0.92471020744636        2.43648587793598
C           -4.06294970311683        0.57635818513131        1.64411872764533
C           -3.22678609856033       -2.11834773782041       -0.81092859768038
C           -2.24375928900459       -2.47087174171806       -1.70112934096300
C           -1.10021131120818       -1.67591416014834       -1.84141607746841
S            0.15797483273112       -1.97539208029730       -3.02478011170365
O            0.18272817301156       -3.37695094019509       -3.41309567117543
O            0.02355547347542       -1.03191090764867       -4.13545201651239
C            1.54955821991706       -1.56915314636871       -2.04529669933129
C            2.72182008168223       -2.34046683070684       -2.01327029234809
C            3.78300664580687       -1.93383135776503       -1.23791236684922
C            3.67620317541297       -0.77150147041626       -0.47157085985022
N            4.77951524992148       -0.31774486963832        0.30654069973882
C            4.98362392160914       -0.85383555439720        1.55986913883401
C            4.08198785860133       -1.80874086878322        2.05385144951116
C            4.26356947542096       -2.37452913651250        3.29522445185357
C            5.34979111756775       -1.99863255614409        4.07248112525798
C            6.23376593536274       -1.04769156119542        3.59532706161075
C            6.07473568369393       -0.45545664348481        2.34979508232065
C            7.06335835538742        0.59195439715646        1.88339197530348
C            7.04954210988743        1.76369593520954        2.88522437749200
C            8.46766159106132       -0.04167051028653        1.82795001878979
C            6.71866733929491        1.12177989712919        0.50767914997616
C            7.51635574613813        2.09780392507796       -0.07478948830957
C            7.25323744447118        2.60289165771859       -1.33513741688185
C            6.16839911834126        2.12034355593961       -2.05286982414479
C            5.36070000219878        1.15138338260957       -1.50251090001738
C            5.61518364721430        0.64572822123385       -0.21874363686613
C            2.47739025891730       -0.02443287906968       -0.45855758708532
C            1.41816823974205       -0.41171127654092       -1.25757490648152
H            1.16018533424521        1.90781335220091       -3.05999143603942
H            2.22339450649764        2.17209863283812       -1.67491307347595
H            1.05500006900966        3.41353614250995       -2.13786787675602
H            0.29248842036912        2.06154242631825       -0.13163106572834
H           -1.47462750393739        3.59579465337515       -0.04970399819356
H           -3.60417121105505        4.47002578008300       -0.90474213288976
H           -4.54087197827867        3.59460756148371       -3.01925476710398
H           -3.32125064454572        1.84895149634346       -4.26783399865541
H           -1.19074567342774        0.97783431340305       -3.41650050204896
H           -1.85194896875389        0.76677955934924        0.36937930560087
H           -4.23860435521313       -3.21436025707469        1.43448698891772
H           -6.31620190034430       -4.46520710293301        1.87178392089337
H           -8.48956665995415       -3.28369489928856        1.84672479138455
H           -8.57807223400138       -0.87992752467160        1.43271619725786
H           -5.23072050176568        0.61681490106379       -0.94719258654043
H           -6.97400037267782        0.66311774527447       -1.20875366582431
H           -6.09280213126138        2.14512486552659       -0.81337445427760
H           -8.54584032752518        1.14385307756422        0.64947052993713
H           -7.65503177753990        2.59944261984650        1.04128435007053
H           -7.96423948033138        1.39546680525232        2.30405222725895
H           -6.13451289194932        3.10911970859043        2.49868312834076
H           -4.16920335602270        3.77441827201251        3.78495355370724
H           -2.15516216400996        2.33800493238159        3.81173143679289
H           -2.11049624117263        0.26888867446136        2.47728288759529
H           -4.13161985038953       -2.70178814021295       -0.76994110276885
H           -2.34070084297807       -3.33460427592414       -2.33985831219872
H            2.76055210610744       -3.22829608955656       -2.62371267761502
H            4.70366541759082       -2.49777540823145       -1.22389954164072
H            3.23876167561768       -2.09656812435536        1.44589141206740
H            3.55908873918505       -3.10805106234330        3.65740612077837
H            5.50392033321230       -2.44013665549433        5.04519691114227
H            7.06855054973803       -0.76265386949004        4.21636783286736
H            7.30876536649260        1.42086582439194        3.88236907014691
H            6.05773223599179        2.21037352757892        2.92087084874297
H            7.76142509624680        2.52943032637181        2.59223095727710
H            9.20701405275899        0.68757536152757        1.51040754987833
H            8.75839781439381       -0.42069175022070        2.80314949889454
H            8.47409194403295       -0.86882029510256        1.12045895009751
H            8.37006332164920        2.47751009139353        0.46441471699752
H            7.89210842293645        3.36331136636892       -1.75740290454829
H            5.95353294888100        2.49770979924354       -3.04120693619398
H            4.52282839115171        0.76654525457328       -2.06242801380868
H            2.40600266727749        0.83429999197114        0.18956708126141

          :  Hamiltonian                  GFN2-xTB          :
         :: gradient norm              0.000054975865 Eh/a0 ::
         :: HOMO-LUMO gap              0.225561288898 eV    ::
         :: SCC energy              -151.688788573288 Eh    ::
         :: -> dispersion             -0.151731358755 Eh    ::
         :: -> Gsolv                  -0.070952449768 Eh    ::
         :: repulsion energy           2.514367575261 Eh    ::

    * Orbital Energies and Occupations

         #    Occupation            Energy/Eh            Energy/eV
      -------------------------------------------------------------
         1        2.0000           -0.7515247             -20.4500
       ...           ...                  ...                  ...
       127        2.0000           -0.4098448             -11.1524
       128        2.0000           -0.4052873             -11.0284
       129        2.0000           -0.4049486             -11.0192
       130        2.0000           -0.4036419             -10.9837
       131        2.0000           -0.4020731             -10.9410
       132        2.0000           -0.4014187             -10.9232
       133        2.0000           -0.3995355             -10.8719
       134        2.0000           -0.3973536             -10.8125
       135        2.0000           -0.3912021             -10.6452
       136        1.9851           -0.3637157              -9.8972
       137        1.5734           -0.3600148              -9.7965
       138        1.4415           -0.3595104              -9.7828
       139        0.9852           -0.2482804              -6.7561 (HOMO)
       140        0.0107           -0.2399912              -6.5305 (LUMO)
       141        0.0041           -0.2390776              -6.5056
       142        0.0000           -0.2310636              -6.2876
       143        0.0000           -0.2307492              -6.2790
       144        0.0000           -0.2299365              -6.2569
       145                         -0.2283538              -6.2138
       146                         -0.2263255              -6.1586
       147                         -0.2254043              -6.1336
       148                         -0.2230125              -6.0685
       149                         -0.2214609              -6.0263
       150                         -0.2178526              -5.9281
       ...                                ...                  ...
       272                          1.1577557              31.5041
      -------------------------------------------------------------
                  HL-Gap            0.0082892 Eh            0.2256 eV

     #   Z          covCN         q      C6AA      α(0)
     1   6 C        3.759    -0.110    22.653     6.785
     2   6 C        3.796     0.046    19.815     6.338
     3   6 C        2.979     0.006    27.872     8.660
     4   6 C        2.924    -0.039    28.963     8.826
     5   6 C        2.919    -0.030    28.755     8.793
     6   6 C        2.920    -0.031    28.785     8.798
     7   6 C        2.920    -0.030    28.737     8.791
     8   6 C        2.923    -0.034    28.849     8.808
     9   7 N        2.755    -0.101    23.215     7.156
    10   6 C        2.988     0.065    26.540     8.451
    11   6 C        2.920    -0.085    30.127     9.001
    12   6 C        2.908     0.043    27.028     8.525
    13   7 N        2.753    -0.018    21.601     6.903
    14   6 C        2.957     0.047    26.942     8.514
    15   6 C        2.918    -0.045    29.124     8.850
    16   6 C        2.918    -0.034    28.846     8.807
    17   6 C        2.918    -0.039    28.966     8.826
    18   6 C        2.921    -0.038    28.941     8.822
    19   6 C        2.987    -0.004    28.120     8.699
    20   6 C        3.911     0.023    20.132     6.377
    21   6 C        3.761    -0.100    22.460     6.756
    22   6 C        3.759    -0.110    22.655     6.786
    23   6 C        2.987    -0.004    28.108     8.697
    24   6 C        2.921    -0.038    28.935     8.821
    25   6 C        2.918    -0.039    28.968     8.826
    26   6 C        2.918    -0.034    28.851     8.808
    27   6 C        2.918    -0.046    29.137     8.852
    28   6 C        2.956     0.047    26.955     8.516
    29   6 C        2.916    -0.051    29.271     8.872
    30   6 C        2.936    -0.042    29.045     8.839
    31   6 C        2.970    -0.109    30.756     9.097
    32  16 S        3.874     0.901   109.548    17.616
    33   8 O        0.860    -0.601    26.142     6.855
    34   8 O        0.860    -0.614    26.465     6.897
    35   6 C        2.971    -0.117    30.965     9.128
    36   6 C        2.941    -0.047    29.156     8.856
    37   6 C        2.915    -0.045    29.119     8.849
    38   6 C        2.926     0.027    27.408     8.585
    39   7 N        2.754    -0.019    21.613     6.905
    40   6 C        2.930     0.060    26.647     8.466
    41   6 C        2.923    -0.049    29.206     8.862
    42   6 C        2.918    -0.029    28.716     8.787
    43   6 C        2.917    -0.033    28.833     8.805
    44   6 C        2.925    -0.034    28.836     8.806
    45   6 C        2.978    -0.003    28.087     8.693
    46   6 C        3.909     0.024    20.118     6.375
    47   6 C        3.761    -0.108    22.607     6.778
    48   6 C        3.761    -0.107    22.595     6.776
    49   6 C        2.978    -0.003    28.087     8.693
    50   6 C        2.925    -0.034    28.837     8.806
    51   6 C        2.917    -0.033    28.832     8.805
    52   6 C        2.918    -0.029    28.717     8.788
    53   6 C        2.923    -0.049    29.223     8.865
    54   6 C        2.930     0.060    26.652     8.467
    55   6 C        2.919    -0.075    29.874     8.963
    56   6 C        2.994     0.062    26.594     8.459
    57   1 H        0.925     0.045     2.377     2.411
    58   1 H        0.925     0.054     2.272     2.357
    59   1 H        0.925     0.055     2.256     2.349
    60   1 H        0.923     0.041     2.441     2.443
    61   1 H        0.926     0.036     2.501     2.473
    62   1 H        0.926     0.040     2.451     2.448
    63   1 H        0.926     0.037     2.489     2.467
    64   1 H        0.926     0.029     2.600     2.522
    65   1 H        0.925     0.036     2.505     2.475
    66   1 H        0.926     0.053     2.289     2.366
    67   1 H        0.926     0.040     2.455     2.450
    68   1 H        0.926     0.037     2.487     2.466
    69   1 H        0.926     0.037     2.485     2.465
    70   1 H        0.926     0.049     2.329     2.386
    71   1 H        0.925     0.032     2.564     2.504
    72   1 H        0.925     0.043     2.408     2.427
    73   1 H        0.925     0.045     2.377     2.411
    74   1 H        0.925     0.047     2.359     2.402
    75   1 H        0.925     0.048     2.346     2.395
    76   1 H        0.925     0.044     2.402     2.424
    77   1 H        0.926     0.049     2.330     2.387
    78   1 H        0.926     0.038     2.475     2.460
    79   1 H        0.926     0.038     2.471     2.458
    80   1 H        0.926     0.041     2.441     2.443
    81   1 H        0.926     0.052     2.293     2.368
    82   1 H        0.926     0.032     2.552     2.498
    83   1 H        0.926     0.029     2.597     2.520
    84   1 H        0.926     0.042     2.424     2.435
    85   1 H        0.926     0.039     2.455     2.450
    86   1 H        0.926     0.040     2.454     2.450
    87   1 H        0.926     0.042     2.422     2.434
    88   1 H        0.926     0.049     2.338     2.391
    89   1 H        0.925     0.051     2.306     2.375
    90   1 H        0.925     0.037     2.487     2.466
    91   1 H        0.925     0.051     2.306     2.375
    92   1 H        0.925     0.051     2.311     2.378
    93   1 H        0.925     0.051     2.308     2.376
    94   1 H        0.925     0.035     2.511     2.478
    95   1 H        0.926     0.049     2.336     2.390
    96   1 H        0.926     0.042     2.423     2.434
    97   1 H        0.926     0.040     2.455     2.450
    98   1 H        0.926     0.038     2.474     2.460
    99   1 H        0.926     0.044     2.393     2.419

molecular dipole:
                 x           y           z       tot (Debye)
 q only:        0.884       3.331       5.210
   full:        0.910       2.942       4.827      14.554

 projected vibrational frequencies (cm⁻¹)
eigval :       -0.00    -0.00     0.00     0.00     0.00     0.00
eigval :        8.82    11.91    12.87    18.98    24.75    31.29
eigval :       38.59    42.26    50.82    53.84    62.52    64.47
eigval :       79.75    88.53    90.82    93.35   100.77   113.09
eigval :      119.27   132.22   134.57   137.14   144.76   153.76
eigval :      165.69   180.31   182.31   187.75   188.68   197.87
eigval :      205.60   216.85   220.72   222.81   229.98   233.54
eigval :      246.10   266.77   274.21   283.78   296.81   302.15
eigval :      306.13   309.48   316.03   324.35   325.23   329.72
eigval :      334.36   343.17   345.87   354.27   357.07   374.95
eigval :      378.28   380.69   391.50   395.69   401.61   403.46
eigval :      415.74   426.26   432.51   446.56   449.59   451.29
eigval :      463.04   482.96   492.07   497.23   503.86   508.05
eigval :      516.24   521.75   524.22   539.75   542.84   549.66
eigval :      556.24   559.43   568.55   571.11   573.27   584.19
eigval :      588.84   596.78   605.17   612.29   624.93   630.71
eigval :      642.93   660.40   672.52   676.89   680.98   687.90
eigval :      693.43   700.16   706.82   711.62   740.20   763.27
eigval :      765.12   769.35   772.74   775.16   781.03   785.10
eigval :      789.91   800.53   806.79   812.23   821.41   824.56
eigval :      869.83   870.86   871.21   871.72   877.85   881.89
eigval :      883.73   890.39   899.07   904.00   905.95   908.12
eigval :      911.61   911.75   914.88   921.11   925.30   926.32
eigval :      929.76   930.80   935.63   938.19   941.24   949.74
eigval :      957.34   964.70   973.52   974.08   983.19  1008.95
eigval :     1009.36  1011.70  1028.15  1036.10  1055.10  1067.92
eigval :     1072.78  1074.13  1080.76  1084.85  1089.65  1091.38
eigval :     1098.20  1101.15  1109.32  1109.84  1130.31  1133.37
eigval :     1136.02  1143.64  1143.77  1147.20  1148.09  1151.78
eigval :     1165.89  1168.04  1175.67  1178.13  1180.89  1181.62
eigval :     1182.56  1183.51  1186.35  1199.70  1203.66  1215.81
eigval :     1220.65  1222.89  1230.74  1232.16  1238.27  1246.04
eigval :     1250.48  1255.84  1258.83  1261.35  1265.73  1272.83
eigval :     1278.32  1286.19  1291.41  1303.67  1307.57  1311.65
eigval :     1319.70  1327.55  1328.41  1330.79  1331.25  1333.50
eigval :     1334.05  1360.85  1376.10  1395.53  1396.33  1398.69
eigval :     1399.34  1400.62  1407.30  1409.22  1414.27  1414.94
eigval :     1415.10  1426.70  1430.17  1437.10  1439.84  1441.92
eigval :     1449.10  1453.23  1461.46  1473.11  1473.91  1481.36
eigval :     1481.54  1483.85  1488.72  1489.36  1490.20  1491.54
eigval :     1499.02  1502.57  1503.46  1514.98  1516.88  1536.47
eigval :     1540.09  1545.75  1548.35  1571.00  1572.87  1583.29
eigval :     1589.82  1600.30  2832.61  3027.41  3027.66  3029.40
eigval :     3033.56  3034.33  3037.44  3038.64  3039.91  3047.84
eigval :     3048.51  3049.72  3052.62  3054.97  3058.70  3059.00
eigval :     3065.35  3070.85  3076.37  3077.26  3078.68  3081.57
eigval :     3082.78  3083.10  3083.98  3086.80  3087.31  3089.25
eigval :     3090.31  3090.36  3094.28  3094.79  3096.15  3099.13
eigval :     3099.86  3101.38  3103.05  3106.10  3106.73  3112.95
eigval :     3113.33  3113.83  3148.41

   temp. (K)  partition function   enthalpy   heat capacity  entropy
                                   cal/mol     cal/K/mol   cal/K/mol   J/K/mol
 298.15  VIB  0.586E+22            28991.347    183.317    178.863
         ROT  0.115E+09              888.752      2.981     39.858
         INT  0.671E+30            29880.099    186.298    218.720
         TR   0.199E+29             1481.254      4.968     45.703
         TOT                       31361.3529   191.2665   264.4234  1106.3476

       T/K    H(0)-H(T)+PV         H(T)/Eh          T*S/Eh         G(T)/Eh
   ------------------------------------------------------------------------
    298.15    0.499775E-01    0.827791E+00    0.125636E+00    0.702155E+00
   ------------------------------------------------------------------------

         :::::::::::::::::::::::::::::::::::::::::::::::::::::
         ::                  THERMODYNAMIC                  ::
         :::::::::::::::::::::::::::::::::::::::::::::::::::::
         :: total free energy        -148.472266162174 Eh   ::
         ::.................................................::
         :: total energy             -149.174421010385 Eh   ::
         :: zero point energy           0.777813454922 Eh   ::
         :: G(RRHO) w/o ZPVE           -0.075658606711 Eh   ::
         :: G(RRHO) contrib.            0.702154848211 Eh   ::
         :::::::::::::::::::::::::::::::::::::::::::::::::::::

           -------------------------------------------------
          | TOTAL ENERGY             -149.174421010385 Eh   |
          | TOTAL ENTHALPY           -148.346630058357 Eh   |
          | TOTAL FREE ENERGY        -148.472266162174 Eh   |
          | GRADIENT NORM               0.000049498513 Eh/α |
          | HOMO-LUMO GAP               0.225559811104 eV   |
           -------------------------------------------------

 * finished run on 2025/09/13 at 15:42:03.958
