   * xtb version 6.7.1 (edcfbbe) compiled by 'albert@albert-system' on 2024-07-22

   ID    Z sym.   atoms
    1    6 C      1-8, 10-12, 14-31, 35-38, 40-56
    2    7 N      9, 13, 39
    3   16 S      32
    4    8 O      33, 34
    5    1 H      57-99

          program call               : xtb data2507/toluene/NPE-AcDPS/NPE-AcDPS_toluene_S0_crest.xyz --gfn 2 --gbsa toluene --ohess vtight --parallel 40 --molden --ceasefiles --namespace data2507/toluene/NPE-AcDPS/NPE-AcDPS_toluene_S0_finalOpt
      * Solvation model:               GBSA
        Solvent                        toluene
        Solvent mass                       9.2140E+01 g/mol
          :  Hamiltonian                  GFN2-xTB          :
 * total energy  :  -149.2784645 Eh     change       -0.7109975E-09 Eh
 * total energy  :  -149.2786688 Eh     change       -0.2042869E-03 Eh
 * total energy  :  -149.2787989 Eh     change       -0.1300843E-03 Eh
 * total energy  :  -149.2788317 Eh     change       -0.3284723E-04 Eh
 * total energy  :  -149.2788696 Eh     change       -0.3785388E-04 Eh
 * total energy  :  -149.2788872 Eh     change       -0.1758988E-04 Eh
 * total energy  :  -149.2789029 Eh     change       -0.1577655E-04 Eh
 * total energy  :  -149.2789174 Eh     change       -0.1450590E-04 Eh
 * total energy  :  -149.2789135 Eh     change        0.3957282E-05 Eh
 * total energy  :  -149.2789240 Eh     change       -0.1054031E-04 Eh
 * total energy  :  -149.2794267 Eh     change       -0.4287405E-06 Eh
 * total energy  :  -149.2794271 Eh     change       -0.3511937E-06 Eh
 * total energy  :  -149.2794273 Eh     change       -0.2778422E-06 Eh
 * total energy  :  -149.2794276 Eh     change       -0.2456885E-06 Eh
 * total energy  :  -149.2794278 Eh     change       -0.2029624E-06 Eh
 * total energy  :  -149.2794280 Eh     change       -0.2083995E-06 Eh
 * total energy  :  -149.2794282 Eh     change       -0.2191998E-06 Eh
 * total energy  :  -149.2794285 Eh     change       -0.2498716E-06 Eh
 * total energy  :  -149.2794285 Eh     change       -0.3029328E-08 Eh
   *** GEOMETRY OPTIMIZATION CONVERGED AFTER 94 ITERATIONS ***

 final structure:
================
99
 xtb: 6.7.1 (edcfbbe)
C            1.21258144408926        2.24509127184702       -1.96583378504616
C            0.13337247892545        1.63145405843342       -1.06354279823742
C           -1.19580292927146        2.13040306630071       -1.58799512442458
C           -1.87747916175535        3.14069520783565       -0.92350049066653
C           -3.05524737949104        3.65203674283630       -1.44011753538082
C           -3.56461552839668        3.15376046408615       -2.62642158613207
C           -2.88752705912033        2.14771265302520       -3.29642567050633
C           -1.70524242199590        1.64243468348452       -2.78650372970328
N            0.18549405849483        0.16883266749468       -1.12009450403212
C           -0.98421023919865       -0.58168124578179       -0.99292357285990
C           -1.97538712533766       -0.21223949785446       -0.08976782973631
C           -3.12339008671325       -0.99150255411509        0.09426717183904
N           -4.09457098711902       -0.61710437990405        0.99128221894684
C           -5.30842361249439       -1.32040254347416        1.16198775390180
C           -5.31401346653666       -2.66607240597113        1.50793753143953
C           -6.51451395058873       -3.31707322232997        1.72397027649265
C           -7.70391932260973       -2.61712588816796        1.62124627492614
C           -7.69402806371785       -1.26526743933263        1.31981938608776
C           -6.50194387512284       -0.59602282116455        1.08690844602137
C           -6.39397704666498        0.88535308249287        0.76578813820827
C           -6.03480375120491        1.05362480935810       -0.72451143686023
C           -7.70057674542957        1.63616982813632        1.02494561668683
C           -5.24677475664641        1.40261595389401        1.61727314147160
C           -5.27948104288876        2.58623260988730        2.33892624481459
C           -4.20322838243786        2.97405763089973        3.11960843055110
C           -3.08815773923262        2.16138309771519        3.22041108692896
C           -3.03811836305780        0.97281192901297        2.51502457803662
C           -4.09516357552534        0.61225162395122        1.68864072219085
C           -3.28317335245926       -2.14442448765159       -0.69799695868259
C           -2.30151627557168       -2.51771287981698       -1.58546910474036
C           -1.15858930597051       -1.75298578814161       -1.72791332346139
S            0.11775826702126       -2.13116598060109       -2.88610998720237
O            0.15010898641902       -3.54345706268580       -3.20131048800965
O            0.01534504601556       -1.23048325324975       -4.02124129052433
C            1.54313814093402       -1.66041910370528       -1.93478451898719
C            2.71649961957487       -2.38672179495531       -1.95530981592088
C            3.81098127967785       -1.94567191320102       -1.23632649973035
C            3.69676059443399       -0.78238499611010       -0.47536847054563
N            4.80562276237952       -0.31873506034682        0.28170641663551
C            5.11489077914687       -0.94109477712723        1.48287311150556
C            4.31149258498011       -1.98698625804400        1.94654079856567
C            4.59837318757543       -2.63070720648170        3.13244870751357
C            5.69079471322530       -2.23525885836185        3.88343514534017
C            6.47314339683169       -1.18581426325776        3.43741914596383
C            6.20730420608281       -0.51958599390551        2.24837458321865
C            7.09117121200022        0.64075702523065        1.82918464350571
C            7.01976680802650        1.73038386213052        2.91552956928471
C            8.53768103426250        0.13302089428973        1.67920191144769
C            6.65028517713189        1.23789841501125        0.50553961977446
C            7.35455674802852        2.30787769422331       -0.03070372280871
C            7.01809510625177        2.87538238377548       -1.24617715246853
C            5.95781422975027        2.35356761824988       -1.96530664048523
C            5.24038997723814        1.29125702773885       -1.45550679767902
C            5.56095239282596        0.73497710337818       -0.21353458341682
C            2.50562501662754       -0.07419084879476       -0.43188563490383
C            1.39870178948963       -0.49646033205602       -1.17707577278010
H            1.16769481189515        1.78377171875334       -2.95017262149501
H            2.21349320085686        2.11931000035498       -1.56648191093095
H            1.01746488176172        3.30961693443420       -2.07316941567439
H            0.27435719945286        1.98410279585039       -0.03092985599834
H           -1.48332580632686        3.53453589710598        0.00265097804469
H           -3.57386453726166        4.43932917038402       -0.91311558057340
H           -4.48373045489286        3.54913603708347       -3.03317828553618
H           -3.27686850705178        1.75640482575731       -4.22506208245446
H           -1.18062771745443        0.86263825102899       -3.32104893828173
H           -1.86017937089234        0.70230097510390        0.46392437514692
H           -4.37792810920628       -3.19242858098050        1.62025580705667
H           -6.51764814292943       -4.36472425636892        1.98550919019497
H           -8.64413596243482       -3.12040342350650        1.79048805270612
H           -8.63297740346582       -0.73906606360989        1.26777433653000
H           -5.10638892887133        0.55045436875137       -0.97920801746642
H           -6.82858622622817        0.64159639067840       -1.34409104341756
H           -5.92030353286106        2.10927639804587       -0.95797559175927
H           -8.49052524687393        1.23900243340843        0.39264315720174
H           -7.58358538369813        2.68696850145585        0.77296734659321
H           -8.00184345432296        1.55051335977807        2.06660969752749
H           -6.14858153868697        3.22212485258347        2.30163566924327
H           -4.24669472122466        3.90401267609939        3.66673699419889
H           -2.26311690155757        2.44257820375580        3.85785044977446
H           -2.19240773417426        0.31035842877235        2.62271331822111
H           -4.18716347127587       -2.72595015595715       -0.63541838948475
H           -2.40458453521291       -3.40061711880372       -2.19722692681658
H            2.75150546582183       -3.28323655643211       -2.55475118172989
H            4.74317958268947       -2.48779419988696       -1.25215718172685
H            3.45366261972283       -2.29607913378846        1.36911698868697
H            3.96527387332715       -3.43929567501211        3.46753326733332
H            5.92903989669840       -2.73329164043698        4.81126063140907
H            7.31506458669857       -0.88018734670714        4.03980986699201
H            7.34701667102987        1.34150206262240        3.87567444433653
H            5.99563410060314        2.08469054225531        3.01917528189505
H            7.65144718818053        2.57575597610389        2.65769611556753
H            9.20385238456208        0.94045438278284        1.38860946749261
H            8.90007668972417       -0.28728040778588        2.61313620223737
H            8.58176785603121       -0.64054167073711        0.91423491329150
H            8.19483412482480        2.71453006526169        0.51119359733344
H            7.58611178814328        3.70862626989351       -1.63166977626207
H            5.68735821925298        2.76783264665848       -2.92551399484728
H            4.42631113305095        0.87745154550875       -2.03085588033337
H            2.43803998199654        0.79172928513904        0.20773146911288

          :  Hamiltonian                  GFN2-xTB          :
         :: gradient norm              0.000046850663 Eh/a0 ::
         :: HOMO-LUMO gap              2.408125296944 eV    ::
         :: SCC energy              -151.815696100651 Eh    ::
         :: -> dispersion             -0.152461148989 Eh    ::
         :: -> Gsolv                  -0.062426304637 Eh    ::
         :: repulsion energy           2.536267641525 Eh    ::

    * Orbital Energies and Occupations

         #    Occupation            Energy/Eh            Energy/eV
      -------------------------------------------------------------
         1        2.0000           -0.7716812             -20.9985
       ...           ...                  ...                  ...
       126        2.0000           -0.4091354             -11.1331
       127        2.0000           -0.4071861             -11.0801
       128        2.0000           -0.4060194             -11.0483
       129        2.0000           -0.4051500             -11.0247
       130        2.0000           -0.4040603             -10.9950
       131        2.0000           -0.4014505             -10.9240
       132        2.0000           -0.4006516             -10.9023
       133        2.0000           -0.4004656             -10.8972
       134        2.0000           -0.3983524             -10.8397
       135        2.0000           -0.3929627             -10.6931
       136        2.0000           -0.3743031             -10.1853
       137        2.0000           -0.3615926              -9.8394
       138        2.0000           -0.3480904              -9.4720 (HOMO)
       139                         -0.2595934              -7.0639 (LUMO)
       140                         -0.2492313              -6.7819
       141                         -0.2440026              -6.6396
       142                         -0.2344078              -6.3786
       143                         -0.2308876              -6.2828
       144                         -0.2267611              -6.1705
       145                         -0.2253717              -6.1327
       146                         -0.2248638              -6.1189
       147                         -0.2240673              -6.0972
       148                         -0.2222899              -6.0488
       149                         -0.2196699              -5.9775
       ...                                ...                  ...
       272                          1.1730671              31.9208
      -------------------------------------------------------------
                  HL-Gap            0.0884970 Eh            2.4081 eV

     #   Z          covCN         q      C6AA      α(0)
     1   6 C        3.761    -0.113    22.703     6.792
     2   6 C        3.797     0.041    19.888     6.350
     3   6 C        2.980     0.006    27.878     8.661
     4   6 C        2.924    -0.038    28.948     8.823
     5   6 C        2.919    -0.029    28.731     8.790
     6   6 C        2.920    -0.030    28.761     8.794
     7   6 C        2.920    -0.029    28.724     8.789
     8   6 C        2.923    -0.035    28.871     8.811
     9   7 N        2.750    -0.093    23.048     7.130
    10   6 C        2.989     0.064    26.556     8.453
    11   6 C        2.928    -0.083    30.065     8.992
    12   6 C        2.909     0.075    26.332     8.414
    13   7 N        2.754    -0.061    22.419     7.032
    14   6 C        2.951     0.053    26.808     8.492
    15   6 C        2.920    -0.047    29.167     8.856
    16   6 C        2.919    -0.034    28.837     8.806
    17   6 C        2.919    -0.037    28.915     8.818
    18   6 C        2.923    -0.038    28.947     8.823
    19   6 C        2.987    -0.005    28.137     8.701
    20   6 C        3.911     0.023    20.134     6.378
    21   6 C        3.761    -0.100    22.457     6.755
    22   6 C        3.759    -0.110    22.653     6.785
    23   6 C        2.987    -0.004    28.122     8.699
    24   6 C        2.923    -0.037    28.931     8.821
    25   6 C        2.919    -0.036    28.902     8.816
    26   6 C        2.920    -0.034    28.839     8.806
    27   6 C        2.920    -0.048    29.183     8.859
    28   6 C        2.950     0.053    26.818     8.494
    29   6 C        2.924    -0.064    29.588     8.920
    30   6 C        2.945    -0.026    28.651     8.779
    31   6 C        2.974    -0.115    30.911     9.120
    32  16 S        3.868     0.954   107.971    17.489
    33   8 O        0.860    -0.586    25.780     6.808
    34   8 O        0.860    -0.594    25.980     6.834
    35   6 C        2.976    -0.101    30.549     9.066
    36   6 C        2.947    -0.023    28.582     8.769
    37   6 C        2.921    -0.045    29.115     8.849
    38   6 C        2.926     0.076    26.303     8.411
    39   7 N        2.755    -0.070    22.590     7.059
    40   6 C        2.927     0.057    26.721     8.477
    41   6 C        2.924    -0.061    29.507     8.908
    42   6 C        2.919    -0.034    28.856     8.809
    43   6 C        2.917    -0.046    29.140     8.852
    44   6 C        2.928    -0.037    28.925     8.820
    45   6 C        2.979    -0.013    28.328     8.731
    46   6 C        3.908     0.021    20.166     6.383
    47   6 C        3.761    -0.105    22.548     6.769
    48   6 C        3.761    -0.104    22.539     6.768
    49   6 C        2.979    -0.013    28.328     8.731
    50   6 C        2.928    -0.037    28.921     8.819
    51   6 C        2.917    -0.046    29.136     8.851
    52   6 C        2.919    -0.035    28.860     8.810
    53   6 C        2.924    -0.061    29.528     8.911
    54   6 C        2.928     0.057    26.725     8.478
    55   6 C        2.927    -0.060    29.482     8.904
    56   6 C        2.985     0.068    26.469     8.439
    57   1 H        0.925     0.047     2.361     2.403
    58   1 H        0.925     0.055     2.253     2.347
    59   1 H        0.925     0.059     2.211     2.325
    60   1 H        0.923     0.045     2.383     2.414
    61   1 H        0.926     0.038     2.479     2.462
    62   1 H        0.926     0.041     2.440     2.443
    63   1 H        0.926     0.038     2.474     2.460
    64   1 H        0.926     0.032     2.562     2.503
    65   1 H        0.925     0.035     2.513     2.479
    66   1 H        0.926     0.059     2.206     2.323
    67   1 H        0.926     0.039     2.460     2.453
    68   1 H        0.926     0.037     2.490     2.468
    69   1 H        0.926     0.037     2.485     2.465
    70   1 H        0.926     0.048     2.343     2.394
    71   1 H        0.925     0.031     2.576     2.510
    72   1 H        0.925     0.042     2.419     2.432
    73   1 H        0.925     0.045     2.389     2.417
    74   1 H        0.925     0.046     2.376     2.410
    75   1 H        0.925     0.047     2.363     2.404
    76   1 H        0.925     0.042     2.422     2.434
    77   1 H        0.926     0.049     2.335     2.389
    78   1 H        0.926     0.039     2.466     2.456
    79   1 H        0.926     0.038     2.470     2.458
    80   1 H        0.926     0.040     2.449     2.447
    81   1 H        0.926     0.056     2.243     2.342
    82   1 H        0.926     0.045     2.384     2.415
    83   1 H        0.926     0.055     2.260     2.351
    84   1 H        0.926     0.062     2.177     2.307
    85   1 H        0.926     0.022     2.706     2.572
    86   1 H        0.926     0.027     2.625     2.533
    87   1 H        0.926     0.027     2.625     2.534
    88   1 H        0.926     0.035     2.520     2.483
    89   1 H        0.925     0.043     2.414     2.430
    90   1 H        0.925     0.032     2.563     2.504
    91   1 H        0.925     0.043     2.410     2.428
    92   1 H        0.925     0.042     2.416     2.431
    93   1 H        0.925     0.043     2.415     2.430
    94   1 H        0.925     0.030     2.588     2.516
    95   1 H        0.926     0.035     2.519     2.482
    96   1 H        0.926     0.028     2.621     2.532
    97   1 H        0.926     0.028     2.614     2.528
    98   1 H        0.926     0.022     2.709     2.574
    99   1 H        0.926     0.067     2.121     2.277

molecular dipole:
                 x           y           z       tot (Debye)
 q only:       -1.436       2.621       3.323
   full:       -1.336       2.253       3.006      10.135

 projected vibrational frequencies (cm⁻¹)
eigval :       -0.00    -0.00     0.00     0.00     0.00     0.00
eigval :        5.75    12.04    13.56    18.92    29.45    32.89
eigval :       39.68    44.86    50.10    54.40    63.74    64.69
eigval :       83.15    87.83    95.12   100.59   107.30   117.17
eigval :      119.25   131.46   135.17   135.82   144.91   161.18
eigval :      165.89   181.29   184.14   185.38   193.55   194.00
eigval :      199.27   220.24   220.96   223.43   229.82   236.45
eigval :      249.58   270.95   281.62   286.47   302.82   309.13
eigval :      310.60   312.65   319.39   330.12   331.29   333.56
eigval :      344.52   348.91   356.27   360.69   374.60   376.32
eigval :      379.17   386.76   401.72   404.33   412.55   415.55
eigval :      425.75   437.24   448.79   451.49   452.57   456.83
eigval :      470.66   489.11   494.46   502.54   509.49   515.22
eigval :      524.10   532.31   544.84   547.24   555.26   559.81
eigval :      561.84   572.85   574.31   576.87   585.27   587.63
eigval :      593.65   607.41   622.56   633.67   646.39   647.21
eigval :      669.40   675.16   682.08   683.04   693.00   694.29
eigval :      697.92   700.24   710.57   727.03   750.87   766.37
eigval :      774.95   775.53   777.29   781.00   788.95   805.17
eigval :      809.84   811.62   820.00   829.04   849.51   863.84
eigval :      868.65   879.19   883.98   884.42   885.71   890.75
eigval :      906.86   908.77   910.17   912.27   913.16   914.70
eigval :      916.18   918.44   919.08   920.23   922.60   932.83
eigval :      933.76   935.36   937.71   944.02   946.53   948.98
eigval :      957.10   966.98   978.74   996.80  1010.49  1010.89
eigval :     1013.50  1022.40  1046.04  1068.94  1073.54  1075.71
eigval :     1076.22  1081.72  1085.36  1086.53  1095.98  1098.46
eigval :     1106.50  1112.33  1118.48  1120.02  1134.36  1137.38
eigval :     1139.43  1148.42  1151.71  1158.52  1166.33  1171.61
eigval :     1179.60  1180.31  1181.26  1181.94  1186.13  1187.07
eigval :     1187.92  1189.18  1192.85  1200.71  1210.53  1221.95
eigval :     1227.00  1236.22  1241.94  1248.63  1253.30  1259.77
eigval :     1264.75  1266.72  1270.97  1272.86  1278.91  1283.68
eigval :     1292.02  1293.13  1304.03  1312.41  1318.37  1322.67
eigval :     1325.15  1327.06  1329.19  1332.93  1337.26  1341.77
eigval :     1356.34  1396.98  1398.73  1407.57  1410.66  1415.80
eigval :     1417.27  1431.50  1434.25  1438.12  1439.46  1440.26
eigval :     1443.40  1443.92  1452.88  1464.97  1474.68  1476.51
eigval :     1480.33  1485.38  1485.75  1487.08  1487.42  1490.70
eigval :     1492.44  1493.97  1496.99  1501.37  1504.99  1518.85
eigval :     1544.33  1552.17  1565.30  1573.69  1575.44  1581.74
eigval :     1584.11  1587.72  1589.38  1590.13  1591.49  1597.42
eigval :     1599.96  1602.22  2858.53  3022.11  3025.93  3028.49
eigval :     3032.63  3033.63  3037.94  3038.12  3040.03  3041.38
eigval :     3042.31  3047.69  3048.66  3053.08  3055.97  3064.46
eigval :     3068.63  3072.33  3073.23  3074.28  3077.12  3077.46
eigval :     3078.22  3079.91  3080.79  3084.33  3084.50  3084.61
eigval :     3090.31  3090.86  3092.23  3093.29  3093.90  3096.21
eigval :     3096.53  3097.02  3098.24  3105.90  3108.24  3113.79
eigval :     3114.65  3123.62  3145.53

   temp. (K)  partition function   enthalpy   heat capacity  entropy
                                   cal/mol     cal/K/mol   cal/K/mol   J/K/mol
 298.15  VIB  0.344E+22            28581.327    181.061    176.650
         ROT  0.115E+09              888.752      2.981     39.857
         INT  0.394E+30            29470.080    184.042    216.507
         TR   0.199E+29             1481.254      4.968     45.703
         TOT                       30951.3337   189.0100   262.2098  1097.0858

       T/K    H(0)-H(T)+PV         H(T)/Eh          T*S/Eh         G(T)/Eh
   ------------------------------------------------------------------------
    298.15    0.493241E-01    0.833247E+00    0.124584E+00    0.708663E+00
   ------------------------------------------------------------------------

         :::::::::::::::::::::::::::::::::::::::::::::::::::::
         ::                  THERMODYNAMIC                  ::
         :::::::::::::::::::::::::::::::::::::::::::::::::::::
         :: total free energy        -148.570765675012 Eh   ::
         ::.................................................::
         :: total energy             -149.279428457382 Eh   ::
         :: zero point energy           0.783923031699 Eh   ::
         :: G(RRHO) w/o ZPVE           -0.075260249330 Eh   ::
         :: G(RRHO) contrib.            0.708662782369 Eh   ::
         :::::::::::::::::::::::::::::::::::::::::::::::::::::

           -------------------------------------------------
          | TOTAL ENERGY             -149.279428457382 Eh   |
          | TOTAL ENTHALPY           -148.446181335882 Eh   |
          | TOTAL FREE ENERGY        -148.570765675012 Eh   |
          | GRADIENT NORM               0.000046844126 Eh/α |
          | HOMO-LUMO GAP               2.408125715223 eV   |
           -------------------------------------------------

 * finished run on 2025/09/13 at 15:41:43.859
