   * xtb version 6.7.1 (edcfbbe) compiled by 'albert@albert-system' on 2024-07-22

   ID    Z sym.   atoms
    1    7 N      1, 4, 7, 10
    2    6 C      2, 3, 5, 6, 8, 9, 11-38
    3    1 H      39-56

          program call               : xtb data2507/gas/APDC-tPh/APDC-tPh_gas_T1_crest.xyz --gfn 2 --spinpol --tblite --uhf 2 --ohess vtight --parallel 40 --molden --ceasefiles --namespace data2507/gas/APDC-tPh/APDC-tPh_gas_T1_finalOpt
 * total energy  :   -93.5388709 Eh     change        0.5407372E-09 Eh
 * total energy  :   -93.5388771 Eh     change       -0.6197900E-05 Eh
 * total energy  :   -93.5388806 Eh     change       -0.3543394E-05 Eh
 * total energy  :   -93.5388812 Eh     change       -0.5972956E-06 Eh
 * total energy  :   -93.5388818 Eh     change       -0.6386522E-06 Eh
 * total energy  :   -93.5388823 Eh     change       -0.4894061E-06 Eh
 * total energy  :   -93.5388827 Eh     change       -0.3413755E-06 Eh
 * total energy  :   -93.5388828 Eh     change       -0.1266314E-06 Eh
 * total energy  :   -93.5388832 Eh     change       -0.4189765E-06 Eh
 * total energy  :   -93.5388836 Eh     change       -0.3335705E-06 Eh
 * total energy  :   -93.5388837 Eh     change       -0.1890937E-06 Eh
 * total energy  :   -93.5388839 Eh     change       -0.1327806E-06 Eh
 * total energy  :   -93.5388840 Eh     change       -0.1427731E-06 Eh
 * total energy  :   -93.5388842 Eh     change       -0.2033109E-06 Eh
 * total energy  :   -93.5388843 Eh     change       -0.1168850E-06 Eh
 * total energy  :   -93.5388844 Eh     change       -0.5374214E-07 Eh
   *** GEOMETRY OPTIMIZATION CONVERGED AFTER 16 ITERATIONS ***

 final structure:
================
56
 xtb: 6.7.1 (edcfbbe)
N            8.98256102021859        0.89812752701694       -0.79821617341647
C            7.90025779911341        0.59695577348248       -0.55496755282424
C            6.58333162827963        0.23350754231786       -0.26115452254494
N            5.55810949825990        0.85506140279176       -0.79345088699262
C            4.33210957102229        0.55849076210210       -0.55593405661004
C            4.05924438750740       -0.59316810820917        0.40780480572497
N            5.07399680175409       -1.19077397276652        0.91924865508763
C            6.32161378708260       -0.87229579819668        0.66672392565732
C            7.39046538029120       -1.55439781582272        1.25361358987972
N            8.26790558608160       -2.11752430471371        1.73785138860289
C            2.65183772334581       -0.72727681432935        0.50400311418575
C            1.80128002113543       -1.58348695711178        1.19498813292099
C            0.43135942935826       -1.40339072510657        1.03973751405880
C           -0.13796211042417       -0.41506992284274        0.24093918728057
C           -1.59774254606182       -0.27572300187013        0.19053068602921
C           -2.40407981673977       -1.38952415680703       -0.02236522990229
C           -3.78861363170015       -1.26754102619691       -0.07130507423143
C           -4.63313810152025       -2.44835395909375       -0.30918036536562
C           -4.35258583755410       -3.65812769815568        0.32142291667690
C           -5.14990397111475       -4.76618679483339        0.10394501976872
C           -6.23574204509950       -4.68534599824475       -0.75181243531732
C           -6.52149111768643       -3.48823005979625       -1.38679315019730
C           -5.72923641615541       -2.37719245004653       -1.16547687921427
C           -4.36356179398181       -0.01366897179465        0.10818681474164
C           -3.57634735306135        1.10947112191305        0.34057932480858
C           -4.19514498873821        2.42842655014814        0.54387249430996
C           -5.34722656369365        2.56147861816332        1.31523221547690
C           -5.92708006470048        3.80191864241165        1.50501798556886
C           -5.36958840221747        4.92811832937820        0.92296463523322
C           -4.22537586106789        4.80699053893372        0.15238722259906
C           -3.64056378434109        3.56834548808761       -0.03349238473767
C           -2.19324039792608        0.96855944437847        0.37793829274306
C            0.71000285582440        0.45475452597147       -0.50155649964543
C            0.33949678099056        1.45846560321660       -1.42296217556276
C            1.29975847109026        2.21945635293055       -2.06307346048287
C            2.66886321223820        2.04880758481081       -1.86001173376662
C            3.07092677006296        1.04747600725306       -0.98523105152196
C            2.08608413557488        0.26667521143078       -0.33108871060159
H            2.18832232011644       -2.35843624869783        1.83748869323518
H           -0.23425095150692       -2.05132173085865        1.59243128210369
H           -1.94517552294751       -2.35213346372768       -0.19464205317642
H           -3.51655683675833       -3.72240506835180        1.00285201355131
H           -4.92490517728497       -5.69643559858505        0.60502746297575
H           -6.85682673313388       -5.55196386388762       -0.92314604535255
H           -7.36491285587888       -3.42082157641744       -2.05845828882430
H           -5.94730322130881       -1.45017194952695       -1.67585941746789
H           -5.43802913056356        0.08828542409901        0.07119472700431
H           -5.77698546521094        1.68901543284961        1.78574059479419
H           -6.81691660480658        3.89124972844650        2.11099194061658
H           -5.82464747788604        5.89636497012294        1.06969023237499
H           -3.78792502277195        5.68160443328961       -0.30674564306402
H           -2.75630745428317        3.47985868590405       -0.64822291477326
H           -1.57481568912458        1.82473279854701        0.60450068243445
H           -0.70416891724361        1.62062907953526       -1.64464417746772
H            0.97825492234369        2.98103075685521       -2.75898117249901
H            3.38844400340266        2.66498004710333       -2.37514989488456

 projected vibrational frequencies (cm⁻¹)
eigval :       -0.00    -0.00     0.00     0.00     0.00     0.00
eigval :       15.83    19.99    26.49    42.50    46.19    47.96
eigval :       48.38    54.79    79.91    93.57    96.86   111.85
eigval :      116.80   145.84   149.41   162.95   167.19   193.15
eigval :      219.35   228.69   250.49   266.53   276.43   281.04
eigval :      314.20   324.88   346.00   361.36   370.97   371.96
eigval :      372.97   383.33   404.10   415.58   435.76   451.84
eigval :      457.33   468.09   471.09   494.36   503.03   516.10
eigval :      535.53   544.00   556.84   581.66   583.54   586.76
eigval :      590.93   600.60   604.83   613.18   620.41   634.71
eigval :      654.41   660.29   670.03   672.93   678.38   684.37
eigval :      724.71   727.85   757.63   758.76   773.33   783.67
eigval :      815.08   820.70   829.11   842.82   870.20   875.43
eigval :      876.70   884.72   893.91   900.35   904.78   907.57
eigval :      907.74   922.09   927.27   930.23   930.66   932.76
eigval :      932.83   966.87   986.00   989.96  1031.37  1058.47
eigval :     1084.18  1085.34  1094.60  1114.95  1120.64  1122.00
eigval :     1123.02  1124.23  1135.63  1181.77  1182.21  1182.58
eigval :     1184.81  1196.97  1201.04  1201.82  1228.34  1241.79
eigval :     1242.84  1248.62  1249.99  1281.93  1282.48  1315.41
eigval :     1318.36  1321.52  1323.31  1328.65  1349.26  1366.25
eigval :     1374.98  1403.07  1419.71  1420.32  1429.22  1436.94
eigval :     1438.83  1448.68  1475.60  1483.84  1484.81  1525.14
eigval :     1537.96  1540.17  1556.50  1566.67  1567.50  1581.52
eigval :     1582.95  1598.03  1598.67  1605.84  2313.53  2317.76
eigval :     3071.63  3072.60  3073.26  3073.71  3077.95  3078.78
eigval :     3080.65  3080.90  3083.69  3083.95  3085.89  3086.13
eigval :     3088.98  3093.79  3094.18  3096.53  3102.76  3105.31

   temp. (K)  partition function   enthalpy   heat capacity  entropy
                                   cal/mol     cal/K/mol   cal/K/mol   J/K/mol
 298.15  VIB  0.551E+13            17037.422    107.289    105.314
         ROT  0.537E+08              888.752      2.981     38.352
         INT  0.296E+21            17926.174    110.270    143.666
         TR   0.103E+29             1481.254      4.968     44.389
         TOT                       19407.4283   115.2378   188.0551   786.8224

       T/K    H(0)-H(T)+PV         H(T)/Eh          T*S/Eh         G(T)/Eh
   ------------------------------------------------------------------------
    298.15    0.309277E-01    0.436021E+00    0.893510E-01    0.346670E+00
   ------------------------------------------------------------------------

         :::::::::::::::::::::::::::::::::::::::::::::::::::::
         ::                  THERMODYNAMIC                  ::
         :::::::::::::::::::::::::::::::::::::::::::::::::::::
         :: total free energy         -93.192214065044 Eh   ::
         ::.................................................::
         :: total energy              -93.538884417486 Eh   ::
         :: zero point energy           0.405093681107 Eh   ::
         :: G(RRHO) w/o ZPVE           -0.058423328665 Eh   ::
         :: G(RRHO) contrib.            0.346670352442 Eh   ::
         :::::::::::::::::::::::::::::::::::::::::::::::::::::

           -------------------------------------------------
          | TOTAL ENERGY              -93.538884417486 Eh   |
          | TOTAL ENTHALPY            -93.102863030724 Eh   |
          | TOTAL FREE ENERGY         -93.192214065044 Eh   |
          | GRADIENT NORM               0.000055366487 Eh/α |
           -------------------------------------------------

 * finished run on 2025/09/10 at 03:30:42.258
