   * xtb version 6.7.1 (edcfbbe) compiled by 'albert@albert-system' on 2024-07-22

   ID    Z sym.   atoms
    1    7 N      1, 4, 7, 10
    2    6 C      2, 3, 5, 6, 8, 9, 11-38
    3    1 H      39-56

          program call               : xtb data2507/gas/APDC-tPh/APDC-tPh_gas_S0_crest.xyz --gfn 2 --ohess vtight --parallel 40 --molden --ceasefiles --namespace data2507/gas/APDC-tPh/APDC-tPh_gas_S0_finalOpt
          :  Hamiltonian                  GFN2-xTB          :
 * total energy  :   -93.5897056 Eh     change       -0.1719215E-08 Eh
 * total energy  :   -93.5897062 Eh     change       -0.5695546E-06 Eh
 * total energy  :   -93.5897053 Eh     change        0.9393719E-06 Eh
 * total energy  :   -93.5897068 Eh     change       -0.1496605E-05 Eh
 * total energy  :   -93.5897065 Eh     change        0.3098680E-06 Eh
 * total energy  :   -93.5897073 Eh     change       -0.8745412E-06 Eh
 * total energy  :   -93.5897078 Eh     change       -0.4321079E-06 Eh
 * total energy  :   -93.5897084 Eh     change       -0.6251106E-06 Eh
 * total energy  :   -93.5897090 Eh     change       -0.5830971E-06 Eh
 * total energy  :   -93.5897092 Eh     change       -0.2031190E-06 Eh
 * total energy  :   -93.5897083 Eh     change        0.1399275E-05 Eh
 * total energy  :   -93.5897096 Eh     change       -0.1269099E-05 Eh
 * total energy  :   -93.5897092 Eh     change        0.3991000E-06 Eh
 * total energy  :   -93.5897099 Eh     change       -0.7124859E-06 Eh
 * total energy  :   -93.5897098 Eh     change        0.4072389E-07 Eh
 * total energy  :   -93.5897098 Eh     change        0.4916173E-07 Eh
 * total energy  :   -93.5897097 Eh     change        0.9400308E-07 Eh
 * total energy  :   -93.5897099 Eh     change       -0.2174916E-06 Eh
 * total energy  :   -93.5897100 Eh     change       -0.4826599E-07 Eh
   *** GEOMETRY OPTIMIZATION CONVERGED AFTER 33 ITERATIONS ***

 final structure:
================
56
 xtb: 6.7.1 (edcfbbe)
N            8.96691373933268        0.90319353880952       -0.78143432175017
C            7.88057485285737        0.62143370567358       -0.55178294271424
C            6.54718544406360        0.25032515417913       -0.24733999950709
N            5.55435343594509        0.91418293540199       -0.85104671145896
C            4.33824493950102        0.53317522997977       -0.53353802591224
C            4.08851891446361       -0.52993873128414        0.40454948612987
N            5.06427981714031       -1.18360870878813        0.99495297304535
C            6.30243088009248       -0.79496236561094        0.67102965455042
C            7.39321750405415       -1.46522494503890        1.27949625341969
N            8.29112306352741       -1.99142642377149        1.75804093736254
C            2.65662022574249       -0.69784935672020        0.53054120008952
C            1.82355907019388       -1.53528889044945        1.23500599171154
C            0.44031456570469       -1.37326729838907        1.08284911988445
C           -0.13529257693954       -0.41462589074922        0.26425886098601
C           -1.59670053693205       -0.28248221151534        0.20633595701059
C           -2.39542934776815       -1.40040930501980       -0.00926510823715
C           -3.77984352264509       -1.28248955209498       -0.06968997218128
C           -4.61961228783479       -2.46591748419301       -0.31255895869859
C           -4.34373875635081       -3.67274652648618        0.32524619137408
C           -5.13682254498502       -4.78291248782476        0.10249616512304
C           -6.21296796276664       -4.70668052776897       -0.76572394933428
C           -6.49365637283143       -3.51231197329830       -1.40794019964469
C           -5.70594288749388       -2.39903100395320       -1.18127303292437
C           -4.35930549585957       -0.02994253353810        0.10432322093326
C           -3.57843403478309        1.09682349825658        0.34019674039761
C           -4.20363746150048        2.41384282514438        0.53738874305474
C           -5.35900310759520        2.54316530355762        1.30421277440750
C           -5.94475080619293        3.78158513730102        1.48942742083225
C           -5.38990800762306        4.90888815297859        0.90710694080905
C           -4.24249161262868        4.79122018126143        0.14089678763934
C           -3.65169705007676        3.55465069607255       -0.04036304423404
C           -2.19502484558715        0.96106397540021        0.38537339688023
C            0.70644686373087        0.44305032835493       -0.50166561995482
C            0.32831025980609        1.42286416323490       -1.44742544300811
C            1.28069818121816        2.16807436370570       -2.10480909505545
C            2.65955359537928        2.00083377574718       -1.89308166841531
C            3.06189157804840        1.03548231017105       -1.00238092235604
C            2.08148533093276        0.26894317921337       -0.32761880765221
H            2.21618234487610       -2.29289961537260        1.89537757329437
H           -0.21596133325520       -2.01395603864796        1.65451366107647
H           -1.93111573371986       -2.36159117007357       -0.17443918391616
H           -3.51532913246178       -3.73328290083124        1.01626395628255
H           -4.91585915725071       -5.71102303467624        0.60916104866677
H           -6.83060752380123       -5.57487582359768       -0.94110819094671
H           -7.32948179369028       -3.44853221237275       -2.08929313527450
H           -5.91986850704851       -1.47398755721384       -1.69700501520065
H           -5.43382263277852        0.06822031998259        0.05985718338044
H           -5.78664026856787        1.66979957668706        1.77493334962783
H           -6.83708976298881        3.86825778467239        2.09196504658709
H           -5.84955804748332        5.87543148828182        1.05020260129214
H           -3.80702535903386        5.66669362790079       -0.31834354294894
H           -2.76482198466956        3.46890766331354       -0.65183462360120
H           -1.57998060374227        1.81991776105742        0.61139059520207
H           -0.71778745359069        1.57467303420933       -1.66811045969351
H            0.96000592201204        2.90994368832300       -2.82167065831795
H            3.37505050725329        2.60590381781152       -2.42775492591011

          :  Hamiltonian                  GFN2-xTB          :
         :: gradient norm              0.000069104166 Eh/a0 ::
         :: HOMO-LUMO gap              1.393898862005 eV    ::
         :: SCC energy               -95.412921200409 Eh    ::
         :: -> dispersion             -0.076420449573 Eh    ::
         :: repulsion energy           1.823211230336 Eh    ::

    * Orbital Energies and Occupations

         #    Occupation            Energy/Eh            Energy/eV
      -------------------------------------------------------------
         1        2.0000           -0.7093746             -19.3031
       ...           ...                  ...                  ...
        75        2.0000           -0.4357020             -11.8561
        76        2.0000           -0.4352978             -11.8451
        77        2.0000           -0.4339986             -11.8097
        78        2.0000           -0.4278862             -11.6434
        79        2.0000           -0.4266985             -11.6111
        80        2.0000           -0.4246449             -11.5552
        81        2.0000           -0.4214566             -11.4684
        82        2.0000           -0.4157332             -11.3127
        83        2.0000           -0.4149428             -11.2912
        84        2.0000           -0.4114112             -11.1951
        85        2.0000           -0.4004815             -10.8977
        86        2.0000           -0.3978726             -10.8267
        87        2.0000           -0.3799449             -10.3388 (HOMO)
        88                         -0.3287201              -8.9449 (LUMO)
        89                         -0.3106348              -8.4528
        90                         -0.2886354              -7.8542
        91                         -0.2633514              -7.1662
        92                         -0.2580105              -7.0208
        93                         -0.2544980              -6.9252
        94                         -0.2337082              -6.3595
        95                         -0.2329082              -6.3378
        96                         -0.2287055              -6.2234
        97                         -0.2269589              -6.1759
        98                         -0.2188731              -5.9558
       ...                                ...                  ...
       170                          1.1681070              31.7858
      -------------------------------------------------------------
                  HL-Gap            0.0512249 Eh            1.3939 eV

     #   Z          covCN         q      C6AA      α(0)
     1   7 N        0.911    -0.193    25.192     7.259
     2   6 C        1.910     0.113    28.307     8.592
     3   6 C        2.979     0.097    25.837     8.338
     4   7 N        1.843    -0.215    26.511     7.631
     5   6 C        3.071     0.089    25.959     8.354
     6   6 C        3.071     0.089    25.953     8.353
     7   7 N        1.843    -0.215    26.529     7.633
     8   6 C        2.979     0.098    25.817     8.335
     9   6 C        1.910     0.114    28.302     8.592
    10   7 N        0.911    -0.193    25.179     7.257
    11   6 C        3.033    -0.008    28.191     8.709
    12   6 C        2.911    -0.013    28.346     8.730
    13   6 C        2.925    -0.033    28.819     8.804
    14   6 C        2.976     0.019    27.578     8.614
    15   6 C        2.974     0.009    27.817     8.651
    16   6 C        2.930    -0.040    29.001     8.832
    17   6 C        2.974     0.012    27.742     8.640
    18   6 C        2.978     0.009    27.807     8.650
    19   6 C        2.925    -0.033    28.821     8.804
    20   6 C        2.919    -0.029    28.715     8.787
    21   6 C        2.920    -0.029    28.733     8.790
    22   6 C        2.919    -0.029    28.713     8.787
    23   6 C        2.925    -0.033    28.823     8.804
    24   6 C        2.930    -0.039    28.962     8.826
    25   6 C        2.974     0.011    27.766     8.643
    26   6 C        2.978     0.009    27.809     8.650
    27   6 C        2.925    -0.033    28.819     8.804
    28   6 C        2.919    -0.028    28.708     8.786
    29   6 C        2.920    -0.029    28.732     8.790
    30   6 C        2.919    -0.029    28.720     8.788
    31   6 C        2.925    -0.033    28.823     8.804
    32   6 C        2.930    -0.040    28.990     8.830
    33   6 C        2.977     0.014    27.694     8.632
    34   6 C        2.919    -0.022    28.561     8.764
    35   6 C        2.919    -0.027    28.672     8.781
    36   6 C        2.912    -0.013    28.333     8.728
    37   6 C        3.033    -0.005    28.107     8.696
    38   6 C        3.145    -0.007    27.928     8.646
    39   1 H        0.926     0.057     2.229     2.335
    40   1 H        0.926     0.046     2.365     2.405
    41   1 H        0.926     0.036     2.507     2.476
    42   1 H        0.926     0.030     2.580     2.512
    43   1 H        0.926     0.032     2.552     2.498
    44   1 H        0.926     0.033     2.549     2.497
    45   1 H        0.926     0.032     2.554     2.499
    46   1 H        0.926     0.032     2.559     2.502
    47   1 H        0.926     0.039     2.461     2.453
    48   1 H        0.926     0.033     2.548     2.496
    49   1 H        0.926     0.033     2.548     2.496
    50   1 H        0.926     0.033     2.548     2.496
    51   1 H        0.926     0.032     2.560     2.502
    52   1 H        0.926     0.028     2.612     2.528
    53   1 H        0.926     0.035     2.510     2.478
    54   1 H        0.926     0.048     2.348     2.396
    55   1 H        0.926     0.046     2.368     2.407
    56   1 H        0.926     0.058     2.224     2.332

molecular dipole:
                 x           y           z       tot (Debye)
 q only:       -3.779       0.367      -0.377
   full:       -4.554       0.463      -0.476      11.699

 projected vibrational frequencies (cm⁻¹)
eigval :       -0.00    -0.00    -0.00     0.00     0.00     0.00
eigval :       15.75    19.41    26.28    39.80    42.56    47.27
eigval :       48.33    53.02    79.28    92.99    96.57   111.19
eigval :      115.40   146.42   151.11   158.98   166.37   193.35
eigval :      219.71   228.74   250.48   268.33   274.92   281.90
eigval :      313.58   321.16   339.70   361.95   372.06   372.31
eigval :      377.90   390.68   395.70   419.83   436.42   463.98
eigval :      469.06   485.05   497.80   506.92   529.38   531.66
eigval :      547.29   551.83   582.14   583.89   587.02   591.24
eigval :      606.03   606.71   619.58   633.80   651.08   669.66
eigval :      672.29   674.75   680.79   685.72   694.75   734.52
eigval :      736.81   751.63   758.72   759.63   779.89   804.13
eigval :      828.73   836.84   837.62   849.78   876.00   877.27
eigval :      893.65   898.32   903.27   905.71   911.44   914.89
eigval :      918.10   929.75   930.64   932.87   933.29   933.56
eigval :      954.23   986.40   990.44  1013.75  1061.81  1082.57
eigval :     1085.53  1092.02  1114.39  1120.61  1122.59  1124.10
eigval :     1132.21  1136.52  1166.97  1182.25  1182.34  1185.47
eigval :     1198.78  1201.23  1202.23  1230.04  1237.07  1243.47
eigval :     1246.00  1248.64  1281.84  1282.45  1314.87  1317.88
eigval :     1319.54  1322.60  1323.12  1329.54  1348.27  1361.82
eigval :     1381.76  1396.21  1415.69  1421.83  1427.40  1437.71
eigval :     1444.65  1450.91  1482.68  1485.36  1485.58  1527.45
eigval :     1533.54  1569.64  1573.99  1579.38  1583.21  1585.19
eigval :     1595.30  1600.50  1600.60  1608.03  2367.93  2370.15
eigval :     3071.27  3073.20  3073.60  3074.47  3080.80  3081.29
eigval :     3081.39  3081.71  3083.95  3084.85  3086.16  3086.87
eigval :     3089.78  3093.10  3094.61  3094.98  3102.09  3104.52

   temp. (K)  partition function   enthalpy   heat capacity  entropy
                                   cal/mol     cal/K/mol   cal/K/mol   J/K/mol
 298.15  VIB  0.605E+13            16851.993    105.601    104.452
         ROT  0.535E+08              888.752      2.981     38.346
         INT  0.324E+21            17740.745    108.582    142.798
         TR   0.103E+29             1481.254      4.968     44.389
         TOT                       19221.9989   113.5504   187.1872   783.1914

       T/K    H(0)-H(T)+PV         H(T)/Eh          T*S/Eh         G(T)/Eh
   ------------------------------------------------------------------------
    298.15    0.306322E-01    0.438415E+00    0.889387E-01    0.349476E+00
   ------------------------------------------------------------------------

         :::::::::::::::::::::::::::::::::::::::::::::::::::::
         ::                  THERMODYNAMIC                  ::
         :::::::::::::::::::::::::::::::::::::::::::::::::::::
         :: total free energy         -93.240233999542 Eh   ::
         ::.................................................::
         :: total energy              -93.589709970077 Eh   ::
         :: zero point energy           0.407782466339 Eh   ::
         :: G(RRHO) w/o ZPVE           -0.058306495805 Eh   ::
         :: G(RRHO) contrib.            0.349475970534 Eh   ::
         :::::::::::::::::::::::::::::::::::::::::::::::::::::

           -------------------------------------------------
          | TOTAL ENERGY              -93.589709970077 Eh   |
          | TOTAL ENTHALPY            -93.151295298614 Eh   |
          | TOTAL FREE ENERGY         -93.240233999542 Eh   |
          | GRADIENT NORM               0.000068895695 Eh/α |
          | HOMO-LUMO GAP               1.393899953758 eV   |
           -------------------------------------------------

 * finished run on 2025/09/10 at 03:27:30.474
