   * xtb version 6.7.1 (edcfbbe) compiled by 'albert@albert-system' on 2024-07-22

   ID    Z sym.   atoms
    1    7 N      1, 4, 7, 10
    2    6 C      2, 3, 5, 6, 8, 9, 11-38
    3    1 H      39-56

          program call               : xtb data2507/gas/APDC-tPh/APDC-tPh_gas_S0_finalOpt.xtbopt.xyz --gfn 2 --spinpol --tblite --uhf 2 --ohess vtight --parallel 40 --molden --ceasefiles --namespace data2507/gas/APDC-tPh/APDC-tPh_gas_T1_preOpt
 * total energy  :   -93.5275568 Eh     change        0.1644835E-08 Eh
 * total energy  :   -93.5329590 Eh     change       -0.5402219E-02 Eh
 * total energy  :   -93.5369550 Eh     change       -0.3995967E-02 Eh
 * total energy  :   -93.5387700 Eh     change       -0.1814958E-02 Eh
 * total energy  :   -93.5385976 Eh     change        0.1723681E-03 Eh
 * total energy  :   -93.5388594 Eh     change       -0.2618367E-03 Eh
 * total energy  :   -93.5388432 Eh     change        0.1619006E-04 Eh
 * total energy  :   -93.5388753 Eh     change       -0.3201922E-04 Eh
 * total energy  :   -93.5388781 Eh     change       -0.2860664E-05 Eh
 * total energy  :   -93.5388801 Eh     change       -0.1974719E-05 Eh
 * total energy  :   -93.5388826 Eh     change       -0.3625702E-06 Eh
 * total energy  :   -93.5388831 Eh     change       -0.4570979E-06 Eh
 * total energy  :   -93.5388837 Eh     change       -0.6000919E-06 Eh
 * total energy  :   -93.5388844 Eh     change       -0.7646628E-06 Eh
 * total energy  :   -93.5388850 Eh     change       -0.5068539E-06 Eh
 * total energy  :   -93.5388850 Eh     change       -0.2520409E-07 Eh
 * total energy  :   -93.5388851 Eh     change       -0.1539085E-06 Eh
 * total energy  :   -93.5388851 Eh     change        0.5833743E-07 Eh
 * total energy  :   -93.5388852 Eh     change       -0.7513137E-07 Eh
   *** GEOMETRY OPTIMIZATION CONVERGED AFTER 23 ITERATIONS ***

 final structure:
================
56
 xtb: 6.7.1 (edcfbbe)
N            8.97814986823321        0.92438259630720       -0.80854726634883
C            7.89716960066546        0.62296115580750       -0.55976541037883
C            6.58179974639865        0.25874616821965       -0.25995349578262
N            5.55385735127653        0.87020901929926       -0.79864870958158
C            4.32915399484715        0.57217842402638       -0.55632544445628
C            4.06135270043137       -0.56908686137313        0.42121620389703
N            5.07871661293065       -1.15665206642907        0.93899974338614
C            6.32495904977572       -0.83654091746363        0.68164023480597
C            7.39688875002231       -1.50700223978752        1.27628289163756
N            8.27691203651936       -2.06031326876325        1.76712746050604
C            2.65449706559400       -0.70760223234593        0.51983789755671
C            1.80765906755101       -1.55942265722559        1.22073276691690
C            0.43689425027373       -1.38727901887736        1.06328779466722
C           -0.13643735274636       -0.41037277125519        0.25358168470900
C           -1.59687223034530       -0.27851441402207        0.19942038767062
C           -2.39692065954914       -1.39714818049657       -0.01110534485026
C           -3.78187416339646       -1.28201129483536       -0.06582304800253
C           -4.61919711628950       -2.46777444254584       -0.30442027635166
C           -4.33365179274247       -3.67542954787283        0.32803614233664
C           -5.12309086330196       -4.78859964480181        0.10797583181334
C           -6.20604174665477       -4.71504927587386       -0.75209483315420
C           -6.49695988748131       -3.52000354265248       -1.38862137067222
C           -5.71250921226799       -2.40393019972861       -1.16488160008054
C           -4.36342309288382       -0.03018446086791        0.10670776774952
C           -3.58241796044125        1.09780787780889        0.33662636641666
C           -4.20796315242299        2.41488045655791        0.53134321282168
C           -5.36335889849294        2.54671615031874        1.29792918774098
C           -5.94931802868218        3.78554683108278        1.47938826181399
C           -5.39471246339955        4.91126844354215        0.89366279562909
C           -4.24723142750658        4.79132346851859        0.12776990645823
C           -3.65635764349036        3.55434868066293       -0.04979130678527
C           -2.19874128894176        0.96379434063855        0.37877500649281
C            0.70762553402865        0.45512259663504       -0.49816653476903
C            0.33235639990211        1.44736040882812       -1.42999138626589
C            1.28919435829351        2.20455474463052       -2.07961477529010
C            2.65913785000876        2.04102271281237       -1.87617144917677
C            3.06580686920493        1.05141844281876       -0.99023161992835
C            2.08448092118680        0.27446933325736       -0.32632924944991
H            2.19803842363848       -2.32535244084427        1.87197538616440
H           -0.22604931383152       -2.03222319408873        1.62266893469198
H           -1.93251721275867       -2.35816000985331       -0.17746292177686
H           -3.49989282131949       -3.73419840952024        1.01272913241956
H           -4.89407872553931       -5.71721176794577        0.61027387681120
H           -6.82080493104542       -5.58572472760475       -0.92563717205482
H           -7.33817073171115       -3.45821072213691       -2.06359332176832
H           -5.93437001491435       -1.47863875771735       -1.67675769452290
H           -5.43823299845174        0.06650262105496        0.06568911895301
H           -5.79099421028650        1.67476161226730        1.77130993499585
H           -6.84170209140973        3.87401995510709        2.08173305661364
H           -5.85453672640078        5.87822741868332        1.03388632644563
H           -3.81196244189566        5.66552271484361       -0.33421807069029
H           -2.76954572788583        3.46667651371300       -0.66094689253219
H           -1.58490019334334        1.82406327476798        0.60233188188773
H           -0.71222278987525        1.60340861559194       -1.65183576404776
H            0.96426774769265        2.95713207288384       -2.78367153194937
H            3.37590304402064        2.65378679493770       -2.39924354569258

 projected vibrational frequencies (cm⁻¹)
eigval :       -0.00    -0.00    -0.00     0.00     0.00     0.00
eigval :       15.86    19.75    26.33    42.38    46.16    47.90
eigval :       48.48    54.70    79.94    93.77    96.69   111.80
eigval :      116.82   145.83   149.34   162.94   167.17   193.17
eigval :      219.43   228.59   250.49   266.53   276.37   281.16
eigval :      314.21   324.86   346.09   361.41   370.98   371.95
eigval :      372.93   383.37   404.16   415.57   435.73   451.86
eigval :      457.18   468.06   471.11   494.31   503.00   516.17
eigval :      535.40   544.03   556.85   581.62   583.56   586.81
eigval :      590.92   600.64   604.86   613.30   620.45   634.66
eigval :      654.41   660.14   669.93   672.94   678.42   684.65
eigval :      724.42   728.09   757.57   758.72   773.33   783.57
eigval :      815.12   820.73   829.30   842.72   870.09   875.36
eigval :      876.60   884.73   893.86   900.24   904.74   907.48
eigval :      907.55   921.91   927.50   930.16   930.59   932.67
eigval :      932.73   967.06   986.21   990.06  1031.28  1058.29
eigval :     1084.48  1085.71  1094.69  1114.83  1120.66  1121.96
eigval :     1123.05  1124.26  1135.62  1181.73  1182.09  1182.61
eigval :     1184.63  1197.01  1200.95  1201.64  1228.61  1241.19
eigval :     1242.60  1248.60  1250.02  1281.88  1282.39  1315.39
eigval :     1318.49  1321.71  1323.37  1328.93  1348.39  1366.20
eigval :     1374.90  1402.81  1419.90  1420.31  1429.16  1436.82
eigval :     1438.99  1448.49  1475.72  1483.48  1484.46  1524.77
eigval :     1537.98  1540.13  1556.32  1566.70  1568.00  1581.44
eigval :     1582.94  1597.89  1598.82  1605.77  2313.42  2317.75
eigval :     3071.78  3072.79  3073.35  3073.74  3077.89  3078.83
eigval :     3080.81  3081.10  3083.93  3084.05  3086.07  3086.40
eigval :     3089.20  3093.87  3094.27  3096.28  3102.51  3104.98

   temp. (K)  partition function   enthalpy   heat capacity  entropy
                                   cal/mol     cal/K/mol   cal/K/mol   J/K/mol
 298.15  VIB  0.562E+13            17038.297    107.284    105.327
         ROT  0.537E+08              888.752      2.981     38.351
         INT  0.302E+21            17927.049    110.265    143.678
         TR   0.103E+29             1481.254      4.968     44.389
         TOT                       19408.3032   115.2333   188.0675   786.8746

       T/K    H(0)-H(T)+PV         H(T)/Eh          T*S/Eh         G(T)/Eh
   ------------------------------------------------------------------------
    298.15    0.309291E-01    0.436018E+00    0.893570E-01    0.346661E+00
   ------------------------------------------------------------------------

         :::::::::::::::::::::::::::::::::::::::::::::::::::::
         ::                  THERMODYNAMIC                  ::
         :::::::::::::::::::::::::::::::::::::::::::::::::::::
         :: total free energy         -93.192224513077 Eh   ::
         ::.................................................::
         :: total energy              -93.538885171508 Eh   ::
         :: zero point energy           0.405088513515 Eh   ::
         :: G(RRHO) w/o ZPVE           -0.058427855085 Eh   ::
         :: G(RRHO) contrib.            0.346660658430 Eh   ::
         :::::::::::::::::::::::::::::::::::::::::::::::::::::

           -------------------------------------------------
          | TOTAL ENERGY              -93.538885171508 Eh   |
          | TOTAL ENTHALPY            -93.102867558100 Eh   |
          | TOTAL FREE ENERGY         -93.192224513077 Eh   |
          | GRADIENT NORM               0.000046588358 Eh/α |
           -------------------------------------------------

 * finished run on 2025/09/10 at 03:27:34.599
