   * xtb version 6.7.1 (edcfbbe) compiled by 'albert@albert-system' on 2024-07-22

   ID    Z sym.   atoms
    1    7 N      1, 4, 7, 10
    2    6 C      2, 3, 5, 6, 8, 9, 11-38
    3    1 H      39-56

          program call               : xtb data2507/gas/APDC-tPh/APDC-tPh.xyz --gfn 2 --ohess vtight --parallel 40 --molden --ceasefiles --namespace data2507/gas/APDC-tPh/APDC-tPh_gas_S0_preOpt
          :  Hamiltonian                  GFN2-xTB          :
 * total energy  :   -93.5718653 Eh     change       -0.1279474E-08 Eh
 * total energy  :   -93.5838081 Eh     change       -0.1194283E-01 Eh
 * total energy  :   -93.5865054 Eh     change       -0.2697289E-02 Eh
 * total energy  :   -93.5870115 Eh     change       -0.5060758E-03 Eh
 * total energy  :   -93.5872176 Eh     change       -0.2061316E-03 Eh
 * total energy  :   -93.5869926 Eh     change        0.2250118E-03 Eh
 * total energy  :   -93.5873502 Eh     change       -0.3576000E-03 Eh
 * total energy  :   -93.5873905 Eh     change       -0.4031080E-04 Eh
 * total energy  :   -93.5875147 Eh     change       -0.1242249E-03 Eh
 * total energy  :   -93.5876759 Eh     change       -0.1611460E-03 Eh
 * total energy  :   -93.5897013 Eh     change       -0.6034934E-06 Eh
 * total energy  :   -93.5897020 Eh     change       -0.6429426E-06 Eh
 * total energy  :   -93.5897025 Eh     change       -0.5340339E-06 Eh
 * total energy  :   -93.5897029 Eh     change       -0.4108995E-06 Eh
 * total energy  :   -93.5897033 Eh     change       -0.3494332E-06 Eh
 * total energy  :   -93.5897036 Eh     change       -0.3558033E-06 Eh
 * total energy  :   -93.5897040 Eh     change       -0.3161628E-06 Eh
 * total energy  :   -93.5897041 Eh     change       -0.1771522E-06 Eh
 * total energy  :   -93.5897041 Eh     change       -0.1829262E-07 Eh
   *** GEOMETRY OPTIMIZATION CONVERGED AFTER 58 ITERATIONS ***

 final structure:
================
56
 xtb: 6.7.1 (edcfbbe)
N           10.00188365003978        0.72456133138844       -0.56144641835530
C            8.90773653354523        0.48299225375376       -0.32335802897416
C            7.56386338157810        0.16508898798125       -0.00515749847882
N            6.59300628139176        0.73145522245083       -0.73149806831668
C            5.36588495073900        0.40560049367734       -0.39554191133238
C            5.08247007446982       -0.50141584118452        0.68594025444964
N            6.03674320338984       -1.06015302358755        1.39668588496043
C            7.28615857633388       -0.72836721542800        1.05341075560704
C            8.35496944854376       -1.30224614375391        1.78663672427785
N            9.23614756663514       -1.75285726991684        2.36336081834298
C            3.64647613825354       -0.64565862894025        0.79370943001207
C            2.78813005201490       -1.36494154718182        1.59214400939375
C            1.41084247813758       -1.22795799023148        1.37457751665860
C            0.86557022526620       -0.40560030359773        0.40158378480527
C           -0.59276246348145       -0.28742997485190        0.27459041255994
C           -1.38468312560750       -1.42818912288561        0.20097927800217
C           -2.76672312577999       -1.32701651092301        0.08484798363755
C           -3.59716673420190       -2.53829272284346       -0.00367539480370
C           -4.79428067490682       -2.62902757013517        0.70196491735277
C           -5.57142347935256       -3.76965067588717        0.62395542665460
C           -5.16829824679913       -4.83412306471017       -0.16479851649040
C           -3.98146169087811       -4.75255093533865       -0.87359649859569
C           -3.19957889350417       -3.61536686038834       -0.79178787905447
C           -3.35123532578543       -0.06501812722044        0.05418416272043
C           -2.57696763701352        1.08779863969359        0.13750904483578
C           -3.20669482263958        2.41696409335634        0.10764060546318
C           -4.38803140692132        2.65793081955436        0.80477021299326
C           -4.97858556098138        3.90748481435598        0.77771094446647
C           -4.40212610820444        4.93462758815090        0.04945489945879
C           -3.22862939454965        4.70563875139102       -0.64903315689200
C           -2.63345398301435        3.45831957554778       -0.61818324447237
C           -1.19561833699855        0.96630380710117        0.24560349527861
C            1.73433509618981        0.32523309301879       -0.45977876620169
C            1.38988005240202        1.14868487920087       -1.55560506612030
C            2.36552413622230        1.78344058217950       -2.29028343863885
C            3.73651902960392        1.64947457696587       -2.01371999121784
C            4.10682797691125        0.83209980559345       -0.97356710090386
C            3.10258002545281        0.17918570786916       -0.21909625609259
H            3.15652769990410       -2.01326833879310        2.37198315419492
H            0.73406602012384       -1.77444898449577        2.01599837637600
H           -0.91819894469830       -2.40193860422882        0.22988092858077
H           -5.10505840618419       -1.80811565239728        1.33191920025400
H           -6.49452039619818       -3.82960319604493        1.18180630337366
H           -5.77683644261867       -5.72396262970682       -0.22691321072901
H           -3.66427514208588       -5.57840538655398       -1.49350890864130
H           -2.28259949312511       -3.55076722468468       -1.35969616820418
H           -4.42041436516337        0.02129274778586       -0.07117501740770
H           -4.83330871981998        1.86544661001956        1.38854992658462
H           -5.89156661766458        4.08173228855055        1.32813192636899
H           -4.86533438250909        5.90974966198880        0.02659977035234
H           -2.77605894172790        5.50232459837875       -1.22127797228742
H           -1.72580142127535        3.28383038037003       -1.17804194297359
H           -0.58745087869292        1.85201263109099        0.35807635929002
H            0.35165713256631        1.26584298281689       -1.82851431462328
H            2.07038965455989        2.40673125708571       -3.12185615525842
H            4.47095377811275        2.16452436460668       -2.61309258224624

          :  Hamiltonian                  GFN2-xTB          :
         :: gradient norm              0.000161003494 Eh/a0 ::
         :: HOMO-LUMO gap              1.394073693060 eV    ::
         :: SCC energy               -95.412946740188 Eh    ::
         :: -> dispersion             -0.076430220981 Eh    ::
         :: repulsion energy           1.823242593631 Eh    ::

    * Orbital Energies and Occupations

         #    Occupation            Energy/Eh            Energy/eV
      -------------------------------------------------------------
         1        2.0000           -0.7093970             -19.3037
       ...           ...                  ...                  ...
        75        2.0000           -0.4360395             -11.8652
        76        2.0000           -0.4352741             -11.8444
        77        2.0000           -0.4334741             -11.7954
        78        2.0000           -0.4302254             -11.7070
        79        2.0000           -0.4260418             -11.5932
        80        2.0000           -0.4236000             -11.5267
        81        2.0000           -0.4214981             -11.4695
        82        2.0000           -0.4157585             -11.3134
        83        2.0000           -0.4149861             -11.2923
        84        2.0000           -0.4110415             -11.1850
        85        2.0000           -0.4012815             -10.9194
        86        2.0000           -0.3975191             -10.8170
        87        2.0000           -0.3799546             -10.3391 (HOMO)
        88                         -0.3287233              -8.9450 (LUMO)
        89                         -0.3106486              -8.4532
        90                         -0.2886456              -7.8544
        91                         -0.2629884              -7.1563
        92                         -0.2580063              -7.0207
        93                         -0.2550205              -6.9395
        94                         -0.2337621              -6.3610
        95                         -0.2329574              -6.3391
        96                         -0.2289708              -6.2306
        97                         -0.2269616              -6.1759
        98                         -0.2188825              -5.9561
       ...                                ...                  ...
       170                          1.1681463              31.7869
      -------------------------------------------------------------
                  HL-Gap            0.0512313 Eh            1.3941 eV

     #   Z          covCN         q      C6AA      α(0)
     1   7 N        0.911    -0.193    25.192     7.259
     2   6 C        1.910     0.113    28.307     8.592
     3   6 C        2.979     0.097    25.837     8.338
     4   7 N        1.843    -0.215    26.511     7.631
     5   6 C        3.071     0.089    25.960     8.354
     6   6 C        3.071     0.089    25.953     8.353
     7   7 N        1.843    -0.215    26.529     7.633
     8   6 C        2.979     0.098    25.817     8.335
     9   6 C        1.910     0.114    28.302     8.592
    10   7 N        0.911    -0.193    25.179     7.257
    11   6 C        3.033    -0.008    28.191     8.709
    12   6 C        2.911    -0.013    28.343     8.730
    13   6 C        2.925    -0.033    28.824     8.804
    14   6 C        2.976     0.019    27.580     8.614
    15   6 C        2.974     0.009    27.817     8.651
    16   6 C        2.930    -0.040    29.002     8.832
    17   6 C        2.974     0.012    27.742     8.640
    18   6 C        2.978     0.009    27.807     8.650
    19   6 C        2.925    -0.033    28.816     8.803
    20   6 C        2.919    -0.029    28.714     8.787
    21   6 C        2.920    -0.029    28.732     8.790
    22   6 C        2.919    -0.029    28.713     8.787
    23   6 C        2.925    -0.033    28.824     8.804
    24   6 C        2.930    -0.039    28.962     8.826
    25   6 C        2.974     0.011    27.767     8.644
    26   6 C        2.978     0.009    27.807     8.650
    27   6 C        2.925    -0.033    28.813     8.803
    28   6 C        2.919    -0.028    28.710     8.787
    29   6 C        2.920    -0.029    28.732     8.790
    30   6 C        2.919    -0.029    28.718     8.788
    31   6 C        2.925    -0.033    28.821     8.804
    32   6 C        2.930    -0.040    28.992     8.830
    33   6 C        2.977     0.014    27.695     8.632
    34   6 C        2.919    -0.022    28.564     8.764
    35   6 C        2.919    -0.027    28.672     8.781
    36   6 C        2.912    -0.013    28.334     8.728
    37   6 C        3.033    -0.005    28.107     8.696
    38   6 C        3.145    -0.007    27.929     8.646
    39   1 H        0.926     0.057     2.229     2.334
    40   1 H        0.926     0.047     2.354     2.399
    41   1 H        0.926     0.036     2.507     2.476
    42   1 H        0.926     0.031     2.567     2.505
    43   1 H        0.926     0.032     2.552     2.498
    44   1 H        0.926     0.033     2.548     2.496
    45   1 H        0.926     0.032     2.554     2.499
    46   1 H        0.926     0.031     2.574     2.509
    47   1 H        0.926     0.039     2.462     2.454
    48   1 H        0.926     0.032     2.561     2.503
    49   1 H        0.926     0.033     2.549     2.497
    50   1 H        0.926     0.033     2.547     2.496
    51   1 H        0.926     0.032     2.559     2.502
    52   1 H        0.926     0.028     2.612     2.527
    53   1 H        0.926     0.035     2.510     2.478
    54   1 H        0.926     0.048     2.348     2.396
    55   1 H        0.926     0.046     2.368     2.407
    56   1 H        0.926     0.058     2.225     2.332

molecular dipole:
                 x           y           z       tot (Debye)
 q only:       -3.759       0.303      -0.534
   full:       -4.530       0.385      -0.669      11.680

 projected vibrational frequencies (cm⁻¹)
eigval :       -0.00    -0.00     0.00     0.00     0.00     0.00
eigval :       15.69    19.41    26.20    39.79    42.71    46.54
eigval :       48.47    54.19    79.07    93.76    96.39   105.87
eigval :      115.83   150.59   151.40   159.30   165.64   197.06
eigval :      216.75   231.49   248.88   264.83   273.07   276.93
eigval :      314.35   330.31   350.09   362.35   367.38   373.73
eigval :      374.44   389.04   392.02   418.56   431.37   460.16
eigval :      477.47   484.83   501.63   508.12   528.17   530.72
eigval :      546.29   551.92   581.84   584.83   586.74   590.77
eigval :      604.83   608.26   617.99   633.77   653.42   667.68
eigval :      673.65   673.91   680.90   685.09   695.09   734.64
eigval :      736.87   751.68   754.04   764.27   779.33   804.27
eigval :      828.99   835.45   839.16   850.34   875.77   876.83
eigval :      893.63   898.36   903.48   905.27   911.37   914.64
eigval :      919.22   929.31   930.70   932.70   933.24   933.52
eigval :      954.34   986.20   990.65  1013.72  1061.84  1082.76
eigval :     1085.24  1092.22  1114.44  1120.53  1122.53  1124.09
eigval :     1132.37  1136.41  1166.95  1182.20  1182.42  1185.50
eigval :     1198.74  1201.02  1202.26  1230.04  1237.02  1243.07
eigval :     1246.17  1248.93  1281.57  1282.51  1314.80  1317.96
eigval :     1319.62  1322.65  1323.21  1329.50  1348.20  1361.81
eigval :     1381.72  1396.15  1415.75  1421.69  1427.51  1438.11
eigval :     1444.43  1450.76  1482.70  1485.35  1485.64  1527.42
eigval :     1533.57  1569.65  1573.96  1579.44  1583.37  1585.08
eigval :     1595.25  1600.53  1600.76  1608.01  2368.04  2370.18
eigval :     3071.50  3073.08  3073.70  3074.38  3080.84  3081.29
eigval :     3081.37  3081.73  3083.91  3085.00  3086.09  3087.00
eigval :     3089.50  3092.98  3094.62  3095.03  3102.23  3104.53

   temp. (K)  partition function   enthalpy   heat capacity  entropy
                                   cal/mol     cal/K/mol   cal/K/mol   J/K/mol
 298.15  VIB  0.609E+13            16852.154    105.607    104.470
         ROT  0.535E+08              888.752      2.981     38.345
         INT  0.326E+21            17740.906    108.588    142.815
         TR   0.103E+29             1481.254      4.968     44.389
         TOT                       19222.1601   113.5563   187.2044   783.2630

       T/K    H(0)-H(T)+PV         H(T)/Eh          T*S/Eh         G(T)/Eh
   ------------------------------------------------------------------------
    298.15    0.306325E-01    0.438415E+00    0.889468E-01    0.349468E+00
   ------------------------------------------------------------------------

         :::::::::::::::::::::::::::::::::::::::::::::::::::::
         ::                  THERMODYNAMIC                  ::
         :::::::::::::::::::::::::::::::::::::::::::::::::::::
         :: total free energy         -93.240235690811 Eh   ::
         ::.................................................::
         :: total energy              -93.589704146545 Eh   ::
         :: zero point energy           0.407782824365 Eh   ::
         :: G(RRHO) w/o ZPVE           -0.058314368630 Eh   ::
         :: G(RRHO) contrib.            0.349468455735 Eh   ::
         :::::::::::::::::::::::::::::::::::::::::::::::::::::

           -------------------------------------------------
          | TOTAL ENERGY              -93.589704146545 Eh   |
          | TOTAL ENTHALPY            -93.151288860151 Eh   |
          | TOTAL FREE ENERGY         -93.240235690811 Eh   |
          | GRADIENT NORM               0.000160734156 Eh/α |
          | HOMO-LUMO GAP               1.394073949193 eV   |
           -------------------------------------------------

 * finished run on 2025/09/10 at 03:25:09.772
