   * xtb version 6.7.1 (edcfbbe) compiled by 'albert@albert-system' on 2024-07-22

   ID    Z sym.   atoms
    1    7 N      1, 17, 19, 36
    2    6 C      2-16, 18, 20-35, 37-48
    3    1 H      49-74

          program call               : xtb data2507/toluene/DCzBNPh-1/DCzBNPh-1_toluene_T1_crest.xyz --gfn 2 --uhf 2 --gbsa toluene --ohess vtight --parallel 40 --molden --ceasefiles --namespace data2507/toluene/DCzBNPh-1/DCzBNPh-1_toluene_T1_finalOpt
      * Solvation model:               GBSA
        Solvent                        toluene
        Solvent mass                       9.2140E+01 g/mol
          :  Hamiltonian                  GFN2-xTB          :
 * total energy  :  -119.1285196 Eh     change        0.6865406E-09 Eh
 * total energy  :  -119.1285700 Eh     change       -0.5044271E-04 Eh
 * total energy  :  -119.1285872 Eh     change       -0.1719890E-04 Eh
 * total energy  :  -119.1285787 Eh     change        0.8499138E-05 Eh
 * total energy  :  -119.1285970 Eh     change       -0.1826579E-04 Eh
 * total energy  :  -119.1286034 Eh     change       -0.6462000E-05 Eh
 * total energy  :  -119.1286060 Eh     change       -0.2589338E-05 Eh
 * total energy  :  -119.1286108 Eh     change       -0.4713027E-05 Eh
 * total energy  :  -119.1286139 Eh     change       -0.3113275E-05 Eh
 * total energy  :  -119.1286166 Eh     change       -0.2765601E-05 Eh
 * total energy  :  -119.1286547 Eh     change       -0.1524684E-05 Eh
 * total energy  :  -119.1286560 Eh     change       -0.1373219E-05 Eh
 * total energy  :  -119.1286573 Eh     change       -0.1294803E-05 Eh
 * total energy  :  -119.1286587 Eh     change       -0.1375320E-05 Eh
 * total energy  :  -119.1286603 Eh     change       -0.1620430E-05 Eh
 * total energy  :  -119.1286621 Eh     change       -0.1726372E-05 Eh
 * total energy  :  -119.1286633 Eh     change       -0.1236087E-05 Eh
 * total energy  :  -119.1286637 Eh     change       -0.4166414E-06 Eh
 * total energy  :  -119.1286637 Eh     change       -0.2163915E-08 Eh
   *** GEOMETRY OPTIMIZATION CONVERGED AFTER 44 ITERATIONS ***

 final structure:
================
74
 xtb: 6.7.1 (edcfbbe)
N           -6.89930497832040       -3.05169272901199       -1.79386067916187
C           -5.94372494482815       -2.47599439161115       -1.48823228532507
C           -4.77894344690034       -1.79510298472272       -1.14196181572868
C           -3.51594032363236       -2.31309953010834       -1.49749924079928
C           -2.36998687801051       -1.61123151692921       -1.23946786439442
C           -2.40351523633529       -0.33961228114598       -0.62167698553070
C           -1.18722300492779        0.39922212902536       -0.33114428412636
C           -1.17066481310238        1.80951802723356       -0.32888829176829
C           -0.00208315455250        2.48972324819169       -0.04715899278264
C            1.16555268777868        1.81093007026998        0.24074812228641
C            1.18163928439579        0.40042055422644        0.25465294672896
C            2.39522071213709       -0.33614303127010        0.55952970931799
C            2.35544522395984       -1.60455597276722        1.18468996625510
C            3.49854128671714       -2.30256448058888        1.46351456647331
C            4.76606650385258       -1.78383316006406        1.12468495472495
C            5.92550622944127       -2.45874075812848        1.49842506973832
N            6.87508811297531       -3.03086608033848        1.82890899720540
C            4.81549855471059       -0.51539849065513        0.47686122732897
N            6.05648520033602        0.02934368432709        0.12137877601973
C            6.53202517620204        1.26029976604410        0.51959498840645
C            5.93533791479626        2.21162906867461        1.33762682475712
C            6.64781490813635        3.36694558193325        1.60538111955552
C            7.92173758818148        3.56959322487185        1.08154167078410
C            8.52982743122651        2.61309040150634        0.28210406506897
C            7.83570922388384        1.44847495963197        0.00018368327733
C            8.14703857843652        0.26010104290175       -0.75500146495238
C            9.24482795693812       -0.14189227149186       -1.49630396976568
C            9.19855196806801       -1.37366171150385       -2.13216160104913
C            8.07108698073506       -2.18618353049234       -2.04858921387907
C            6.96168284982941       -1.80452799774620       -1.31663608655633
C            7.01653828697260       -0.58633586101608       -0.65024917528647
C            3.65574170978025        0.18235979806036        0.22510436245542
C           -0.00309028253747       -0.27238293035385       -0.03669348913680
C           -3.65975955939102        0.17959647881760       -0.27372674216022
C           -4.82159551535330       -0.52279159118221       -0.50273422770250
N           -6.05724655476413        0.02070589125551       -0.12654347640586
C           -6.99320871977160       -0.58630594849143        0.68059133254712
C           -6.91844142068343       -1.79785377483059        1.35689567008805
C           -8.00258135613184       -2.16867351252800        2.13105548928081
C           -9.12505932241334       -1.35277018493837        2.24399703866764
C           -9.19159377963216       -0.12881154217767        1.59503726320198
C           -8.11917796430292        0.26252315050195        0.81200283588246
C           -7.83135527141495        1.44201831501297        0.03393758285424
C           -8.53270815532764        2.60452920223327       -0.23869924581234
C           -7.94820600231872        3.55228794392022       -1.06568768672357
C           -6.69044696579213        3.34349286728579       -1.62512597745411
C           -5.97107953330893        2.19024475886145       -1.36727999203016
C           -6.54411284643859        1.24751596746983       -0.52278870823431
H           -3.47532577023302       -3.27264300908946       -1.99292745806238
H           -1.42184423310636       -2.02434630509372       -1.54774414105020
H           -2.06390696478369        2.36086456920264       -0.57786502738162
H           -0.00166441522787        3.57096851533548       -0.05144210202134
H            2.05854222966547        2.36398063155601        0.48675810187409
H            1.40400499197340       -2.01755169981032        1.48261995321861
H            3.45252534009866       -3.25908482803020        1.96429639315236
H            4.95501230767414        2.04924670302618        1.75864016909931
H            6.20797406317653        4.12394342070192        2.23695489431100
H            8.44707547606300        4.48447215411280        1.31040558198034
H            9.52380950921596        2.76875818086636       -0.10759534092628
H           10.11530804012148        0.49033851650033       -1.57874333365699
H           10.04682831643244       -1.70695013610776       -2.71068391713525
H            8.05949646733514       -3.13217728514188       -2.56829260737382
H            6.08583448461034       -2.43311713627719       -1.26640352649445
H            3.72652825991623        1.12693435753412       -0.29322379972300
H           -0.00383487071902       -1.35165601413222       -0.03310505339813
H           -3.72490220675082        1.12796068840838        0.23842251029743
H           -6.04621002275402       -2.42911769819451        1.28306047577067
H           -7.97487802796634       -3.10879587028980        2.66069827105001
H           -9.95300376706778       -1.67732494140322        2.85591402138030
H          -10.05791824705245        0.50588045765283        1.69947095048039
H           -9.51435822595719        2.76530038723990        0.17916576538926
H           -8.47963663716252        4.46528038078924       -1.28797827430084
H           -6.26913915187024        4.09396585933817       -2.27679821926658
H           -5.00346381172995        2.02270265103256       -1.81493400654889

          :  Hamiltonian                  GFN2-xTB          :
         :: gradient norm              0.000133370468 Eh/a0 ::
         :: HOMO-LUMO gap              0.117877287543 eV    ::
         :: SCC energy              -121.434568776890 Eh    ::
         :: -> dispersion             -0.105640971671 Eh    ::
         :: -> Gsolv                  -0.059726452590 Eh    ::
         :: repulsion energy           2.305905050933 Eh    ::

    * Orbital Energies and Occupations

         #    Occupation            Energy/Eh            Energy/eV
      -------------------------------------------------------------
         1        2.0000           -0.6965382             -18.9538
       ...           ...                  ...                  ...
       100        2.0000           -0.4214266             -11.4676
       101        2.0000           -0.4212971             -11.4641
       102        2.0000           -0.4169945             -11.3470
       103        2.0000           -0.4157996             -11.3145
       104        2.0000           -0.4146178             -11.2823
       105        2.0000           -0.4138452             -11.2613
       106        2.0000           -0.3960642             -10.7775
       107        2.0000           -0.3960201             -10.7763
       108        2.0000           -0.3935977             -10.7103
       109        1.9980           -0.3851969             -10.4817
       110        1.6379           -0.3798493             -10.3362
       111        1.3642           -0.3787819             -10.3072
       112        0.9072           -0.2805246              -7.6335 (HOMO)
       113        0.0928           -0.2761925              -7.5156 (LUMO)
       114                         -0.2612571              -7.1092
       115                         -0.2611492              -7.1062
       116                         -0.2402429              -6.5373
       117                         -0.2401976              -6.5361
       118                         -0.2396929              -6.5224
       119                         -0.2389364              -6.5018
       120                         -0.2219141              -6.0386
       121                         -0.2206243              -6.0035
       122                         -0.2088092              -5.6820
       123                         -0.2084328              -5.6717
       ...                                ...                  ...
       218                          1.1561019              31.4591
      -------------------------------------------------------------
                  HL-Gap            0.0043320 Eh            0.1179 eV

     #   Z          covCN         q      C6AA      α(0)
     1   7 N        0.911    -0.329    28.469     7.717
     2   6 C        1.909     0.107    28.463     8.616
     3   6 C        2.968    -0.017    28.432     8.746
     4   6 C        2.919    -0.030    28.741     8.791
     5   6 C        2.918    -0.035    28.865     8.810
     6   6 C        2.972     0.002    27.987     8.678
     7   6 C        2.970     0.006    27.890     8.663
     8   6 C        2.922    -0.047    29.171     8.857
     9   6 C        2.912    -0.032    28.791     8.799
    10   6 C        2.922    -0.047    29.171     8.857
    11   6 C        2.970     0.006    27.890     8.662
    12   6 C        2.972     0.001    27.993     8.679
    13   6 C        2.918    -0.035    28.863     8.810
    14   6 C        2.919    -0.030    28.744     8.792
    15   6 C        2.968    -0.017    28.435     8.747
    16   6 C        1.909     0.107    28.467     8.617
    17   7 N        0.911    -0.330    28.486     7.719
    18   6 C        2.911     0.054    26.778     8.485
    19   7 N        2.803    -0.014    21.519     6.890
    20   6 C        3.074     0.050    26.811     8.490
    21   6 C        2.909    -0.039    28.970     8.826
    22   6 C        2.922    -0.029    28.730     8.790
    23   6 C        2.920    -0.029    28.731     8.790
    24   6 C        2.912    -0.026    28.658     8.778
    25   6 C        3.064    -0.009    28.176     8.704
    26   6 C        3.065    -0.009    28.184     8.705
    27   6 C        2.912    -0.026    28.661     8.779
    28   6 C        2.920    -0.028    28.701     8.785
    29   6 C        2.923    -0.028    28.696     8.785
    30   6 C        2.909    -0.034    28.854     8.808
    31   6 C        3.074     0.052    26.752     8.480
    32   6 C        2.922    -0.049    29.211     8.863
    33   6 C        2.929    -0.040    28.989     8.830
    34   6 C        2.923    -0.049    29.207     8.863
    35   6 C        2.911     0.055    26.775     8.485
    36   7 N        2.804    -0.014    21.525     6.891
    37   6 C        3.074     0.052    26.752     8.480
    38   6 C        2.909    -0.034    28.858     8.809
    39   6 C        2.923    -0.028    28.698     8.785
    40   6 C        2.920    -0.028    28.704     8.786
    41   6 C        2.912    -0.026    28.662     8.779
    42   6 C        3.065    -0.009    28.185     8.706
    43   6 C        3.064    -0.009    28.177     8.705
    44   6 C        2.912    -0.026    28.658     8.778
    45   6 C        2.920    -0.029    28.732     8.790
    46   6 C        2.922    -0.029    28.730     8.790
    47   6 C        2.909    -0.039    28.970     8.826
    48   6 C        3.075     0.050    26.810     8.489
    49   1 H        0.926     0.032     2.556     2.500
    50   1 H        0.926     0.041     2.437     2.441
    51   1 H        0.926     0.026     2.642     2.542
    52   1 H        0.925     0.027     2.630     2.536
    53   1 H        0.926     0.026     2.641     2.541
    54   1 H        0.926     0.041     2.438     2.442
    55   1 H        0.926     0.032     2.559     2.502
    56   1 H        0.926     0.044     2.401     2.423
    57   1 H        0.926     0.047     2.354     2.399
    58   1 H        0.926     0.048     2.342     2.393
    59   1 H        0.926     0.050     2.321     2.382
    60   1 H        0.926     0.051     2.302     2.373
    61   1 H        0.926     0.049     2.327     2.385
    62   1 H        0.926     0.046     2.365     2.405
    63   1 H        0.926     0.036     2.499     2.472
    64   1 H        0.926     0.044     2.391     2.418
    65   1 H        0.926     0.033     2.544     2.494
    66   1 H        0.926     0.044     2.391     2.418
    67   1 H        0.926     0.036     2.502     2.473
    68   1 H        0.926     0.046     2.366     2.405
    69   1 H        0.926     0.049     2.328     2.386
    70   1 H        0.926     0.051     2.303     2.373
    71   1 H        0.926     0.050     2.322     2.383
    72   1 H        0.926     0.048     2.343     2.394
    73   1 H        0.926     0.047     2.355     2.400
    74   1 H        0.926     0.043     2.404     2.425

molecular dipole:
                 x           y           z       tot (Debye)
 q only:        0.025       3.249      -0.007
   full:        0.025       3.395      -0.015       8.630

 projected vibrational frequencies (cm⁻¹)
eigval :       -0.00    -0.00    -0.00    -0.00     0.00     0.00
eigval :        5.67     6.84    14.99    25.95    26.49    37.33
eigval :       41.10    54.67    62.96    66.49    75.27    87.86
eigval :       93.86   101.31   101.48   121.73   125.58   139.97
eigval :      141.08   142.44   145.19   181.00   203.96   210.93
eigval :      220.42   237.95   239.79   265.62   266.56   269.51
eigval :      282.92   287.39   293.49   304.07   334.62   360.16
eigval :      371.48   373.17   387.80   390.36   408.55   409.09
eigval :      415.05   415.81   431.19   431.64   444.49   460.25
eigval :      461.78   501.08   511.07   511.74   512.96   524.84
eigval :      525.35   531.33   531.89   545.57   548.53   551.86
eigval :      578.44   583.10   583.35   596.93   603.69   617.98
eigval :      621.84   629.03   645.15   648.80   658.77   662.67
eigval :      672.20   672.71   692.14   706.29   707.90   711.71
eigval :      722.94   752.36   752.58   762.81   764.54   765.65
eigval :      772.21   772.87   796.52   809.60   813.47   838.61
eigval :      846.14   862.68   863.22   864.13   864.99   872.78
eigval :      876.54   877.25   894.69   895.10   900.50   900.62
eigval :      904.54   904.59   906.52   910.23   915.74   916.63
eigval :      918.01   918.93   919.80   926.49   968.62   970.88
eigval :     1008.84  1008.87  1055.93  1057.71  1064.41  1064.75
eigval :     1066.58  1067.66  1085.20  1087.09  1103.91  1132.10
eigval :     1133.04  1136.69  1144.36  1149.19  1170.54  1172.06
eigval :     1172.69  1174.25  1179.65  1183.56  1194.31  1222.71
eigval :     1224.36  1224.54  1225.47  1226.55  1234.02  1248.38
eigval :     1248.74  1270.48  1271.16  1281.06  1281.81  1282.32
eigval :     1298.21  1305.19  1321.35  1321.54  1323.44  1332.97
eigval :     1337.07  1349.28  1360.91  1364.40  1371.26  1380.26
eigval :     1401.79  1402.01  1408.02  1411.16  1413.43  1416.11
eigval :     1436.55  1442.56  1443.32  1451.50  1455.56  1456.99
eigval :     1474.82  1475.43  1475.96  1494.34  1552.25  1558.38
eigval :     1558.91  1566.84  1567.60  1572.68  1573.53  1575.46
eigval :     1593.77  1597.04  2224.80  2283.31  3063.09  3076.92
eigval :     3077.13  3084.11  3084.18  3084.43  3084.68  3087.34
eigval :     3087.60  3088.32  3088.38  3088.85  3089.29  3089.90
eigval :     3092.35  3095.09  3095.41  3095.70  3095.82  3096.26
eigval :     3096.59  3097.34  3101.31  3101.42  3101.99  3102.84

   temp. (K)  partition function   enthalpy   heat capacity  entropy
                                   cal/mol     cal/K/mol   cal/K/mol   J/K/mol
 298.15  VIB  0.481E+18            22235.550    140.593    139.232
         ROT  0.106E+09              888.752      2.981     39.710
         INT  0.512E+26            23124.302    143.574    178.942
         TR   0.146E+29             1481.254      4.968     45.091
         TOT                       24605.5564   148.5422   224.0329   937.3537

       T/K    H(0)-H(T)+PV         H(T)/Eh          T*S/Eh         G(T)/Eh
   ------------------------------------------------------------------------
    298.15    0.392115E-01    0.587888E+00    0.106445E+00    0.481443E+00
   ------------------------------------------------------------------------

         :::::::::::::::::::::::::::::::::::::::::::::::::::::
         ::                  THERMODYNAMIC                  ::
         :::::::::::::::::::::::::::::::::::::::::::::::::::::
         :: total free energy        -118.647220744129 Eh   ::
         ::.................................................::
         :: total energy             -119.128663726342 Eh   ::
         :: zero point energy           0.548676794089 Eh   ::
         :: G(RRHO) w/o ZPVE           -0.067233811876 Eh   ::
         :: G(RRHO) contrib.            0.481442982213 Eh   ::
         :::::::::::::::::::::::::::::::::::::::::::::::::::::

           -------------------------------------------------
          | TOTAL ENERGY             -119.128663726342 Eh   |
          | TOTAL ENTHALPY           -118.540775482194 Eh   |
          | TOTAL FREE ENERGY        -118.647220744129 Eh   |
          | GRADIENT NORM               0.000127386022 Eh/α |
          | HOMO-LUMO GAP               0.117880884754 eV   |
           -------------------------------------------------

 * finished run on 2025/08/24 at 06:35:52.122
