   * xtb version 6.7.1 (edcfbbe) compiled by 'albert@albert-system' on 2024-07-22

   ID    Z sym.   atoms
    1    7 N      1, 17, 19, 36
    2    6 C      2-16, 18, 20-35, 37-48
    3    1 H      49-74

          program call               : xtb data2507/toluene/DCzBNPh-1/DCzBNPh-1_toluene_S0_finalOpt.xtbopt.xyz --gfn 2 --uhf 2 --gbsa toluene --ohess vtight --parallel 40 --molden --ceasefiles --namespace data2507/toluene/DCzBNPh-1/DCzBNPh-1_toluene_T1_preOpt
      * Solvation model:               GBSA
        Solvent                        toluene
        Solvent mass                       9.2140E+01 g/mol
          :  Hamiltonian                  GFN2-xTB          :
 * total energy  :  -119.1243126 Eh     change       -0.4486026E-08 Eh
 * total energy  :  -119.1269458 Eh     change       -0.2633212E-02 Eh
 * total energy  :  -119.1275719 Eh     change       -0.6261485E-03 Eh
 * total energy  :  -119.1276573 Eh     change       -0.8532866E-04 Eh
 * total energy  :  -119.1277631 Eh     change       -0.1058748E-03 Eh
 * total energy  :  -119.1278308 Eh     change       -0.6768540E-04 Eh
 * total energy  :  -119.1278890 Eh     change       -0.5818545E-04 Eh
 * total energy  :  -119.1279283 Eh     change       -0.3929676E-04 Eh
 * total energy  :  -119.1279454 Eh     change       -0.1707156E-04 Eh
 * total energy  :  -119.1279614 Eh     change       -0.1597781E-04 Eh
 * total energy  :  -119.1285312 Eh     change       -0.9036055E-06 Eh
 * total energy  :  -119.1285321 Eh     change       -0.9140789E-06 Eh
 * total energy  :  -119.1285330 Eh     change       -0.9218170E-06 Eh
 * total energy  :  -119.1285340 Eh     change       -0.9328004E-06 Eh
 * total energy  :  -119.1285349 Eh     change       -0.9393831E-06 Eh
 * total energy  :  -119.1285359 Eh     change       -0.9510658E-06 Eh
 * total energy  :  -119.1285368 Eh     change       -0.9587818E-06 Eh
 * total energy  :  -119.1285378 Eh     change       -0.9727653E-06 Eh
 * total energy  :  -119.1285378 Eh     change       -0.6368111E-08 Eh
   *** GEOMETRY OPTIMIZATION CONVERGED AFTER 185 ITERATIONS ***

 final structure:
================
74
 xtb: 6.7.1 (edcfbbe)
N           -6.85230954735335       -2.93517976867261       -2.01460416897640
C           -5.90548024365881       -2.37993298415015       -1.64902318149287
C           -4.74937997051114       -1.72149289167931       -1.23724920391005
C           -3.47989828700562       -2.21136074314209       -1.60978398915409
C           -2.34114392062249       -1.51885247326680       -1.30035636653358
C           -2.39095845206218       -0.28212825088046       -0.61666502231946
C           -1.18094240911804        0.45499768139799       -0.29567149014269
C           -1.16848084275328        1.86424077408550       -0.27777333492990
C           -0.00115878460040        2.54487489886750        0.00843842220377
C            1.16717282297822        1.86483454339221        0.29210619737971
C            1.18153349261005        0.45559611756385        0.30467871984784
C            2.39276468824279       -0.28114998490081        0.62228580960858
C            2.34504731877582       -1.51995648515123        1.30213889209513
C            3.48492861162855       -2.21248541430070        1.60751889476545
C            4.75331439763534       -1.72043902677455        1.23427253480280
C            5.91079354759324       -2.37981977091103        1.64081622202869
N            6.85889644443788       -2.93589155302034        2.00173676960289
C            4.80816009678398       -0.48963794633144        0.51702086340294
N            6.04855851990732        0.01189124381289        0.10319385499826
C            6.54748265272400        1.26294511489225        0.39622174022964
C            5.98177069784279        2.28183039476118        1.15268362866220
C            6.71237163130421        3.44575138588728        1.31258539138718
C            7.97510295866671        3.59174911100353        0.74462552096016
C            8.55384379198815        2.56812845130506        0.00912687171665
C            7.84024767522267        1.39446983500393       -0.16638001985743
C            8.11955072729672        0.14928561039677       -0.83767953092412
C            9.19434022735105       -0.32079132591179       -1.57267718173834
C            9.11871738977331       -1.59548790644103       -2.11406849938482
C            7.98405851932901       -2.38416085175243       -1.94481864859808
C            6.89686407094575       -1.93439867603827       -1.21818181466378
C            6.98209753941825       -0.67170152806657       -0.64419320077361
C            3.65219531229405        0.20916024778719        0.24807892388868
C            0.00079549650922       -0.21860827097438        0.00335881060871
C           -3.65143762681761        0.20566319127399       -0.24255882104457
C           -4.80639054447266       -0.49315251013011       -0.51570959729686
N           -6.04790646887305        0.00590213995589       -0.10246993760133
C           -6.98332759198970       -0.68193198752944        0.63870416945624
C           -6.89901933556342       -1.94720866127164        1.20715558983228
C           -7.98855693474874       -2.40144703243436        1.92749251417545
C           -9.12457045365323       -1.61463972864204        2.09629668338015
C           -9.19918754336784       -0.33729847118492        1.56101487192123
C           -8.12204234697514        0.13724770738202        0.83238634045377
C           -7.84140292534550        1.38595521286449        0.16825322491627
C           -8.55520601653131        2.56005675329900       -0.00334559335345
C           -7.97461427701227        3.58808835556576       -0.73120336395595
C           -6.71000458746569        3.44582046223953       -1.29590715384594
C           -5.97930960693618        2.28139734339452       -1.14006871508054
C           -6.54673085955010        1.25814567081225       -0.39080046980182
H           -3.42909239909389       -3.13965777263739       -2.16068262127181
H           -1.38581841221033       -1.90688713103863       -1.61919227785751
H           -2.06420618925867        2.41399711057228       -0.52198294510925
H           -0.00192615175684        3.62609207958234        0.01043538232909
H            2.06220420204868        2.41488343093845        0.53821178873523
H            1.39053299881886       -1.90982317517548        1.62117876554126
H            3.43579317220796       -3.14260945200115        2.15547597733986
H            5.01128815056024        2.16421968966750        1.60972225639260
H            6.29566912462241        4.25495382284223        1.89302344183544
H            8.51529367452030        4.51516978450118        0.88901546353932
H            9.54000535035926        2.68045549843840       -0.41383331042647
H           10.06975106336369        0.29195908767681       -1.72237332242011
H            9.94877498249648       -1.98205470483369       -2.68575798590769
H            7.94859913352671       -3.36570756251421       -2.39254724950535
H            6.01497039483264       -2.54571814993397       -1.10331390616882
H            3.72228605541303        1.12633217751384       -0.31771412540679
H            0.00161821655736       -1.29828860845257        0.00141261671824
H           -3.72317674365428        1.12067500034682        0.32650553675236
H           -6.01615324006378       -2.55721376378184        1.09277318808074
H           -7.95385116474146       -3.38510592559314        2.37061571908589
H           -9.95654247965513       -2.00483780665629        2.66271775888856
H          -10.07563008987842        0.27403042046765        1.71045798473711
H           -9.54280395738886        2.66948616761396        0.41701901037621
H           -8.51481857115219        4.51201532211706       -0.87224633173240
H           -6.29181541182119        4.25836983190873       -1.87057209410159
H           -5.00743661976494        2.16679254554882       -1.59489490106336

          :  Hamiltonian                  GFN2-xTB          :
         :: gradient norm              0.000069868576 Eh/a0 ::
         :: HOMO-LUMO gap              0.114583008846 eV    ::
         :: SCC energy              -121.434490938537 Eh    ::
         :: -> dispersion             -0.105681447548 Eh    ::
         :: -> Gsolv                  -0.059745502659 Eh    ::
         :: repulsion energy           2.305953139949 Eh    ::

    * Orbital Energies and Occupations

         #    Occupation            Energy/Eh            Energy/eV
      -------------------------------------------------------------
         1        2.0000           -0.6966052             -18.9556
       ...           ...                  ...                  ...
       100        2.0000           -0.4214205             -11.4674
       101        2.0000           -0.4213004             -11.4642
       102        2.0000           -0.4170093             -11.3474
       103        2.0000           -0.4153055             -11.3010
       104        2.0000           -0.4143061             -11.2738
       105        2.0000           -0.4136898             -11.2571
       106        2.0000           -0.3961128             -10.7788
       107        2.0000           -0.3961011             -10.7785
       108        2.0000           -0.3937799             -10.7153
       109        1.9987           -0.3855637             -10.4917
       110        1.6359           -0.3798038             -10.3350
       111        1.3655           -0.3787500             -10.3063
       112        0.9017           -0.2799081              -7.6167 (HOMO)
       113        0.0983           -0.2756973              -7.5021 (LUMO)
       114                         -0.2613357              -7.1113
       115                         -0.2612441              -7.1088
       116                         -0.2403413              -6.5400
       117                         -0.2403069              -6.5391
       118                         -0.2397515              -6.5240
       119                         -0.2390477              -6.5048
       120                         -0.2218591              -6.0371
       121                         -0.2206636              -6.0046
       122                         -0.2087196              -5.6795
       123                         -0.2082974              -5.6681
       ...                                ...                  ...
       218                          1.1557262              31.4489
      -------------------------------------------------------------
                  HL-Gap            0.0042108 Eh            0.1146 eV

     #   Z          covCN         q      C6AA      α(0)
     1   7 N        0.911    -0.331    28.501     7.721
     2   6 C        1.909     0.106    28.470     8.617
     3   6 C        2.968    -0.017    28.439     8.747
     4   6 C        2.919    -0.030    28.744     8.792
     5   6 C        2.918    -0.035    28.861     8.810
     6   6 C        2.973     0.001    27.995     8.679
     7   6 C        2.971     0.006    27.889     8.663
     8   6 C        2.922    -0.047    29.162     8.856
     9   6 C        2.912    -0.032    28.790     8.798
    10   6 C        2.922    -0.047    29.162     8.856
    11   6 C        2.971     0.006    27.890     8.663
    12   6 C        2.973     0.001    27.994     8.679
    13   6 C        2.918    -0.035    28.862     8.810
    14   6 C        2.919    -0.030    28.743     8.792
    15   6 C        2.968    -0.017    28.438     8.747
    16   6 C        1.909     0.106    28.469     8.617
    17   7 N        0.911    -0.330    28.498     7.721
    18   6 C        2.911     0.054    26.781     8.486
    19   7 N        2.803    -0.013    21.508     6.888
    20   6 C        3.074     0.050    26.814     8.490
    21   6 C        2.909    -0.039    28.967     8.825
    22   6 C        2.922    -0.029    28.730     8.790
    23   6 C        2.920    -0.029    28.729     8.790
    24   6 C        2.912    -0.026    28.657     8.778
    25   6 C        3.064    -0.009    28.174     8.704
    26   6 C        3.065    -0.009    28.183     8.705
    27   6 C        2.912    -0.026    28.661     8.779
    28   6 C        2.920    -0.028    28.701     8.785
    29   6 C        2.923    -0.028    28.697     8.785
    30   6 C        2.909    -0.034    28.853     8.808
    31   6 C        3.074     0.052    26.755     8.481
    32   6 C        2.922    -0.049    29.207     8.863
    33   6 C        2.929    -0.040    28.990     8.830
    34   6 C        2.922    -0.049    29.208     8.863
    35   6 C        2.911     0.054    26.781     8.486
    36   7 N        2.803    -0.013    21.507     6.888
    37   6 C        3.074     0.052    26.755     8.481
    38   6 C        2.909    -0.034    28.852     8.808
    39   6 C        2.923    -0.028    28.697     8.785
    40   6 C        2.920    -0.028    28.701     8.785
    41   6 C        2.912    -0.026    28.661     8.779
    42   6 C        3.065    -0.009    28.183     8.705
    43   6 C        3.064    -0.009    28.174     8.704
    44   6 C        2.912    -0.026    28.657     8.778
    45   6 C        2.920    -0.029    28.729     8.790
    46   6 C        2.922    -0.029    28.730     8.790
    47   6 C        2.909    -0.039    28.967     8.825
    48   6 C        3.074     0.049    26.814     8.490
    49   1 H        0.926     0.032     2.559     2.502
    50   1 H        0.926     0.041     2.440     2.443
    51   1 H        0.926     0.026     2.644     2.543
    52   1 H        0.925     0.027     2.627     2.534
    53   1 H        0.926     0.026     2.644     2.543
    54   1 H        0.926     0.041     2.440     2.443
    55   1 H        0.926     0.032     2.559     2.502
    56   1 H        0.926     0.044     2.400     2.423
    57   1 H        0.926     0.047     2.354     2.399
    58   1 H        0.926     0.048     2.341     2.393
    59   1 H        0.926     0.050     2.320     2.382
    60   1 H        0.926     0.051     2.302     2.372
    61   1 H        0.926     0.049     2.326     2.385
    62   1 H        0.926     0.046     2.365     2.405
    63   1 H        0.926     0.036     2.498     2.472
    64   1 H        0.926     0.044     2.392     2.419
    65   1 H        0.926     0.032     2.554     2.499
    66   1 H        0.926     0.044     2.392     2.419
    67   1 H        0.926     0.036     2.498     2.472
    68   1 H        0.926     0.046     2.365     2.405
    69   1 H        0.926     0.049     2.326     2.385
    70   1 H        0.926     0.051     2.301     2.372
    71   1 H        0.926     0.050     2.320     2.382
    72   1 H        0.926     0.048     2.341     2.393
    73   1 H        0.926     0.047     2.354     2.399
    74   1 H        0.926     0.044     2.399     2.422

molecular dipole:
                 x           y           z       tot (Debye)
 q only:       -0.006       3.112       0.007
   full:       -0.006       3.260       0.008       8.285

 projected vibrational frequencies (cm⁻¹)
eigval :       -0.00    -0.00    -0.00     0.00     0.00     0.00
eigval :       -5.45     4.66    15.91    24.16    28.69    38.11
eigval :       41.37    54.57    63.40    68.46    76.20    88.25
eigval :       93.37    98.36    99.12   122.17   125.37   138.73
eigval :      139.93   142.37   144.39   180.66   204.16   210.06
eigval :      220.67   239.08   241.17   265.11   265.82   270.04
eigval :      282.85   287.93   293.34   304.24   332.48   358.27
eigval :      369.31   371.25   386.42   388.85   407.76   408.33
eigval :      414.48   414.81   431.25   431.64   444.06   460.67
eigval :      462.03   503.56   510.99   511.68   512.62   524.69
eigval :      526.56   530.25   530.80   545.75   548.81   551.58
eigval :      578.80   583.29   583.45   597.59   604.32   618.54
eigval :      621.89   628.82   644.71   650.92   660.21   663.50
eigval :      670.82   671.27   692.64   706.67   708.34   711.80
eigval :      723.01   752.68   752.78   762.59   763.05   765.30
eigval :      771.85   772.83   796.33   812.01   813.89   839.34
eigval :      849.66   861.37   861.69   864.33   865.62   876.82
eigval :      877.82   878.22   894.65   894.85   899.25   899.43
eigval :      904.23   904.58   909.18   909.95   915.61   915.96
eigval :      916.39   918.72   920.21   926.20   968.66   971.76
eigval :     1008.72  1008.78  1056.69  1060.93  1064.86  1065.12
eigval :     1066.35  1067.28  1085.66  1087.39  1105.83  1131.97
eigval :     1133.09  1136.71  1143.58  1150.17  1169.09  1169.85
eigval :     1173.80  1173.94  1179.72  1183.01  1194.54  1221.83
eigval :     1223.27  1224.20  1224.22  1225.05  1230.54  1247.26
eigval :     1247.77  1269.94  1270.24  1278.35  1280.93  1281.68
eigval :     1298.98  1305.02  1321.21  1321.27  1323.52  1331.93
eigval :     1336.33  1350.07  1361.03  1364.22  1371.30  1379.80
eigval :     1401.43  1401.79  1407.25  1409.64  1413.03  1415.59
eigval :     1439.07  1442.57  1442.90  1451.46  1455.31  1456.79
eigval :     1474.43  1475.23  1475.76  1496.18  1552.67  1558.26
eigval :     1558.85  1566.39  1567.27  1571.50  1572.98  1574.85
eigval :     1593.62  1596.90  2222.97  2282.48  3063.36  3076.38
eigval :     3076.45  3083.71  3084.62  3084.65  3084.90  3084.91
eigval :     3086.66  3087.75  3088.99  3089.02  3089.72  3089.92
eigval :     3091.00  3094.15  3094.37  3095.30  3095.65  3095.74
eigval :     3097.00  3097.13  3101.76  3101.81  3102.44  3103.28

   temp. (K)  partition function   enthalpy   heat capacity  entropy
                                   cal/mol     cal/K/mol   cal/K/mol   J/K/mol
 298.15  VIB  0.686E+18            22246.414    140.659    139.716
         ROT  0.531E+08              888.752      2.981     38.330
         INT  0.364E+26            23135.166    143.640    178.046
         TR   0.146E+29             1481.254      4.968     45.091
         TOT                       24616.4199   148.6080   223.1371   933.6055

       T/K    H(0)-H(T)+PV         H(T)/Eh          T*S/Eh         G(T)/Eh
   ------------------------------------------------------------------------
    298.15    0.392288E-01    0.587835E+00    0.106020E+00    0.481816E+00
   ------------------------------------------------------------------------

         :::::::::::::::::::::::::::::::::::::::::::::::::::::
         ::                  THERMODYNAMIC                  ::
         :::::::::::::::::::::::::::::::::::::::::::::::::::::
         :: total free energy        -118.646722190817 Eh   ::
         ::.................................................::
         :: total energy             -119.128537793746 Eh   ::
         :: zero point energy           0.548606464596 Eh   ::
         :: G(RRHO) w/o ZPVE           -0.066790861668 Eh   ::
         :: G(RRHO) contrib.            0.481815602928 Eh   ::
         :::::::::::::::::::::::::::::::::::::::::::::::::::::

           -------------------------------------------------
          | TOTAL ENERGY             -119.128537793746 Eh   |
          | TOTAL ENTHALPY           -118.540702567068 Eh   |
          | TOTAL FREE ENERGY        -118.646722190817 Eh   |
          | GRADIENT NORM               0.000071488176 Eh/α |
          | HOMO-LUMO GAP               0.114582850501 eV   |
           -------------------------------------------------

 * finished run on 2025/08/24 at 06:29:20.816
