   * xtb version 6.7.1 (edcfbbe) compiled by 'albert@albert-system' on 2024-07-22

   ID    Z sym.   atoms
    1    7 N      1, 17, 19, 36
    2    6 C      2-16, 18, 20-35, 37-48
    3    1 H      49-74

          program call               : xtb data2507/toluene/DCzBNPh-1/DCzBNPh-1.xyz --gfn 2 --gbsa toluene --ohess vtight --parallel 40 --molden --ceasefiles --namespace data2507/toluene/DCzBNPh-1/DCzBNPh-1_toluene_S0_preOpt
      * Solvation model:               GBSA
        Solvent                        toluene
        Solvent mass                       9.2140E+01 g/mol
          :  Hamiltonian                  GFN2-xTB          :
 * total energy  :  -119.1998450 Eh     change       -0.4857270E-09 Eh
 * total energy  :  -119.2142121 Eh     change       -0.1436718E-01 Eh
 * total energy  :  -119.2155364 Eh     change       -0.1324230E-02 Eh
 * total energy  :  -119.2173507 Eh     change       -0.1814367E-02 Eh
 * total energy  :  -119.2181839 Eh     change       -0.8331441E-03 Eh
 * total energy  :  -119.2184723 Eh     change       -0.2884421E-03 Eh
 * total energy  :  -119.2187072 Eh     change       -0.2348756E-03 Eh
 * total energy  :  -119.2188054 Eh     change       -0.9819573E-04 Eh
 * total energy  :  -119.2188721 Eh     change       -0.6667830E-04 Eh
 * total energy  :  -119.2189311 Eh     change       -0.5900395E-04 Eh
 * total energy  :  -119.2198885 Eh     change       -0.7328650E-06 Eh
 * total energy  :  -119.2198892 Eh     change       -0.7290074E-06 Eh
 * total energy  :  -119.2198900 Eh     change       -0.7251759E-06 Eh
 * total energy  :  -119.2198907 Eh     change       -0.7212466E-06 Eh
 * total energy  :  -119.2198914 Eh     change       -0.7172372E-06 Eh
 * total energy  :  -119.2198921 Eh     change       -0.7133037E-06 Eh
 * total energy  :  -119.2198928 Eh     change       -0.7089859E-06 Eh
 * total energy  :  -119.2198935 Eh     change       -0.7049252E-06 Eh
 * total energy  :  -119.2198935 Eh     change       -0.7039901E-08 Eh
   *** GEOMETRY OPTIMIZATION CONVERGED AFTER 260 ITERATIONS ***

 final structure:
================
74
 xtb: 6.7.1 (edcfbbe)
N           -6.64712601231141       -2.89912446555370       -2.58806550450355
C           -5.74857032792384       -2.34915482539199       -2.13116665797303
C           -4.61582612243040       -1.67212895695631       -1.63292705665261
C           -3.34521793499256       -2.07426116670494       -2.05321368885099
C           -2.22538247463936       -1.38385267834018       -1.64444723368442
C           -2.34297897672479       -0.26689401082979       -0.81343853927689
C           -1.14680381904614        0.47552392284827       -0.38810766725749
C           -1.14045819534339        1.86897290077540       -0.37448705236828
C            0.00002386419701        2.55612385658682        0.00001911229981
C            1.14050057243581        1.86895986253255        0.37451711808115
C            1.14683721339035        0.47551057122671        0.38811714954992
C            2.34300322153440       -0.26691379967560        0.81346264340315
C            2.22538991105551       -1.38386765640883        1.64447552404204
C            3.34521936567114       -2.07425822592028        2.05328818591906
C            4.61583747678615       -1.67211800152313        1.63303851698326
C            5.74857199798891       -2.34911017001050        2.13134624061002
N            6.64711911247701       -2.89903843910216        2.58831133757831
C            4.74571700016446       -0.56658975207472        0.77362366264699
N            6.00197639735894       -0.16725809610959        0.31198058797598
C            6.53353276205639        1.10599534883298        0.41927588079524
C            5.99725273732470        2.23763524388901        1.01494774051022
C            6.75834665425892        3.39183706818474        1.00742935475987
C            8.02652746791518        3.42148342201589        0.43190771802993
C            8.57410450813032        2.29023192860909       -0.14114274339473
C            7.82772684057514        1.11889563134468       -0.14687866346646
C            8.07903129678743       -0.21280159394589       -0.62705810638755
C            9.14758522219556       -0.80359240660766       -1.28883984481485
C            9.05036141332674       -2.13397330742621       -1.64623087869451
C            7.89983526441464       -2.86836489864556       -1.36886656857931
C            6.82358588323078       -2.30190815508627       -0.71221576615959
C            6.92986359611397       -0.97568438818789       -0.32201238124956
C            3.60679946605411        0.12788405972201        0.38658640629619
C            0.00001523375231       -0.20901531224931       -0.00000205143250
C           -3.60676721621663        0.12790644415640       -0.38653925014730
C           -4.74568987846393       -0.56657931635415       -0.77353772456587
N           -6.00194523388645       -0.16723061997478       -0.31189490162013
C           -6.92984084816682       -0.97563397803896        0.32211271957547
C           -6.82354064396294       -2.30182377146286        0.71242514911091
C           -7.89980278203217       -2.86826036904343        1.36907209824417
C           -9.05036360422425       -2.13388074048778        1.64632475941003
C           -9.14761372724525       -0.80353267592566        1.28881863588605
C           -8.07904683108783       -0.21276170391441        0.62704008422911
C           -7.82776031866042        1.11890306952607        0.14676085753073
C           -8.57417870682027        2.29021266290828        0.14087598738505
C           -8.02660775038338        3.42143248413372       -0.43224291696585
C           -6.75838940217712        3.39178171289374       -1.00768157654863
C           -5.99725506252991        2.23760572993211       -1.01505393282570
C           -6.53353539171773        1.10599720761087       -0.41932326847303
H           -3.25739803455371       -2.92622383151715       -2.71142989119606
H           -1.25159119561273       -1.69458800921250       -1.98983798820431
H           -2.02076477192419        2.41351461723032       -0.68080854112080
H            0.00002741738109        3.63606563163431        0.00002769268502
H            2.02080978362937        2.41349055065801        0.68085061687054
H            1.25159022965720       -1.69461036682580        1.98983572008052
H            3.25738696525329       -2.92621216364164        2.71151405517037
H            5.02383071003672        2.21807518259379        1.48144859355635
H            6.36271515329052        4.28862898931911        1.46139386046435
H            8.59024867102383        4.34259068099997        0.44410392470191
H            9.56358178232463        2.30979538812578       -0.57238315864400
H           10.03210451111540       -0.22973278989252       -1.52087090541397
H            9.87178223377309       -2.61399282462855       -2.15728366502329
H            7.84447376108816       -3.90255287430072       -1.67533320017319
H            5.93310872472202       -2.88073053880214       -0.51570146327542
H            3.71316264966666        0.96481331961741       -0.28716678570172
H            0.00001183172380       -1.28872007059684       -0.00001065979402
H           -3.71311877703736        0.96484756929373        0.28720108942142
H           -5.93303650653925       -2.88063324628511        0.51599424413977
H           -7.84442523743406       -3.90242266838547        1.67562278457313
H           -9.87179350091087       -2.61388420363954        2.15737808391460
H          -10.03216338743156       -0.22968317747539        1.52075909253643
H           -9.56368280848888        2.30977941096726        0.57205463794829
H           -8.59036208970477        4.34251795273753       -0.44455713781489
H           -6.36275990956985        4.28854889416345       -1.46169673436313
H           -5.02380242370565        2.21803993210759       -1.48149076030272

          :  Hamiltonian                  GFN2-xTB          :
         :: gradient norm              0.000068460715 Eh/a0 ::
         :: HOMO-LUMO gap              2.226998829094 eV    ::
         :: SCC energy              -121.549836471230 Eh    ::
         :: -> dispersion             -0.105546284300 Eh    ::
         :: -> Gsolv                  -0.057483322420 Eh    ::
         :: repulsion energy           2.329942947411 Eh    ::

    * Orbital Energies and Occupations

         #    Occupation            Energy/Eh            Energy/eV
      -------------------------------------------------------------
         1        2.0000           -0.6875030             -18.7079
       ...           ...                  ...                  ...
        99        2.0000           -0.4267681             -11.6130
       100        2.0000           -0.4237905             -11.5319
       101        2.0000           -0.4236913             -11.5292
       102        2.0000           -0.4231770             -11.5152
       103        2.0000           -0.4228600             -11.5066
       104        2.0000           -0.4108534             -11.1799
       105        2.0000           -0.4103275             -11.1656
       106        2.0000           -0.4102619             -11.1638
       107        2.0000           -0.4042173             -10.9993
       108        2.0000           -0.3838155             -10.4442
       109        2.0000           -0.3838151             -10.4441
       110        2.0000           -0.3711474             -10.0994
       111        2.0000           -0.3710849             -10.0977 (HOMO)
       112                         -0.2892442              -7.8707 (LUMO)
       113                         -0.2853228              -7.7640
       114                         -0.2543161              -6.9203
       115                         -0.2542069              -6.9173
       116                         -0.2477333              -6.7412
       117                         -0.2477200              -6.7408
       118                         -0.2363337              -6.4310
       119                         -0.2356989              -6.4137
       120                         -0.2271625              -6.1814
       121                         -0.2271576              -6.1813
       122                         -0.2173694              -5.9149
       ...                                ...                  ...
       218                          1.1543645              31.4119
      -------------------------------------------------------------
                  HL-Gap            0.0818407 Eh            2.2270 eV

     #   Z          covCN         q      C6AA      α(0)
     1   7 N        0.911    -0.276    27.129     7.533
     2   6 C        1.911     0.124    28.063     8.555
     3   6 C        2.974    -0.002    28.063     8.690
     4   6 C        2.926    -0.019    28.489     8.753
     5   6 C        2.922    -0.034    28.857     8.809
     6   6 C        2.976     0.024    27.458     8.595
     7   6 C        2.976     0.013    27.716     8.636
     8   6 C        2.924    -0.030    28.761     8.795
     9   6 C        2.917    -0.026    28.663     8.779
    10   6 C        2.924    -0.030    28.761     8.795
    11   6 C        2.976     0.013    27.716     8.636
    12   6 C        2.976     0.024    27.458     8.595
    13   6 C        2.922    -0.034    28.857     8.809
    14   6 C        2.926    -0.019    28.489     8.753
    15   6 C        2.974    -0.002    28.063     8.690
    16   6 C        1.911     0.124    28.063     8.555
    17   7 N        0.911    -0.276    27.129     7.533
    18   6 C        2.913     0.074    26.354     8.418
    19   7 N        2.802    -0.051    22.233     7.003
    20   6 C        3.071     0.047    26.867     8.499
    21   6 C        2.910    -0.052    29.284     8.873
    22   6 C        2.924    -0.034    28.840     8.807
    23   6 C        2.920    -0.041    29.008     8.832
    24   6 C        2.913    -0.033    28.826     8.804
    25   6 C        3.066    -0.016    28.343     8.730
    26   6 C        3.067    -0.017    28.357     8.732
    27   6 C        2.913    -0.034    28.835     8.805
    28   6 C        2.920    -0.040    28.994     8.830
    29   6 C        2.924    -0.033    28.814     8.803
    30   6 C        2.910    -0.048    29.195     8.860
    31   6 C        3.070     0.049    26.836     8.494
    32   6 C        2.926    -0.046    29.133     8.852
    33   6 C        2.930    -0.036    28.893     8.815
    34   6 C        2.926    -0.046    29.133     8.852
    35   6 C        2.913     0.074    26.354     8.418
    36   7 N        2.802    -0.051    22.233     7.003
    37   6 C        3.070     0.049    26.836     8.494
    38   6 C        2.910    -0.048    29.195     8.860
    39   6 C        2.924    -0.033    28.814     8.803
    40   6 C        2.920    -0.040    28.994     8.830
    41   6 C        2.913    -0.034    28.835     8.805
    42   6 C        3.067    -0.017    28.357     8.732
    43   6 C        3.066    -0.016    28.343     8.730
    44   6 C        2.913    -0.033    28.826     8.804
    45   6 C        2.920    -0.041    29.008     8.832
    46   6 C        2.924    -0.034    28.840     8.807
    47   6 C        2.910    -0.052    29.284     8.873
    48   6 C        3.071     0.047    26.867     8.499
    49   1 H        0.926     0.049     2.335     2.390
    50   1 H        0.926     0.056     2.244     2.343
    51   1 H        0.926     0.042     2.417     2.431
    52   1 H        0.926     0.044     2.400     2.423
    53   1 H        0.926     0.042     2.417     2.431
    54   1 H        0.926     0.056     2.244     2.343
    55   1 H        0.926     0.049     2.335     2.390
    56   1 H        0.926     0.030     2.581     2.512
    57   1 H        0.926     0.035     2.520     2.482
    58   1 H        0.926     0.033     2.551     2.498
    59   1 H        0.926     0.035     2.523     2.484
    60   1 H        0.926     0.036     2.504     2.474
    61   1 H        0.926     0.033     2.537     2.491
    62   1 H        0.926     0.033     2.538     2.491
    63   1 H        0.926     0.021     2.715     2.577
    64   1 H        0.926     0.057     2.235     2.338
    65   1 H        0.926     0.046     2.369     2.407
    66   1 H        0.926     0.057     2.235     2.338
    67   1 H        0.926     0.021     2.715     2.577
    68   1 H        0.926     0.033     2.538     2.491
    69   1 H        0.926     0.033     2.537     2.491
    70   1 H        0.926     0.036     2.504     2.474
    71   1 H        0.926     0.035     2.523     2.484
    72   1 H        0.926     0.033     2.551     2.498
    73   1 H        0.926     0.035     2.520     2.482
    74   1 H        0.926     0.030     2.581     2.512

molecular dipole:
                 x           y           z       tot (Debye)
 q only:        0.000       1.718      -0.000
   full:        0.000       1.922      -0.000       4.885

 projected vibrational frequencies (cm⁻¹)
eigval :       -0.00    -0.00     0.00     0.00     0.00     0.00
eigval :        8.85    13.51    14.12    24.79    29.45    41.03
eigval :       42.63    56.41    64.79    69.41    72.71    89.51
eigval :       95.57   103.49   103.89   125.68   126.07   143.60
eigval :      145.81   150.72   151.35   181.71   207.45   214.72
eigval :      223.04   241.20   247.09   268.76   270.86   270.98
eigval :      279.86   288.37   295.03   305.81   329.76   354.83
eigval :      372.06   373.32   396.57   396.82   417.30   421.44
eigval :      421.95   426.42   435.67   435.90   456.61   489.92
eigval :      504.18   516.16   518.41   519.23   521.35   536.07
eigval :      540.79   540.83   543.78   546.36   554.12   555.15
eigval :      583.81   586.27   592.34   603.26   615.81   626.69
eigval :      634.89   648.21   655.04   671.81   673.05   673.44
eigval :      694.00   695.19   702.66   706.39   709.75   716.41
eigval :      729.60   754.98   755.03   769.03   769.06   780.57
eigval :      780.86   792.69   806.92   829.09   832.26   861.59
eigval :      867.74   867.76   871.25   871.27   886.26   888.27
eigval :      890.45   896.17   897.70   900.54   902.83   904.00
eigval :      904.16   906.70   915.73   915.89   921.08   921.24
eigval :      925.43   925.44   931.39   933.60   980.06   989.71
eigval :     1011.40  1011.91  1068.00  1068.07  1074.14  1074.16
eigval :     1081.39  1086.97  1093.70  1101.20  1131.19  1144.35
eigval :     1145.00  1150.86  1151.13  1173.12  1175.89  1180.39
eigval :     1181.20  1185.24  1188.43  1190.43  1214.04  1221.08
eigval :     1228.64  1233.53  1235.22  1236.97  1240.55  1241.67
eigval :     1256.40  1274.74  1293.32  1297.41  1298.66  1298.68
eigval :     1307.01  1308.48  1312.45  1315.64  1346.57  1348.39
eigval :     1356.51  1356.56  1360.40  1360.65  1392.07  1406.92
eigval :     1420.99  1426.82  1426.88  1434.86  1448.93  1451.79
eigval :     1468.90  1472.80  1476.77  1484.43  1485.95  1485.98
eigval :     1533.70  1533.93  1570.17  1572.09  1574.71  1575.70
eigval :     1579.77  1588.70  1589.36  1589.39  1598.42  1598.43
eigval :     1612.07  1612.08  2355.95  2356.47  3072.76  3072.78
eigval :     3073.54  3073.55  3078.68  3078.68  3079.47  3079.49
eigval :     3080.38  3084.84  3084.85  3085.62  3085.83  3086.30
eigval :     3086.31  3088.56  3089.66  3093.34  3093.35  3095.78
eigval :     3095.86  3096.02  3096.70  3097.56  3102.81  3103.18

   temp. (K)  partition function   enthalpy   heat capacity  entropy
                                   cal/mol     cal/K/mol   cal/K/mol   J/K/mol
 298.15  VIB  0.837E+17            21884.281    138.758    136.113
         ROT  0.530E+08              888.752      2.981     38.326
         INT  0.444E+25            22773.034    141.739    174.438
         TR   0.146E+29             1481.254      4.968     45.091
         TOT                       24254.2875   146.7073   219.5296   918.5119

       T/K    H(0)-H(T)+PV         H(T)/Eh          T*S/Eh         G(T)/Eh
   ------------------------------------------------------------------------
    298.15    0.386517E-01    0.592591E+00    0.104306E+00    0.488285E+00
   ------------------------------------------------------------------------

         :::::::::::::::::::::::::::::::::::::::::::::::::::::
         ::                  THERMODYNAMIC                  ::
         :::::::::::::::::::::::::::::::::::::::::::::::::::::
         :: total free energy        -118.731608166559 Eh   ::
         ::.................................................::
         :: total energy             -119.219893520533 Eh   ::
         :: zero point energy           0.553939285340 Eh   ::
         :: G(RRHO) w/o ZPVE           -0.065653931366 Eh   ::
         :: G(RRHO) contrib.            0.488285353974 Eh   ::
         :::::::::::::::::::::::::::::::::::::::::::::::::::::

           -------------------------------------------------
          | TOTAL ENERGY             -119.219893520533 Eh   |
          | TOTAL ENTHALPY           -118.627302567749 Eh   |
          | TOTAL FREE ENERGY        -118.731608166559 Eh   |
          | GRADIENT NORM               0.000068460194 Eh/α |
          | HOMO-LUMO GAP               2.226998765292 eV   |
           -------------------------------------------------

 * finished run on 2025/08/24 at 06:25:28.657
