   * xtb version 6.7.1 (edcfbbe) compiled by 'albert@albert-system' on 2024-07-22

   ID    Z sym.   atoms
    1    7 N      1, 17, 19, 36
    2    6 C      2-16, 18, 20-35, 37-48
    3    1 H      49-74

          program call               : xtb data2507/toluene/DCzBNPh-1/DCzBNPh-1_toluene_S0_crest.xyz --gfn 2 --gbsa toluene --ohess vtight --parallel 40 --molden --ceasefiles --namespace data2507/toluene/DCzBNPh-1/DCzBNPh-1_toluene_S0_finalOpt
      * Solvation model:               GBSA
        Solvent                        toluene
        Solvent mass                       9.2140E+01 g/mol
          :  Hamiltonian                  GFN2-xTB          :
 * total energy  :  -119.2197152 Eh     change       -0.1219775E-08 Eh
 * total energy  :  -119.2197689 Eh     change       -0.5371522E-04 Eh
 * total energy  :  -119.2197891 Eh     change       -0.2026734E-04 Eh
 * total energy  :  -119.2198055 Eh     change       -0.1635289E-04 Eh
 * total energy  :  -119.2198204 Eh     change       -0.1492597E-04 Eh
 * total energy  :  -119.2198296 Eh     change       -0.9189963E-05 Eh
 * total energy  :  -119.2198394 Eh     change       -0.9774288E-05 Eh
 * total energy  :  -119.2198481 Eh     change       -0.8677757E-05 Eh
 * total energy  :  -119.2198598 Eh     change       -0.1171931E-04 Eh
 * total energy  :  -119.2198682 Eh     change       -0.8394611E-05 Eh
 * total energy  :  -119.2199253 Eh     change       -0.5027816E-06 Eh
 * total energy  :  -119.2199257 Eh     change       -0.3581357E-06 Eh
 * total energy  :  -119.2199260 Eh     change       -0.3216853E-06 Eh
 * total energy  :  -119.2199264 Eh     change       -0.3442694E-06 Eh
 * total energy  :  -119.2199268 Eh     change       -0.4496753E-06 Eh
 * total energy  :  -119.2199274 Eh     change       -0.6036147E-06 Eh
 * total energy  :  -119.2199282 Eh     change       -0.7529810E-06 Eh
 * total energy  :  -119.2199289 Eh     change       -0.7745159E-06 Eh
 * total energy  :  -119.2199289 Eh     change       -0.1284789E-08 Eh
   *** GEOMETRY OPTIMIZATION CONVERGED AFTER 44 ITERATIONS ***

 final structure:
================
74
 xtb: 6.7.1 (edcfbbe)
N           -6.75274554584552       -2.80408166034911       -2.31806504679412
C           -5.83607488956132       -2.25223163093498       -1.90112867561694
C           -4.68353403605473       -1.57550851251423       -1.45035961187506
C           -3.42875766233425       -1.99884733701250       -1.89673203584887
C           -2.29149664668804       -1.31078989582480       -1.53481774208370
C           -2.37434317305019       -0.17717333986641       -0.72225477175522
C           -1.16120586266367        0.56303495265992       -0.34453856979431
C           -1.15324917404725        1.95669266524199       -0.33045586737027
C           -0.00026208401422        2.64302015567014        0.00478620721948
C            1.15273228888919        1.95523306989627        0.33694044056974
C            1.16082238403233        0.56150717003544        0.34460839887980
C            2.37426208625977       -0.17995199213538        0.71886682123842
C            2.29223430441285       -1.31770418466315        1.52570839886815
C            3.43011549275081       -2.00603857191224        1.88517342953274
C            4.68474379599549       -1.57882159396120        1.44210363669378
C            5.83797637974282       -2.25573695992191        1.89092398221851
N            6.75544815908323       -2.80758458089885        2.30593295029255
C            4.77909750398073       -0.44936930567447        0.60974152616744
N            6.01836644954630       -0.01489102873512        0.13356201427321
C            6.53128520770400        1.26243202567810        0.27788242137981
C            5.98684989393507        2.36304201186745        0.92236455734360
C            6.72940587764686        3.52901865546508        0.94490257314821
C            7.98733206027122        3.60012238199686        0.35075618256551
C            8.54315846826677        2.49939177507657       -0.27169588406584
C            7.81542138592230        1.31689719197979       -0.30828925363581
C            8.07955656393178        0.00758887188251       -0.84028303535712
C            9.14647064256788       -0.54171350855320       -1.53936578149063
C            9.06475477522926       -1.86018807322925       -1.94189770438979
C            7.93135832528728       -2.62327694587019       -1.67137589746346
C            6.85706451539495       -2.09833096790038       -0.97796626086974
C            6.94807603167894       -0.78471618779466       -0.54377609428171
C            3.62220084536157        0.23883614983017        0.26817447619941
C           -0.00018693548421       -0.12197330081811       -0.00147692448239
C           -3.62245652706673        0.23811277146965       -0.26884079758215
C           -4.77871375941465       -0.45004888683497       -0.61272402156088
N           -6.01821701811818       -0.01971785487820       -0.13337719370844
C           -6.94585833551612       -0.79412910384352        0.54156142141624
C           -6.85222073578566       -2.10958213617754        0.96957610944259
C           -7.92488055674546       -2.63947399655075        1.66175434549704
C           -9.05923506756675       -1.87950568933566        1.93701722817074
C           -9.14352921182520       -0.55931188520028        1.54070106231812
C           -8.07828537302753       -0.00503564109488        0.84298998715678
C           -7.81690489149215        1.30710940366852        0.31663460030507
C           -8.54657136269010        2.48859094369931        0.28627290941897
C           -7.99339498060623        3.59290525894598       -0.33218276124223
C           -6.73618616562676        3.52644243370272       -0.92838929465182
C           -5.99167074968804        2.36161177432028       -0.91188145653788
C           -6.53343667115280        1.25735226099608       -0.27141184090635
H           -3.36711083306749       -2.86507745860470       -2.53913215033005
H           -1.33150386311934       -1.63734966797703       -1.90327641411784
H           -2.04299249227511        2.50260017673429       -0.60524567730969
H           -0.00029997198187        3.72296704056701        0.00730872346569
H            2.04241305722582        2.49996940898853        0.61423238841120
H            1.33240348148546       -1.64737544118406        1.89180398953628
H            3.36903795208216       -2.87544784622733        2.52331860413807
H            5.02168032784661        2.31068905215610        1.40333993319521
H            6.32725089913458        4.40220108043563        1.43751234360519
H            8.53671929523511        4.52921402379214        0.38766403788497
H            9.52500691295247        2.55084266404168       -0.71748017865648
H           10.01763301587300        0.05461174989248       -1.76522352291185
H            9.88508446367053       -2.30811672571701       -2.48295096744856
H            7.88802137199270       -3.64712257973591       -2.01256202991914
H            5.97992238962591       -2.69869434257237       -0.78615781698689
H            3.70222590755920        1.09247813173177       -0.38793089879477
H           -0.00019658498039       -1.20155666871693       -0.00395473854895
H           -3.70301532458565        1.08859896691958        0.39129252138669
H           -5.97433236652674       -2.70763913833519        0.77399286086725
H           -7.87951298765791       -3.66486051120306        1.99801814114196
H           -9.87826853684870       -2.33128146807980        2.47684739681492
H          -10.01541131721007        0.03454774804366        1.77025190580029
H           -9.52787327975839        2.53652026708232        0.73365349092505
H           -8.54435624121798        4.52124256109737       -0.36431267783883
H           -6.33618651633783        4.40238532299422       -1.41784660908361
H           -5.02704851313834        2.31285238688706       -1.39433656807550

          :  Hamiltonian                  GFN2-xTB          :
         :: gradient norm              0.000167521505 Eh/a0 ::
         :: HOMO-LUMO gap              2.217028912187 eV    ::
         :: SCC energy              -121.549818596156 Eh    ::
         :: -> dispersion             -0.105586968439 Eh    ::
         :: -> Gsolv                  -0.057475877370 Eh    ::
         :: repulsion energy           2.329889653262 Eh    ::

    * Orbital Energies and Occupations

         #    Occupation            Energy/Eh            Energy/eV
      -------------------------------------------------------------
         1        2.0000           -0.6874828             -18.7074
       ...           ...                  ...                  ...
        99        2.0000           -0.4267633             -11.6128
       100        2.0000           -0.4237694             -11.5314
       101        2.0000           -0.4236795             -11.5289
       102        2.0000           -0.4231442             -11.5143
       103        2.0000           -0.4228390             -11.5060
       104        2.0000           -0.4107579             -11.1773
       105        2.0000           -0.4102880             -11.1645
       106        2.0000           -0.4102096             -11.1624
       107        2.0000           -0.4040484             -10.9947
       108        2.0000           -0.3837657             -10.4428
       109        2.0000           -0.3837655             -10.4428
       110        2.0000           -0.3711083             -10.0984
       111        2.0000           -0.3710430             -10.0966 (HOMO)
       112                         -0.2895687              -7.8796 (LUMO)
       113                         -0.2855764              -7.7709
       114                         -0.2542846              -6.9194
       115                         -0.2541530              -6.9159
       116                         -0.2477267              -6.7410
       117                         -0.2477113              -6.7406
       118                         -0.2363503              -6.4314
       119                         -0.2356926              -6.4135
       120                         -0.2271201              -6.1803
       121                         -0.2271149              -6.1801
       122                         -0.2174237              -5.9164
       ...                                ...                  ...
       218                          1.1546794              31.4204
      -------------------------------------------------------------
                  HL-Gap            0.0814743 Eh            2.2170 eV

     #   Z          covCN         q      C6AA      α(0)
     1   7 N        0.911    -0.276    27.126     7.533
     2   6 C        1.911     0.124    28.063     8.555
     3   6 C        2.973    -0.002    28.062     8.689
     4   6 C        2.926    -0.019    28.489     8.753
     5   6 C        2.922    -0.034    28.857     8.809
     6   6 C        2.975     0.024    27.459     8.595
     7   6 C        2.976     0.013    27.717     8.636
     8   6 C        2.924    -0.030    28.760     8.795
     9   6 C        2.916    -0.026    28.664     8.779
    10   6 C        2.924    -0.030    28.761     8.795
    11   6 C        2.976     0.013    27.717     8.636
    12   6 C        2.975     0.024    27.459     8.595
    13   6 C        2.922    -0.034    28.857     8.809
    14   6 C        2.925    -0.019    28.489     8.753
    15   6 C        2.973    -0.002    28.063     8.689
    16   6 C        1.911     0.124    28.063     8.555
    17   7 N        0.911    -0.276    27.126     7.533
    18   6 C        2.913     0.074    26.354     8.418
    19   7 N        2.802    -0.052    22.237     7.004
    20   6 C        3.071     0.047    26.867     8.499
    21   6 C        2.910    -0.052    29.285     8.874
    22   6 C        2.924    -0.034    28.840     8.807
    23   6 C        2.920    -0.041    29.009     8.832
    24   6 C        2.913    -0.033    28.826     8.804
    25   6 C        3.066    -0.016    28.344     8.730
    26   6 C        3.067    -0.017    28.358     8.732
    27   6 C        2.913    -0.034    28.835     8.805
    28   6 C        2.920    -0.040    28.995     8.830
    29   6 C        2.924    -0.033    28.813     8.803
    30   6 C        2.910    -0.048    29.195     8.860
    31   6 C        3.070     0.049    26.836     8.494
    32   6 C        2.927    -0.046    29.133     8.852
    33   6 C        2.930    -0.036    28.893     8.815
    34   6 C        2.927    -0.046    29.132     8.851
    35   6 C        2.913     0.074    26.354     8.418
    36   7 N        2.802    -0.052    22.237     7.004
    37   6 C        3.070     0.049    26.836     8.494
    38   6 C        2.910    -0.048    29.195     8.860
    39   6 C        2.924    -0.033    28.813     8.803
    40   6 C        2.920    -0.040    28.995     8.830
    41   6 C        2.913    -0.034    28.835     8.805
    42   6 C        3.067    -0.017    28.358     8.732
    43   6 C        3.066    -0.016    28.344     8.730
    44   6 C        2.913    -0.033    28.826     8.804
    45   6 C        2.920    -0.041    29.009     8.832
    46   6 C        2.924    -0.034    28.840     8.807
    47   6 C        2.910    -0.052    29.285     8.874
    48   6 C        3.071     0.047    26.867     8.499
    49   1 H        0.926     0.049     2.335     2.390
    50   1 H        0.926     0.056     2.242     2.341
    51   1 H        0.926     0.043     2.414     2.430
    52   1 H        0.926     0.044     2.400     2.423
    53   1 H        0.926     0.043     2.414     2.430
    54   1 H        0.926     0.056     2.242     2.342
    55   1 H        0.926     0.049     2.335     2.390
    56   1 H        0.926     0.030     2.582     2.513
    57   1 H        0.926     0.035     2.520     2.483
    58   1 H        0.926     0.032     2.551     2.498
    59   1 H        0.926     0.034     2.524     2.484
    60   1 H        0.926     0.036     2.505     2.475
    61   1 H        0.926     0.033     2.538     2.491
    62   1 H        0.926     0.033     2.538     2.491
    63   1 H        0.926     0.021     2.716     2.577
    64   1 H        0.926     0.057     2.234     2.337
    65   1 H        0.926     0.047     2.363     2.404
    66   1 H        0.926     0.057     2.234     2.337
    67   1 H        0.926     0.021     2.716     2.577
    68   1 H        0.926     0.033     2.538     2.491
    69   1 H        0.926     0.033     2.538     2.491
    70   1 H        0.926     0.036     2.505     2.475
    71   1 H        0.926     0.034     2.524     2.484
    72   1 H        0.926     0.032     2.551     2.498
    73   1 H        0.926     0.035     2.520     2.483
    74   1 H        0.926     0.030     2.582     2.513

molecular dipole:
                 x           y           z       tot (Debye)
 q only:       -0.001       1.704       0.003
   full:       -0.001       1.904       0.003       4.840

 projected vibrational frequencies (cm⁻¹)
eigval :       -0.00    -0.00    -0.00     0.00     0.00     0.00
eigval :        9.75    12.33    15.88    25.72    29.60    39.39
eigval :       41.92    55.11    63.76    69.33    72.50    88.49
eigval :       95.07   103.55   104.01   125.84   126.80   144.38
eigval :      145.83   148.93   150.29   181.93   207.39   215.01
eigval :      223.28   240.65   246.86   269.78   271.31   271.89
eigval :      281.19   288.44   294.23   305.54   330.85   356.20
eigval :      372.88   375.15   396.96   397.95   417.44   421.99
eigval :      422.36   427.08   435.33   435.54   457.02   489.47
eigval :      504.08   516.19   517.99   518.95   521.24   536.04
eigval :      541.13   541.56   542.69   546.15   554.66   555.61
eigval :      583.87   586.39   592.07   602.90   615.64   626.36
eigval :      634.52   648.57   655.27   672.24   672.97   673.97
eigval :      693.96   695.14   702.35   706.36   709.78   716.01
eigval :      729.58   755.19   755.25   766.58   766.59   778.57
eigval :      778.88   794.17   806.98   834.30   836.63   861.58
eigval :      867.50   867.59   869.90   870.14   888.41   889.38
eigval :      892.06   896.72   898.35   899.77   899.94   902.72
eigval :      904.73   909.29   918.06   918.13   920.91   921.49
eigval :      922.88   923.07   932.72   933.65   980.23   989.60
eigval :     1011.42  1011.94  1069.66  1069.89  1073.08  1073.14
eigval :     1081.23  1086.41  1093.73  1100.90  1131.64  1144.33
eigval :     1144.93  1151.46  1151.57  1171.89  1174.17  1179.21
eigval :     1179.53  1183.05  1187.72  1190.55  1214.95  1221.87
eigval :     1228.76  1234.42  1235.47  1236.56  1241.03  1241.98
eigval :     1256.63  1274.74  1292.83  1296.99  1298.01  1298.15
eigval :     1306.91  1308.46  1312.49  1316.10  1346.76  1348.32
eigval :     1356.10  1356.18  1360.21  1360.45  1391.62  1406.70
eigval :     1421.12  1426.83  1426.93  1434.74  1448.96  1451.85
eigval :     1468.97  1472.56  1476.59  1484.45  1485.68  1485.73
eigval :     1533.61  1533.89  1569.86  1571.85  1574.45  1575.41
eigval :     1579.77  1589.03  1589.16  1589.20  1598.35  1598.38
eigval :     1612.08  1612.13  2355.99  2356.67  3072.25  3072.35
eigval :     3074.93  3074.95  3076.59  3076.60  3079.68  3079.72
eigval :     3079.98  3084.52  3084.55  3086.20  3086.39  3086.67
eigval :     3086.74  3089.22  3090.57  3093.06  3093.10  3095.38
eigval :     3095.42  3096.27  3097.09  3098.12  3102.61  3102.95

   temp. (K)  partition function   enthalpy   heat capacity  entropy
                                   cal/mol     cal/K/mol   cal/K/mol   J/K/mol
 298.15  VIB  0.783E+17            21882.837    138.664    135.992
         ROT  0.530E+08              888.752      2.981     38.327
         INT  0.415E+25            22771.589    141.645    174.318
         TR   0.146E+29             1481.254      4.968     45.091
         TOT                       24252.8433   146.6134   219.4095   918.0095

       T/K    H(0)-H(T)+PV         H(T)/Eh          T*S/Eh         G(T)/Eh
   ------------------------------------------------------------------------
    298.15    0.386494E-01    0.592592E+00    0.104249E+00    0.488344E+00
   ------------------------------------------------------------------------

         :::::::::::::::::::::::::::::::::::::::::::::::::::::
         ::                  THERMODYNAMIC                  ::
         :::::::::::::::::::::::::::::::::::::::::::::::::::::
         :: total free energy        -118.731585386485 Eh   ::
         ::.................................................::
         :: total energy             -119.219928936164 Eh   ::
         :: zero point energy           0.553942734672 Eh   ::
         :: G(RRHO) w/o ZPVE           -0.065599184993 Eh   ::
         :: G(RRHO) contrib.            0.488343549679 Eh   ::
         :::::::::::::::::::::::::::::::::::::::::::::::::::::

           -------------------------------------------------
          | TOTAL ENERGY             -119.219928936164 Eh   |
          | TOTAL ENTHALPY           -118.627336835492 Eh   |
          | TOTAL FREE ENERGY        -118.731585386485 Eh   |
          | GRADIENT NORM               0.000167480573 Eh/α |
          | HOMO-LUMO GAP               2.217028839797 eV   |
           -------------------------------------------------

 * finished run on 2025/08/24 at 06:29:03.877
