   * xtb version 6.7.1 (edcfbbe) compiled by 'albert@albert-system' on 2024-07-22

   ID    Z sym.   atoms
    1    6 C      1-34
    2    1 H      35-56

          program call               : xtb data2507/toluene/19a/19a_toluene_S0_finalOpt.xtbopt.xyz --gfn 2 --uhf 2 --gbsa toluene --ohess vtight --parallel 40 --molden --ceasefiles --namespace data2507/toluene/19a/19a_toluene_T1_preOpt
      * Solvation model:               GBSA
        Solvent                        toluene
        Solvent mass                       9.2140E+01 g/mol
          :  Hamiltonian                  GFN2-xTB          :
 * total energy  :   -83.9889305 Eh     change       -0.1837620E-08 Eh
 * total energy  :   -83.9940846 Eh     change       -0.5154103E-02 Eh
 * total energy  :   -83.9953552 Eh     change       -0.1270590E-02 Eh
 * total energy  :   -83.9954596 Eh     change       -0.1043550E-03 Eh
 * total energy  :   -83.9955392 Eh     change       -0.7960277E-04 Eh
 * total energy  :   -83.9955715 Eh     change       -0.3233138E-04 Eh
 * total energy  :   -83.9956080 Eh     change       -0.3644060E-04 Eh
 * total energy  :   -83.9956343 Eh     change       -0.2638414E-04 Eh
 * total energy  :   -83.9956570 Eh     change       -0.2264735E-04 Eh
 * total energy  :   -83.9956719 Eh     change       -0.1492050E-04 Eh
 * total energy  :   -83.9958793 Eh     change       -0.1660348E-05 Eh
 * total energy  :   -83.9958798 Eh     change       -0.5205024E-06 Eh
 * total energy  :   -83.9958798 Eh     change        0.4222589E-07 Eh
 * total energy  :   -83.9958801 Eh     change       -0.3784845E-06 Eh
 * total energy  :   -83.9958804 Eh     change       -0.2757176E-06 Eh
 * total energy  :   -83.9958807 Eh     change       -0.2800542E-06 Eh
 * total energy  :   -83.9958809 Eh     change       -0.2143225E-06 Eh
 * total energy  :   -83.9958811 Eh     change       -0.1514031E-06 Eh
 * total energy  :   -83.9958811 Eh     change       -0.1589072E-08 Eh
   *** GEOMETRY OPTIMIZATION CONVERGED AFTER 44 ITERATIONS ***

 final structure:
================
56
 xtb: 6.7.1 (edcfbbe)
C          -10.11487968160403        0.30917688528104       -0.64300718855537
C           -9.65805562430599       -0.79659525314483       -1.37697586723269
C           -8.33790975680798       -1.15059042365215       -1.34460513039674
C           -7.41133346351567       -0.41352402817269       -0.57331939656317
C           -6.04842060407385       -0.75133011230174       -0.52319708741299
C           -5.14419171613372       -0.01834895954982        0.22418684230510
C           -3.73110603686751       -0.37263731372650        0.25553195564179
C           -3.31647455093847       -1.70144221146826        0.19177987976485
C           -1.97391804190802       -2.03480596750112        0.21121377147868
C           -0.97491065905993       -1.04545647119674        0.27813951667031
C            0.38716913675836       -1.35404953125187        0.27211750334094
C            1.38766091612004       -0.34726626752397        0.31709607382395
C            2.74045147632717       -0.65359008706238        0.28631985711655
C            3.73348350465687        0.35403058269855        0.30258607763879
C            5.14627899297035        0.00227603472580        0.23474468545199
C            5.62667940930372       -1.16926257617359        0.87010516273083
C            6.94420892647698       -1.51254287524883        0.81333470680117
C            7.87560192131614       -0.72016574466607        0.10417566357025
C            9.23949297201316       -1.05579096243189        0.01452782064156
C           10.11017488718522       -0.26393705445078       -0.68582148052775
C            9.65174308860935        0.89766307176862       -1.32661675913341
C            8.33297673222055        1.25143244282022       -1.25663028837956
C            7.40922661984412        0.45713274447058       -0.54075961099219
C            6.04769885724835        0.79369278465092       -0.45344859314151
C            3.31999866460030        1.68272822531285        0.37050431457466
C            1.97725293776947        2.01293072293534        0.42208448868009
C            0.97803940828572        1.02225226014597        0.38642722901975
C           -0.38435088418557        1.33011958549711        0.40658437660041
C           -1.38486915700053        0.32411714299443        0.34538948344974
C           -2.73770410712100        0.63179633972835        0.34062184050545
C           -5.62420146301611        1.09544590761063        0.95678357003059
C           -6.94255997078712        1.43939483447826        0.93494658834004
C           -7.87662041137080        0.70576203368672        0.16841671747040
C           -9.24171117440307        1.04382952445470        0.11439787051993
H          -11.16143739945044        0.57543701801321       -0.68104227691956
H          -10.36027245448441       -1.36544332168005       -1.96957483212686
H           -7.98246125855315       -2.00138276957705       -1.90908855367566
H           -5.70641650583215       -1.58836990130682       -1.11504822698662
H           -4.05463232900434       -2.48925584317456        0.15790891481250
H           -1.67673061171989       -3.07335650694913        0.17741812166845
H            0.69483362777884       -2.38892799241879        0.22120627996122
H            3.03877695171032       -1.68876666684690        0.20680292558017
H            4.93599532618019       -1.77828910279051        1.43470557002781
H            7.29894776387727       -2.40194293366223        1.31568051454819
H            9.58842298575707       -1.95220820063978        0.50817510562583
H           11.15577307636675       -0.52838945211118       -0.75126426439265
H           10.35176187581537        1.50993882625946       -1.87704281310368
H            7.97629035438892        2.14565281113381       -1.74854171148480
H            5.70414665607301        1.67854076134414       -0.97024855255575
H            4.05908368299883        2.46921627803395        0.41502961005563
H            1.68029540793147        3.04978336184109        0.49129851614047
H           -0.69186775403406        2.36497293742585        0.45901463186991
H           -3.03556603458493        1.66986513212451        0.36258338025560
H           -4.93273379867263        1.65754832635202        1.56715941629581
H           -7.29599985568626        2.28360102269642        1.51082426876994
H           -9.58954110816998        1.89624357968130        0.68132303681767

          :  Hamiltonian                  GFN2-xTB          :
         :: gradient norm              0.000062650093 Eh/a0 ::
         :: HOMO-LUMO gap              0.758858012304 eV    ::
         :: SCC energy               -85.642828603698 Eh    ::
         :: -> dispersion             -0.070739405704 Eh    ::
         :: -> Gsolv                  -0.035537339455 Eh    ::
         :: repulsion energy           1.646947550651 Eh    ::

    * Orbital Energies and Occupations

         #    Occupation            Energy/Eh            Energy/eV
      -------------------------------------------------------------
         1        2.0000           -0.6499875             -17.6871
       ...           ...                  ...                  ...
        68        2.0000           -0.4170489             -11.3485
        69        2.0000           -0.4157845             -11.3141
        70        2.0000           -0.4128386             -11.2339
        71        2.0000           -0.4107016             -11.1758
        72        2.0000           -0.4083865             -11.1128
        73        2.0000           -0.4071587             -11.0794
        74        2.0000           -0.4052860             -11.0284
        75        2.0000           -0.3929687             -10.6932
        76        2.0000           -0.3907346             -10.6324
        77        2.0000           -0.3766208             -10.2484
        78        2.0000           -0.3761707             -10.2361
        79        1.0000           -0.3531925              -9.6109
        80        1.0000           -0.2889703              -7.8633 (HOMO)
        81        0.0000           -0.2610828              -7.1044 (LUMO)
        82        0.0000           -0.2604576              -7.0874
        83                         -0.2395583              -6.5187
        84                         -0.2365771              -6.4376
        85                         -0.2171941              -5.9102
        86                         -0.2123162              -5.7774
        87                         -0.1912050              -5.2030
        88                         -0.1871884              -5.0937
        89                         -0.1766816              -4.8078
        90                         -0.1737847              -4.7289
        91                         -0.1438108              -3.9133
       ...                                ...                  ...
       158                          0.7264508              19.7677
      -------------------------------------------------------------
                  HL-Gap            0.0278875 Eh            0.7589 eV

     #   Z          covCN         q      C6AA      α(0)
     1   6 C        2.916    -0.032    28.787     8.798
     2   6 C        2.915    -0.031    28.777     8.797
     3   6 C        2.918    -0.037    28.911     8.817
     4   6 C        2.984     0.011    27.759     8.643
     5   6 C        2.924    -0.042    29.044     8.838
     6   6 C        2.971     0.009    27.821     8.652
     7   6 C        2.970     0.008    27.839     8.655
     8   6 C        2.917    -0.036    28.899     8.815
     9   6 C        2.917    -0.039    28.978     8.827
    10   6 C        2.976     0.011    27.763     8.643
    11   6 C        2.918    -0.047    29.163     8.856
    12   6 C        2.975     0.012    27.753     8.641
    13   6 C        2.923    -0.043    29.062     8.841
    14   6 C        2.971     0.008    27.838     8.654
    15   6 C        2.971     0.009    27.820     8.652
    16   6 C        2.919    -0.035    28.876     8.812
    17   6 C        2.915    -0.037    28.921     8.819
    18   6 C        2.986     0.010    27.783     8.646
    19   6 C        2.917    -0.036    28.897     8.815
    20   6 C        2.916    -0.032    28.787     8.798
    21   6 C        2.915    -0.031    28.777     8.797
    22   6 C        2.918    -0.037    28.910     8.817
    23   6 C        2.984     0.011    27.759     8.642
    24   6 C        2.924    -0.042    29.043     8.838
    25   6 C        2.916    -0.036    28.899     8.815
    26   6 C        2.917    -0.039    28.977     8.827
    27   6 C        2.976     0.011    27.763     8.643
    28   6 C        2.918    -0.047    29.164     8.856
    29   6 C        2.975     0.012    27.753     8.641
    30   6 C        2.923    -0.043    29.064     8.841
    31   6 C        2.919    -0.035    28.877     8.812
    32   6 C        2.915    -0.037    28.922     8.819
    33   6 C        2.986     0.010    27.783     8.646
    34   6 C        2.917    -0.036    28.897     8.815
    35   1 H        0.926     0.031     2.578     2.511
    36   1 H        0.926     0.031     2.578     2.511
    37   1 H        0.926     0.032     2.564     2.504
    38   1 H        0.926     0.034     2.531     2.488
    39   1 H        0.926     0.033     2.548     2.496
    40   1 H        0.926     0.031     2.568     2.506
    41   1 H        0.926     0.031     2.571     2.507
    42   1 H        0.926     0.034     2.529     2.487
    43   1 H        0.926     0.034     2.528     2.486
    44   1 H        0.925     0.032     2.552     2.498
    45   1 H        0.926     0.032     2.563     2.503
    46   1 H        0.926     0.031     2.578     2.511
    47   1 H        0.926     0.031     2.577     2.511
    48   1 H        0.926     0.032     2.564     2.504
    49   1 H        0.926     0.034     2.532     2.488
    50   1 H        0.926     0.033     2.550     2.497
    51   1 H        0.926     0.031     2.568     2.506
    52   1 H        0.926     0.031     2.571     2.507
    53   1 H        0.926     0.034     2.528     2.486
    54   1 H        0.926     0.034     2.528     2.486
    55   1 H        0.925     0.032     2.553     2.499
    56   1 H        0.926     0.032     2.563     2.503

molecular dipole:
                 x           y           z       tot (Debye)
 q only:        0.003      -0.001       0.005
   full:        0.003      -0.001      -0.008       0.023

 projected vibrational frequencies (cm⁻¹)
eigval :       -0.00    -0.00    -0.00    -0.00    -0.00     0.00
eigval :       14.30    26.41    28.76    37.71    52.51    58.37
eigval :       84.76   109.75   111.39   129.74   167.94   168.41
eigval :      173.77   177.96   219.98   235.38   255.54   259.91
eigval :      289.74   319.03   338.74   345.01   363.58   371.43
eigval :      394.28   399.39   412.08   424.90   438.39   441.44
eigval :      447.37   449.10   489.56   493.34   498.57   499.79
eigval :      509.39   535.86   557.20   570.37   574.44   587.25
eigval :      590.73   616.55   627.31   632.92   653.02   678.48
eigval :      698.10   713.08   720.27   722.73   739.70   749.69
eigval :      751.89   773.16   778.67   795.19   796.13   801.44
eigval :      808.20   818.85   828.05   828.86   830.04   837.30
eigval :      838.41   856.83   863.11   868.02   872.85   876.00
eigval :      886.50   888.19   894.12   896.23   909.90   910.85
eigval :      920.93   922.35   924.30   925.02   962.89   963.33
eigval :     1072.22  1072.81  1079.55  1079.64  1126.10  1141.93
eigval :     1143.65  1147.98  1152.03  1170.52  1173.33  1178.35
eigval :     1179.12  1181.47  1198.50  1204.09  1227.52  1228.82
eigval :     1232.42  1238.98  1259.19  1260.36  1262.04  1266.01
eigval :     1281.48  1292.74  1307.08  1309.67  1325.17  1332.68
eigval :     1337.06  1363.67  1368.86  1382.41  1394.59  1397.16
eigval :     1411.64  1419.04  1421.07  1427.26  1432.77  1445.22
eigval :     1450.63  1467.20  1493.05  1495.98  1502.06  1506.42
eigval :     1517.43  1518.67  1545.07  1548.34  1587.79  1592.59
eigval :     1600.73  1601.00  3062.56  3062.87  3063.39  3063.61
eigval :     3065.38  3065.78  3066.82  3067.27  3069.27  3070.79
eigval :     3072.82  3072.99  3073.92  3074.09  3078.22  3078.96
eigval :     3082.60  3082.90  3083.14  3083.74  3084.81  3086.41

   temp. (K)  partition function   enthalpy   heat capacity  entropy
                                   cal/mol     cal/K/mol   cal/K/mol   J/K/mol
 298.15  VIB  0.132E+11            14498.462     98.140     86.793
         ROT  0.176E+08              888.752      2.981     36.135
         INT  0.233E+18            15387.215    101.121    122.928
         TR   0.864E+28             1481.254      4.968     44.050
         TOT                       16868.4687   106.0893   166.9779   698.6357

       T/K    H(0)-H(T)+PV         H(T)/Eh          T*S/Eh         G(T)/Eh
   ------------------------------------------------------------------------
    298.15    0.268816E-01    0.457452E+00    0.793366E-01    0.378115E+00
   ------------------------------------------------------------------------

         :::::::::::::::::::::::::::::::::::::::::::::::::::::
         ::                  THERMODYNAMIC                  ::
         :::::::::::::::::::::::::::::::::::::::::::::::::::::
         :: total free energy         -83.617765763439 Eh   ::
         ::.................................................::
         :: total energy              -83.995881053767 Eh   ::
         :: zero point energy           0.430570285005 Eh   ::
         :: G(RRHO) w/o ZPVE           -0.052454994677 Eh   ::
         :: G(RRHO) contrib.            0.378115290328 Eh   ::
         :::::::::::::::::::::::::::::::::::::::::::::::::::::

           -------------------------------------------------
          | TOTAL ENERGY              -83.995881053767 Eh   |
          | TOTAL ENTHALPY            -83.538429152829 Eh   |
          | TOTAL FREE ENERGY         -83.617765763439 Eh   |
          | GRADIENT NORM               0.000062650502 Eh/α |
          | HOMO-LUMO GAP               0.758858157139 eV   |
           -------------------------------------------------

 * finished run on 2025/09/13 at 05:14:51.039
