   * xtb version 6.7.1 (edcfbbe) compiled by 'albert@albert-system' on 2024-07-22

   ID    Z sym.   atoms
    1    6 C      1-34
    2    1 H      35-56

          program call               : xtb data2507/toluene/19a/19a_toluene_S0_crest.xyz --gfn 2 --gbsa toluene --ohess vtight --parallel 40 --molden --ceasefiles --namespace data2507/toluene/19a/19a_toluene_S0_finalOpt
      * Solvation model:               GBSA
        Solvent                        toluene
        Solvent mass                       9.2140E+01 g/mol
          :  Hamiltonian                  GFN2-xTB          :
 * total energy  :   -84.0664051 Eh     change       -0.1320402E-08 Eh
 * total energy  :   -84.0664167 Eh     change       -0.1157922E-04 Eh
 * total energy  :   -84.0664196 Eh     change       -0.2934805E-05 Eh
 * total energy  :   -84.0664215 Eh     change       -0.1908971E-05 Eh
 * total energy  :   -84.0664228 Eh     change       -0.1273737E-05 Eh
 * total energy  :   -84.0664249 Eh     change       -0.2145660E-05 Eh
 * total energy  :   -84.0664282 Eh     change       -0.3217396E-05 Eh
 * total energy  :   -84.0664307 Eh     change       -0.2505214E-05 Eh
 * total energy  :   -84.0664322 Eh     change       -0.1488623E-05 Eh
 * total energy  :   -84.0664334 Eh     change       -0.1207650E-05 Eh
 * total energy  :   -84.0664411 Eh     change       -0.2355415E-05 Eh
 * total energy  :   -84.0664432 Eh     change       -0.2132406E-05 Eh
 * total energy  :   -84.0664447 Eh     change       -0.1529125E-05 Eh
 * total energy  :   -84.0664455 Eh     change       -0.7766599E-06 Eh
 * total energy  :   -84.0664460 Eh     change       -0.4386311E-06 Eh
 * total energy  :   -84.0664463 Eh     change       -0.2967695E-06 Eh
 * total energy  :   -84.0664465 Eh     change       -0.2271630E-06 Eh
 * total energy  :   -84.0664467 Eh     change       -0.1886192E-06 Eh
 * total energy  :   -84.0664467 Eh     change       -0.1280569E-08 Eh
   *** GEOMETRY OPTIMIZATION CONVERGED AFTER 22 ITERATIONS ***

 final structure:
================
56
 xtb: 6.7.1 (edcfbbe)
C          -10.09964025993027        0.27219766782410       -0.62943324477430
C           -9.60883681169028       -0.74493836787037       -1.46418778521552
C           -8.27927827702259       -1.06183622471076       -1.45837557059903
C           -7.37777626496310       -0.37591640122158       -0.61594369108616
C           -6.00390943181562       -0.68372447264740       -0.58369902142313
C           -5.13480922179217       -0.00276084654095        0.23646912015756
C           -3.70126057065609       -0.32859781321599        0.25627109962874
C           -3.28778045212619       -1.68743013581690        0.23305902570703
C           -1.97026060517878       -2.01984502860600        0.24711701447640
C           -0.96201425053944       -1.02140802421345        0.27406662334633
C            0.39360524396399       -1.33334578508794        0.27762192181949
C            1.37009558963305       -0.33899245973569        0.29499380892507
C            2.75208949886923       -0.64434488313487        0.28970363774095
C            3.70516956647317        0.33959397205138        0.28660686939928
C            5.13766360549307        0.00983751876669        0.25583028928474
C            5.63966008924667       -1.04214340613837        1.05456213705993
C            6.96456926083274       -1.36779770225883        1.03392506320289
C            7.87120290687695       -0.67026108076430        0.20698529306196
C            9.24427048112039       -0.98668501775837        0.15642531661559
C           10.09193838878875       -0.29019611698583       -0.65972632539344
C            9.60456293770340        0.75451064811845       -1.46177396350381
C            8.27888861171481        1.08618455115403       -1.43387917785108
C            7.37774527528791        0.38745691609494       -0.60166072416581
C            6.00696021860208        0.70660739075682       -0.55061141412176
C            3.29259163938715        1.69869100157264        0.30288416170085
C            1.97501271157982        2.03129946086230        0.32114462787502
C            0.96593564853138        1.03324542634166        0.31172610803932
C           -0.38987371543313        1.34505101289858        0.31516704425051
C           -1.36651187492971        0.35069982246653        0.29566707052064
C           -2.74883098642749        0.65542473102547        0.29214908434420
C           -5.63978143300762        1.02386502402337        1.06575759787297
C           -6.96755267698203        1.33850481235277        1.06294277876016
C           -7.87463759211809        0.65425151912036        0.22545724570058
C           -9.25148616479781        0.95663879571001        0.19637261496714
H          -11.15381528105030        0.50925576229662       -0.64718321227904
H          -10.29312475245559       -1.27486155282281       -2.11130908522408
H           -7.89729961515665       -1.84407119072070       -2.09965569005438
H           -5.63467913124950       -1.45942661321662       -1.24021327238411
H           -4.04464614762630       -2.45843446230633        0.22634667840260
H           -1.66518534005412       -3.05706623083691        0.23881536949132
H            0.69715959153181       -2.37146453267079        0.26322272368219
H            3.04402949534799       -1.68491843528742        0.26001849023576
H            4.95861761016512       -1.57504987732499        1.70236622274496
H            7.34055723426961       -2.16853856289660        1.65570158851527
H            9.61461535037540       -1.79233777329918        0.77510505479825
H           11.14303826784849       -0.53874252624367       -0.69480176693006
H           10.28839917710383        1.29375559373927       -2.10164458194310
H            7.89983355244432        1.88969122754061       -2.05009029236120
H            5.63969943481531        1.50300366603655       -1.18304347642635
H            4.05001654134456        2.46898134823956        0.32224403278342
H            1.67061910168169        3.06855044956962        0.34230404125486
H           -0.69335891642295        2.38320642182434        0.32946356098471
H           -3.04128273671081        1.69628405385707        0.29204448818404
H           -4.95880344163400        1.54502892430450        1.72307524462213
H           -7.34594632102046        2.11896652251914        1.70859275989899
H           -9.62457026464062        1.74126640886561        0.83994021068050

          :  Hamiltonian                  GFN2-xTB          :
         :: gradient norm              0.000034598283 Eh/a0 ::
         :: HOMO-LUMO gap              2.106144913767 eV    ::
         :: SCC energy               -85.731199573488 Eh    ::
         :: -> dispersion             -0.070830908913 Eh    ::
         :: -> Gsolv                  -0.035464221729 Eh    ::
         :: repulsion energy           1.664752894831 Eh    ::

    * Orbital Energies and Occupations

         #    Occupation            Energy/Eh            Energy/eV
      -------------------------------------------------------------
         1        2.0000           -0.6509728             -17.7139
       ...           ...                  ...                  ...
        67        2.0000           -0.4238211             -11.5328
        68        2.0000           -0.4161615             -11.3243
        69        2.0000           -0.4154165             -11.3041
        70        2.0000           -0.4126506             -11.2288
        71        2.0000           -0.4102898             -11.1646
        72        2.0000           -0.4084271             -11.1139
        73        2.0000           -0.4063368             -11.0570
        74        2.0000           -0.4049303             -11.0187
        75        2.0000           -0.3937155             -10.7135
        76        2.0000           -0.3900669             -10.6143
        77        2.0000           -0.3770914             -10.2612
        78        2.0000           -0.3765294             -10.2459
        79        2.0000           -0.3589942              -9.7687 (HOMO)
        80                         -0.2815948              -7.6626 (LUMO)
        81                         -0.2598982              -7.0722
        82                         -0.2592500              -7.0546
        83                         -0.2395971              -6.5198
        84                         -0.2341554              -6.3717
        85                         -0.2152415              -5.8570
        86                         -0.2150640              -5.8522
        87                         -0.1899640              -5.1692
        88                         -0.1873185              -5.0972
        89                         -0.1738945              -4.7319
        90                         -0.1723181              -4.6890
       ...                                ...                  ...
       158                          0.7235979              19.6901
      -------------------------------------------------------------
                  HL-Gap            0.0773994 Eh            2.1061 eV

     #   Z          covCN         q      C6AA      α(0)
     1   6 C        2.916    -0.032    28.791     8.799
     2   6 C        2.915    -0.031    28.782     8.797
     3   6 C        2.918    -0.037    28.909     8.817
     4   6 C        2.985     0.011    27.770     8.644
     5   6 C        2.924    -0.041    29.031     8.836
     6   6 C        2.973     0.008    27.837     8.654
     7   6 C        2.972     0.008    27.828     8.653
     8   6 C        2.918    -0.035    28.865     8.810
     9   6 C        2.914    -0.037    28.918     8.818
    10   6 C        2.982     0.009    27.810     8.650
    11   6 C        2.921    -0.044    29.092     8.845
    12   6 C        2.981     0.010    27.797     8.648
    13   6 C        2.923    -0.042    29.033     8.836
    14   6 C        2.972     0.008    27.828     8.653
    15   6 C        2.973     0.008    27.836     8.654
    16   6 C        2.920    -0.036    28.885     8.813
    17   6 C        2.916    -0.037    28.920     8.819
    18   6 C        2.987     0.010    27.792     8.648
    19   6 C        2.918    -0.036    28.899     8.815
    20   6 C        2.916    -0.032    28.791     8.799
    21   6 C        2.915    -0.031    28.782     8.797
    22   6 C        2.918    -0.037    28.909     8.817
    23   6 C        2.985     0.011    27.770     8.644
    24   6 C        2.924    -0.041    29.031     8.836
    25   6 C        2.918    -0.035    28.864     8.810
    26   6 C        2.914    -0.037    28.917     8.818
    27   6 C        2.982     0.009    27.810     8.650
    28   6 C        2.921    -0.044    29.091     8.845
    29   6 C        2.981     0.010    27.797     8.648
    30   6 C        2.923    -0.042    29.033     8.836
    31   6 C        2.920    -0.036    28.885     8.813
    32   6 C        2.916    -0.037    28.920     8.819
    33   6 C        2.987     0.010    27.792     8.648
    34   6 C        2.918    -0.036    28.899     8.815
    35   1 H        0.926     0.030     2.583     2.513
    36   1 H        0.926     0.030     2.582     2.513
    37   1 H        0.925     0.031     2.567     2.506
    38   1 H        0.925     0.033     2.543     2.494
    39   1 H        0.926     0.033     2.548     2.496
    40   1 H        0.926     0.032     2.555     2.500
    41   1 H        0.925     0.032     2.552     2.498
    42   1 H        0.926     0.033     2.548     2.496
    43   1 H        0.926     0.033     2.547     2.496
    44   1 H        0.925     0.032     2.554     2.499
    45   1 H        0.926     0.031     2.566     2.505
    46   1 H        0.926     0.030     2.583     2.513
    47   1 H        0.926     0.030     2.582     2.513
    48   1 H        0.925     0.031     2.567     2.506
    49   1 H        0.925     0.033     2.544     2.494
    50   1 H        0.926     0.033     2.548     2.496
    51   1 H        0.926     0.032     2.555     2.500
    52   1 H        0.925     0.032     2.552     2.498
    53   1 H        0.926     0.033     2.548     2.496
    54   1 H        0.926     0.033     2.547     2.496
    55   1 H        0.925     0.032     2.554     2.499
    56   1 H        0.926     0.031     2.566     2.505

molecular dipole:
                 x           y           z       tot (Debye)
 q only:       -0.001      -0.001       0.014
   full:       -0.001      -0.002       0.001       0.006

 projected vibrational frequencies (cm⁻¹)
eigval :       -0.00     0.00     0.00     0.00     0.00     0.00
eigval :       13.40    23.76    26.69    33.59    48.16    54.31
eigval :       85.97   110.92   112.41   128.82   167.90   170.57
eigval :      173.00   177.57   218.58   237.99   253.94   274.51
eigval :      296.27   335.73   340.54   351.91   363.31   379.58
eigval :      395.27   424.14   431.82   439.08   444.63   447.99
eigval :      449.82   452.46   493.23   497.24   500.93   503.55
eigval :      511.25   538.23   564.02   587.40   587.77   593.58
eigval :      595.32   620.55   633.65   645.71   654.35   700.39
eigval :      712.16   722.63   723.25   725.15   751.67   756.02
eigval :      786.37   790.81   797.47   798.23   818.23   831.14
eigval :      832.16   835.60   839.92   859.86   865.63   867.57
eigval :      868.91   873.26   877.64   879.39   882.65   883.17
eigval :      888.81   890.61   912.79   915.77   921.41   922.82
eigval :      924.13   924.98   928.16   929.18   966.65   968.71
eigval :     1072.86  1073.33  1079.67  1080.03  1142.70  1142.93
eigval :     1150.65  1166.64  1168.43  1171.43  1174.69  1177.88
eigval :     1178.14  1182.97  1198.80  1200.89  1227.05  1227.72
eigval :     1243.59  1247.88  1259.31  1259.81  1264.27  1267.83
eigval :     1286.97  1302.07  1323.70  1323.85  1331.86  1333.79
eigval :     1366.39  1370.41  1394.56  1398.27  1403.40  1423.21
eigval :     1424.03  1426.61  1430.84  1439.30  1457.20  1465.42
eigval :     1474.49  1502.48  1502.62  1529.58  1536.88  1560.05
eigval :     1560.49  1580.06  1597.41  1603.28  1604.58  1608.23
eigval :     1609.39  1617.63  3060.88  3061.14  3062.34  3062.73
eigval :     3062.84  3063.04  3063.94  3064.75  3065.09  3065.44
eigval :     3068.60  3068.67  3069.69  3070.73  3073.20  3073.26
eigval :     3080.30  3080.53  3080.93  3081.87  3084.99  3085.07

   temp. (K)  partition function   enthalpy   heat capacity  entropy
                                   cal/mol     cal/K/mol   cal/K/mol   J/K/mol
 298.15  VIB  0.168E+11            14298.179     96.325     85.812
         ROT  0.175E+08              888.752      2.981     36.124
         INT  0.294E+18            15186.931     99.306    121.935
         TR   0.864E+28             1481.254      4.968     44.050
         TOT                       16668.1850   104.2745   165.9849   694.4807

       T/K    H(0)-H(T)+PV         H(T)/Eh          T*S/Eh         G(T)/Eh
   ------------------------------------------------------------------------
    298.15    0.265624E-01    0.460470E+00    0.788648E-01    0.381605E+00
   ------------------------------------------------------------------------

         :::::::::::::::::::::::::::::::::::::::::::::::::::::
         ::                  THERMODYNAMIC                  ::
         :::::::::::::::::::::::::::::::::::::::::::::::::::::
         :: total free energy         -83.684841723542 Eh   ::
         ::.................................................::
         :: total energy              -84.066446677858 Eh   ::
         :: zero point energy           0.433907283371 Eh   ::
         :: G(RRHO) w/o ZPVE           -0.052302329055 Eh   ::
         :: G(RRHO) contrib.            0.381604954316 Eh   ::
         :::::::::::::::::::::::::::::::::::::::::::::::::::::

           -------------------------------------------------
          | TOTAL ENERGY              -84.066446677858 Eh   |
          | TOTAL ENTHALPY            -83.605976950913 Eh   |
          | TOTAL FREE ENERGY         -83.684841723542 Eh   |
          | GRADIENT NORM               0.000034601353 Eh/α |
          | HOMO-LUMO GAP               2.106144905801 eV   |
           -------------------------------------------------

 * finished run on 2025/09/13 at 05:14:47.536
