   * xtb version 6.7.1 (edcfbbe) compiled by 'albert@albert-system' on 2024-07-22

   ID    Z sym.   atoms
    1    6 C      1-34
    2    1 H      35-56

          program call               : xtb data2507/toluene/19a/19a_toluene_T1_crest.xyz --gfn 2 --uhf 2 --gbsa toluene --ohess vtight --parallel 40 --molden --ceasefiles --namespace data2507/toluene/19a/19a_toluene_T1_finalOpt
      * Solvation model:               GBSA
        Solvent                        toluene
        Solvent mass                       9.2140E+01 g/mol
          :  Hamiltonian                  GFN2-xTB          :
 * total energy  :   -83.9959696 Eh     change       -0.2524260E-08 Eh
 * total energy  :   -83.9959828 Eh     change       -0.1319219E-04 Eh
 * total energy  :   -83.9959858 Eh     change       -0.3019565E-05 Eh
 * total energy  :   -83.9959883 Eh     change       -0.2543554E-05 Eh
 * total energy  :   -83.9959905 Eh     change       -0.2165372E-05 Eh
 * total energy  :   -83.9959940 Eh     change       -0.3495573E-05 Eh
 * total energy  :   -83.9959990 Eh     change       -0.4985938E-05 Eh
 * total energy  :   -83.9960027 Eh     change       -0.3730208E-05 Eh
 * total energy  :   -83.9960046 Eh     change       -0.1883942E-05 Eh
 * total energy  :   -83.9960058 Eh     change       -0.1211591E-05 Eh
 * total energy  :   -83.9960067 Eh     change       -0.8580395E-06 Eh
 * total energy  :   -83.9960071 Eh     change       -0.4312121E-06 Eh
 * total energy  :   -83.9960071 Eh     change       -0.4526696E-07 Eh
   *** GEOMETRY OPTIMIZATION CONVERGED AFTER 13 ITERATIONS ***

 final structure:
================
56
 xtb: 6.7.1 (edcfbbe)
C           -9.88273020244839        0.79361055255161       -0.48321385563693
C           -9.07760702767699        1.72603493654493       -1.15540793078996
C           -7.71671023074548        1.59382586526801       -1.15269169887272
C           -7.09678141890288        0.52033719295752       -0.47440494016104
C           -5.70091793032778        0.36094981264194       -0.45124493356933
C           -5.09941158962711       -0.69766586355907        0.20636812665243
C           -3.65185316040460       -0.85983831801309        0.21314719956169
C           -3.06157061588352       -2.12273111120167        0.22821497806732
C           -1.68665325628534       -2.27161879608431        0.21831575250014
C           -0.82832074049382       -1.15562213845971        0.20769849052739
C            0.56229376035540       -1.27872881606710        0.20637911343992
C            1.41851795204407       -0.14572130687529        0.19671311404898
C            2.80016069213811       -0.26828213037330        0.19201835125116
C            3.65158211549120        0.86254542371130        0.19247279817809
C            5.09907746833185        0.69998727820294        0.18719250652135
C            5.93018614379240        1.64078960828725        0.84521589006428
C            7.28552316021957        1.50261176861720        0.85360245614154
C            7.91404036868591        0.42017876286266        0.19611017346303
C            9.31089975931949        0.25146053098185        0.18357372638593
C            9.88128035348757       -0.81189774334265       -0.46472451828407
C            9.07640292768146       -1.75101080238411       -1.12776519773197
C            7.71590939662919       -1.61472634910262       -1.13310542654543
C            7.09614664107641       -0.53050950457760       -0.47196901967380
C            5.70054684617157       -0.36795187548967       -0.45530872847549
C            3.06115507164795        2.12549038303392        0.19447575508288
C            1.68623137459639        2.27418132483346        0.18694307770154
C            0.82794130438495        1.15810275791687        0.19195499460732
C           -0.56263190550194        1.28122765290200        0.19440745571125
C           -1.41885115451413        0.14820414059003        0.20014300605732
C           -2.80048832678970        0.27084410221465        0.19814628328118
C           -5.93041618458013       -1.63012807269082        0.87622973834934
C           -7.28603072043306       -1.49423542739338        0.87921694904875
C           -7.91479282892512       -0.42300132755826        0.20385561814125
C           -9.31209250430384       -0.25873803280244        0.18262458872149
H          -10.95660785451921        0.91229547270215       -0.49700894773463
H           -9.54423788602517        2.54950022086022       -1.67697884292242
H           -7.09341721275539        2.31024130665042       -1.66943614871988
H           -5.09770922701890        1.07375481308949       -0.99497089488032
H           -3.68418578898022       -3.00510401917497        0.21098509261680
H           -1.25306184303559       -3.26157519529026        0.21168657409923
H            1.00642007493577       -2.26410457577186        0.21321592543415
H            3.23492108722369       -1.25648027689662        0.22311362957672
H            5.47179026371407        2.46206410327292        1.37607559302426
H            7.90450732718455        2.22141849353922        1.37254914511440
H            9.92769179575148        0.97745762759132        0.69492225659985
H           10.95476963200252       -0.93465010613347       -0.47092111720487
H            9.54282512162828       -2.58362293722577       -1.63487198606870
H            7.09279761717118       -2.33652698369110       -1.64250783423683
H            5.09753910664077       -1.08692973739835       -0.99105921498450
H            3.68350720164765        3.00772687963194        0.16558006306076
H            1.25249527514981        3.26395973471297        0.17074996874010
H           -1.00676135335838        2.26662164458976        0.19204998095059
H           -3.23518791484057        1.25933698841902        0.21952446119817
H           -5.47179673705323       -2.44323093862347        1.41941785456664
H           -7.90513241640125       -2.20665550274936        1.40680299597262
H           -9.92901990057184       -0.97950777254619        0.70118521823252

          :  Hamiltonian                  GFN2-xTB          :
         :: gradient norm              0.000130091948 Eh/a0 ::
         :: HOMO-LUMO gap              0.762704634459 eV    ::
         :: SCC energy               -85.642920739449 Eh    ::
         :: -> dispersion             -0.070766254657 Eh    ::
         :: -> Gsolv                  -0.035412370149 Eh    ::
         :: repulsion energy           1.646913595300 Eh    ::

    * Orbital Energies and Occupations

         #    Occupation            Energy/Eh            Energy/eV
      -------------------------------------------------------------
         1        2.0000           -0.6500176             -17.6879
       ...           ...                  ...                  ...
        68        2.0000           -0.4161601             -11.3243
        69        2.0000           -0.4160872             -11.3223
        70        2.0000           -0.4131598             -11.2427
        71        2.0000           -0.4112209             -11.1899
        72        2.0000           -0.4079547             -11.1010
        73        2.0000           -0.4074388             -11.0870
        74        2.0000           -0.4051986             -11.0260
        75        2.0000           -0.3929843             -10.6936
        76        2.0000           -0.3905161             -10.6265
        77        2.0000           -0.3767826             -10.2528
        78        2.0000           -0.3759589             -10.2304
        79        1.0000           -0.3530189              -9.6061
        80        1.0000           -0.2893778              -7.8744 (HOMO)
        81        0.0000           -0.2613489              -7.1117 (LUMO)
        82        0.0000           -0.2601855              -7.0800
        83                         -0.2400714              -6.5327
        84                         -0.2366049              -6.4383
        85                         -0.2172360              -5.9113
        86                         -0.2118467              -5.7646
        87                         -0.1910648              -5.1991
        88                         -0.1873914              -5.0992
        89                         -0.1763693              -4.7993
        90                         -0.1739286              -4.7328
        91                         -0.1437518              -3.9117
       ...                                ...                  ...
       158                          0.7250694              19.7301
      -------------------------------------------------------------
                  HL-Gap            0.0280289 Eh            0.7627 eV

     #   Z          covCN         q      C6AA      α(0)
     1   6 C        2.916    -0.032    28.787     8.798
     2   6 C        2.915    -0.031    28.778     8.797
     3   6 C        2.918    -0.037    28.911     8.817
     4   6 C        2.983     0.011    27.762     8.643
     5   6 C        2.924    -0.042    29.040     8.837
     6   6 C        2.971     0.009    27.822     8.652
     7   6 C        2.970     0.008    27.839     8.655
     8   6 C        2.916    -0.036    28.889     8.814
     9   6 C        2.916    -0.039    28.981     8.828
    10   6 C        2.976     0.011    27.762     8.643
    11   6 C        2.918    -0.047    29.159     8.855
    12   6 C        2.975     0.012    27.750     8.641
    13   6 C        2.923    -0.043    29.074     8.842
    14   6 C        2.970     0.008    27.839     8.655
    15   6 C        2.971     0.009    27.822     8.652
    16   6 C        2.919    -0.036    28.886     8.814
    17   6 C        2.915    -0.037    28.922     8.819
    18   6 C        2.986     0.010    27.783     8.646
    19   6 C        2.917    -0.036    28.897     8.815
    20   6 C        2.916    -0.032    28.787     8.798
    21   6 C        2.915    -0.031    28.778     8.797
    22   6 C        2.918    -0.037    28.912     8.817
    23   6 C        2.983     0.011    27.762     8.643
    24   6 C        2.924    -0.042    29.040     8.837
    25   6 C        2.916    -0.036    28.889     8.814
    26   6 C        2.916    -0.039    28.981     8.828
    27   6 C        2.976     0.011    27.762     8.643
    28   6 C        2.918    -0.047    29.159     8.855
    29   6 C        2.975     0.012    27.750     8.641
    30   6 C        2.923    -0.043    29.074     8.842
    31   6 C        2.919    -0.036    28.886     8.814
    32   6 C        2.915    -0.037    28.922     8.819
    33   6 C        2.986     0.010    27.783     8.646
    34   6 C        2.917    -0.036    28.897     8.815
    35   1 H        0.926     0.031     2.579     2.511
    36   1 H        0.926     0.031     2.578     2.511
    37   1 H        0.926     0.032     2.564     2.504
    38   1 H        0.926     0.034     2.524     2.484
    39   1 H        0.926     0.033     2.541     2.493
    40   1 H        0.926     0.031     2.570     2.507
    41   1 H        0.926     0.031     2.570     2.507
    42   1 H        0.926     0.034     2.530     2.487
    43   1 H        0.926     0.034     2.531     2.488
    44   1 H        0.925     0.032     2.554     2.499
    45   1 H        0.926     0.032     2.564     2.504
    46   1 H        0.926     0.031     2.579     2.511
    47   1 H        0.926     0.031     2.578     2.511
    48   1 H        0.926     0.032     2.564     2.504
    49   1 H        0.926     0.034     2.524     2.484
    50   1 H        0.926     0.033     2.541     2.493
    51   1 H        0.926     0.031     2.570     2.507
    52   1 H        0.926     0.031     2.570     2.507
    53   1 H        0.926     0.034     2.530     2.487
    54   1 H        0.926     0.034     2.531     2.488
    55   1 H        0.925     0.032     2.554     2.499
    56   1 H        0.926     0.032     2.564     2.504

molecular dipole:
                 x           y           z       tot (Debye)
 q only:       -0.001       0.000       0.007
   full:       -0.001      -0.001       0.002       0.007

 projected vibrational frequencies (cm⁻¹)
eigval :       -0.00    -0.00    -0.00     0.00     0.00     0.00
eigval :        7.36    27.83    35.18    36.99    48.03    54.01
eigval :       78.16   107.32   108.20   147.08   168.61   171.44
eigval :      171.77   179.52   217.76   233.27   254.29   265.84
eigval :      284.13   317.75   339.30   340.06   366.28   370.32
eigval :      390.88   397.08   409.13   411.96   436.21   442.87
eigval :      444.92   452.97   489.44   491.45   499.27   503.36
eigval :      505.83   538.40   556.28   569.31   572.17   586.80
eigval :      587.74   618.81   627.43   634.93   654.06   677.31
eigval :      697.79   716.30   720.26   721.23   742.96   750.99
eigval :      752.86   775.93   779.35   795.24   796.54   801.20
eigval :      810.30   818.58   826.92   831.28   832.42   837.02
eigval :      837.55   858.69   862.72   870.24   873.95   874.85
eigval :      887.86   888.38   893.33   893.72   910.56   911.75
eigval :      921.95   923.13   924.21   926.65   960.09   960.41
eigval :     1070.39  1070.70  1079.97  1080.31  1128.74  1140.77
eigval :     1141.50  1147.77  1155.12  1174.39  1177.11  1178.07
eigval :     1178.98  1180.78  1205.79  1206.23  1227.06  1229.45
eigval :     1231.59  1237.77  1256.72  1260.87  1264.83  1265.16
eigval :     1282.76  1289.84  1305.23  1318.91  1326.18  1333.34
eigval :     1333.47  1365.18  1369.68  1385.35  1393.58  1394.71
eigval :     1414.16  1417.46  1421.17  1427.38  1436.56  1441.65
eigval :     1446.70  1468.32  1495.85  1495.87  1502.57  1502.78
eigval :     1518.74  1521.15  1543.98  1547.18  1587.64  1590.71
eigval :     1600.41  1600.48  3063.17  3063.60  3063.84  3063.93
eigval :     3065.76  3066.00  3067.07  3067.40  3069.54  3071.03
eigval :     3073.54  3073.56  3074.59  3074.70  3080.52  3080.85
eigval :     3082.37  3082.96  3084.73  3084.87  3086.12  3087.78

   temp. (K)  partition function   enthalpy   heat capacity  entropy
                                   cal/mol     cal/K/mol   cal/K/mol   J/K/mol
 298.15  VIB  0.244E+11            14519.236     98.055     87.472
         ROT  0.185E+08              888.752      2.981     36.234
         INT  0.451E+18            15407.989    101.036    123.706
         TR   0.864E+28             1481.254      4.968     44.050
         TOT                       16889.2427   106.0045   167.7552   701.8877

       T/K    H(0)-H(T)+PV         H(T)/Eh          T*S/Eh         G(T)/Eh
   ------------------------------------------------------------------------
    298.15    0.269147E-01    0.457519E+00    0.797059E-01    0.377813E+00
   ------------------------------------------------------------------------

         :::::::::::::::::::::::::::::::::::::::::::::::::::::
         ::                  THERMODYNAMIC                  ::
         :::::::::::::::::::::::::::::::::::::::::::::::::::::
         :: total free energy         -83.618194342957 Eh   ::
         ::.................................................::
         :: total energy              -83.996007144853 Eh   ::
         :: zero point energy           0.430603988236 Eh   ::
         :: G(RRHO) w/o ZPVE           -0.052791186340 Eh   ::
         :: G(RRHO) contrib.            0.377812801896 Eh   ::
         :::::::::::::::::::::::::::::::::::::::::::::::::::::

           -------------------------------------------------
          | TOTAL ENERGY              -83.996007144853 Eh   |
          | TOTAL ENTHALPY            -83.538488435244 Eh   |
          | TOTAL FREE ENERGY         -83.618194342957 Eh   |
          | GRADIENT NORM               0.000130107265 Eh/α |
          | HOMO-LUMO GAP               0.762705023402 eV   |
           -------------------------------------------------

 * finished run on 2025/09/13 at 05:17:16.374
