   * xtb version 6.7.1 (edcfbbe) compiled by 'albert@albert-system' on 2024-07-22

   ID    Z sym.   atoms
    1    6 C      1-34
    2    1 H      35-56

          program call               : xtb data2507/toluene/19a/19a.xyz --gfn 2 --gbsa toluene --ohess vtight --parallel 40 --molden --ceasefiles --namespace data2507/toluene/19a/19a_toluene_S0_preOpt
      * Solvation model:               GBSA
        Solvent                        toluene
        Solvent mass                       9.2140E+01 g/mol
          :  Hamiltonian                  GFN2-xTB          :
 * total energy  :   -84.0513099 Eh     change       -0.7042189E-09 Eh
 * total energy  :   -84.0621378 Eh     change       -0.1082788E-01 Eh
 * total energy  :   -84.0647144 Eh     change       -0.2576627E-02 Eh
 * total energy  :   -84.0651009 Eh     change       -0.3864410E-03 Eh
 * total energy  :   -84.0654160 Eh     change       -0.3150867E-03 Eh
 * total energy  :   -84.0655043 Eh     change       -0.8828293E-04 Eh
 * total energy  :   -84.0656122 Eh     change       -0.1079878E-03 Eh
 * total energy  :   -84.0657429 Eh     change       -0.1306449E-03 Eh
 * total energy  :   -84.0658860 Eh     change       -0.1431482E-03 Eh
 * total energy  :   -84.0660376 Eh     change       -0.1515732E-03 Eh
 * total energy  :   -84.0664836 Eh     change       -0.1878174E-06 Eh
 * total energy  :   -84.0664838 Eh     change       -0.2093411E-06 Eh
 * total energy  :   -84.0664840 Eh     change       -0.2399125E-06 Eh
 * total energy  :   -84.0664842 Eh     change       -0.2279409E-06 Eh
 * total energy  :   -84.0664845 Eh     change       -0.2282276E-06 Eh
 * total energy  :   -84.0664847 Eh     change       -0.2455200E-06 Eh
 * total energy  :   -84.0664849 Eh     change       -0.2155786E-06 Eh
 * total energy  :   -84.0664850 Eh     change       -0.1209769E-06 Eh
 * total energy  :   -84.0664851 Eh     change       -0.5716377E-07 Eh
   *** GEOMETRY OPTIMIZATION CONVERGED AFTER 32 ITERATIONS ***

 final structure:
================
56
 xtb: 6.7.1 (edcfbbe)
C           -9.86997028304249        1.19690669329534       -0.11813659554542
C           -9.02489545551678        2.25361944207963       -0.49448021428124
C           -7.67276137784180        2.06621655060560       -0.56255598500194
C           -7.10210403150041        0.81155247031609       -0.25726350773358
C           -5.71348146964299        0.58667879084857       -0.32156391487470
C           -5.17152891836435       -0.64379600136630       -0.03218354602462
C           -3.72092560194619       -0.86825010317184       -0.11783092371358
C           -3.22602418975302       -2.05681761420257       -0.71761273807975
C           -1.89018318223940       -2.28105892565964       -0.82959394434479
C           -0.94478628039990       -1.34041858774865       -0.34442076630304
C            0.42763609667582       -1.54197378585741       -0.45130639110734
C            1.34138408216288       -0.60468859951935        0.02736259656092
C            2.73974440821822       -0.79700470320058       -0.07905715568229
C            3.63006485166703        0.13489910333262        0.38471288903921
C            5.08101856769092       -0.06931636615547        0.26238639667667
C            5.64180896323708       -1.33636939438828        0.53921256462829
C            6.98696880801699       -1.54429194952212        0.44310191401713
C            7.85685971769063       -0.50289349414533        0.05431312870831
C            9.25093827011067       -0.68440968405750       -0.05397310569911
C           10.06208824014125        0.34817604096471       -0.43546128737764
C            9.51538450335404        1.60837581239757       -0.72739108317779
C            8.16787394549801        1.81611285325676       -0.63060647337372
C            7.30349610291773        0.77221683562948       -0.23557419293760
C            5.91241511369141        0.95833972411871       -0.11725735695392
C            3.13480509058894        1.31808286531400        0.99507630898866
C            1.79931089707835        1.53351997328406        1.12501055640356
C            0.85385096220089        0.58988390493491        0.64547461090141
C           -0.51846191339294        0.79015830921465        0.75490897037605
C           -1.43229444478633       -0.14427535865270        0.27068689619939
C           -2.83049932889992        0.05551665724401        0.36183082574833
C           -6.03231227475099       -1.69949134849707        0.34296984230699
C           -7.38143269561356       -1.50956616359966        0.42197045814736
C           -7.95768169725129       -0.25667999477986        0.12136617373172
C           -9.34802490041095       -0.03026055118665        0.18400105209158
H          -10.93660516043034        1.36347220610886       -0.06982681018590
H           -9.45462113660529        3.21672060811320       -0.73039912308167
H           -7.01867382884961        2.87699407095387       -0.85198758437838
H           -5.07143614784612        1.40079409908192       -0.62798328741114
H           -3.93332367867962       -2.77418910358952       -1.10829594154211
H           -1.52231499468054       -3.18365849750370       -1.29753399700160
H            0.79427489488545       -2.44631347476150       -0.91801126842293
H            3.09574868823560       -1.69643427773136       -0.56194758976718
H            4.98846439585659       -2.13769612039672        0.85320120109436
H            7.40769355359995       -2.51462812812959        0.66784800507896
H            9.66674274331776       -1.65699834212318        0.17001358582913
H           11.12974623541461        0.20227585496648       -0.51669531492976
H           10.17084007274731        2.41265662138988       -1.02980682747328
H            7.74329434171579        2.78497886611496       -0.85420098288092
H            5.50096833204659        1.93004403666372       -0.35309326488012
H            3.84368154921279        2.03850187589439        1.37709111406022
H            1.43147499717711        2.43259264820997        1.59968734606221
H           -0.88521539613583        1.69410550171355        1.22225230855827
H           -3.18866482916276        0.95699941444151        0.83919653756312
H           -5.60457576428910       -2.66057180083425        0.59010048019367
H           -8.03115902891386       -2.32154790310933        0.71813059424449
H           -9.99461741420312       -0.84679255659854        0.47414581695910

          :  Hamiltonian                  GFN2-xTB          :
         :: gradient norm              0.000059680057 Eh/a0 ::
         :: HOMO-LUMO gap              2.107564155787 eV    ::
         :: SCC energy               -85.731205935270 Eh    ::
         :: -> dispersion             -0.070835048641 Eh    ::
         :: -> Gsolv                  -0.035548408113 Eh    ::
         :: repulsion energy           1.664720839201 Eh    ::

    * Orbital Energies and Occupations

         #    Occupation            Energy/Eh            Energy/eV
      -------------------------------------------------------------
         1        2.0000           -0.6509718             -17.7138
       ...           ...                  ...                  ...
        67        2.0000           -0.4230406             -11.5115
        68        2.0000           -0.4163343             -11.3290
        69        2.0000           -0.4144605             -11.2780
        70        2.0000           -0.4131799             -11.2432
        71        2.0000           -0.4106783             -11.1751
        72        2.0000           -0.4083484             -11.1117
        73        2.0000           -0.4069603             -11.0740
        74        2.0000           -0.4040676             -10.9952
        75        2.0000           -0.3938140             -10.7162
        76        2.0000           -0.3901260             -10.6159
        77        2.0000           -0.3770534             -10.2601
        78        2.0000           -0.3765074             -10.2453
        79        2.0000           -0.3590239              -9.7695 (HOMO)
        80                         -0.2815723              -7.6620 (LUMO)
        81                         -0.2598948              -7.0721
        82                         -0.2592609              -7.0548
        83                         -0.2394659              -6.5162
        84                         -0.2341154              -6.3706
        85                         -0.2153949              -5.8612
        86                         -0.2150670              -5.8523
        87                         -0.1899374              -5.1685
        88                         -0.1873527              -5.0981
        89                         -0.1738804              -4.7315
        90                         -0.1723141              -4.6889
       ...                                ...                  ...
       158                          0.7252831              19.7360
      -------------------------------------------------------------
                  HL-Gap            0.0774516 Eh            2.1076 eV

     #   Z          covCN         q      C6AA      α(0)
     1   6 C        2.916    -0.032    28.791     8.799
     2   6 C        2.915    -0.031    28.782     8.797
     3   6 C        2.918    -0.036    28.908     8.817
     4   6 C        2.985     0.011    27.764     8.643
     5   6 C        2.924    -0.042    29.044     8.838
     6   6 C        2.973     0.008    27.837     8.654
     7   6 C        2.972     0.008    27.828     8.653
     8   6 C        2.918    -0.034    28.853     8.808
     9   6 C        2.914    -0.037    28.921     8.819
    10   6 C        2.982     0.009    27.811     8.650
    11   6 C        2.921    -0.044    29.092     8.845
    12   6 C        2.981     0.010    27.797     8.648
    13   6 C        2.923    -0.042    29.033     8.836
    14   6 C        2.972     0.008    27.828     8.653
    15   6 C        2.973     0.008    27.836     8.654
    16   6 C        2.920    -0.036    28.884     8.813
    17   6 C        2.916    -0.037    28.920     8.819
    18   6 C        2.987     0.010    27.792     8.648
    19   6 C        2.918    -0.036    28.899     8.815
    20   6 C        2.916    -0.032    28.790     8.799
    21   6 C        2.915    -0.031    28.782     8.797
    22   6 C        2.918    -0.037    28.909     8.817
    23   6 C        2.985     0.011    27.770     8.644
    24   6 C        2.924    -0.041    29.030     8.836
    25   6 C        2.918    -0.035    28.864     8.810
    26   6 C        2.914    -0.037    28.917     8.818
    27   6 C        2.982     0.009    27.810     8.650
    28   6 C        2.921    -0.044    29.091     8.845
    29   6 C        2.981     0.010    27.792     8.648
    30   6 C        2.923    -0.042    29.044     8.838
    31   6 C        2.920    -0.035    28.869     8.811
    32   6 C        2.916    -0.037    28.926     8.819
    33   6 C        2.987     0.010    27.792     8.648
    34   6 C        2.917    -0.036    28.899     8.815
    35   1 H        0.926     0.030     2.582     2.513
    36   1 H        0.926     0.030     2.581     2.512
    37   1 H        0.926     0.031     2.566     2.505
    38   1 H        0.926     0.033     2.549     2.497
    39   1 H        0.926     0.033     2.546     2.495
    40   1 H        0.926     0.032     2.556     2.500
    41   1 H        0.925     0.032     2.552     2.498
    42   1 H        0.926     0.033     2.548     2.496
    43   1 H        0.926     0.033     2.548     2.496
    44   1 H        0.925     0.032     2.554     2.499
    45   1 H        0.926     0.031     2.566     2.505
    46   1 H        0.926     0.030     2.583     2.513
    47   1 H        0.926     0.030     2.582     2.513
    48   1 H        0.926     0.031     2.567     2.506
    49   1 H        0.925     0.033     2.544     2.494
    50   1 H        0.926     0.033     2.549     2.497
    51   1 H        0.926     0.032     2.555     2.500
    52   1 H        0.925     0.032     2.552     2.498
    53   1 H        0.926     0.032     2.553     2.498
    54   1 H        0.926     0.033     2.544     2.494
    55   1 H        0.925     0.032     2.556     2.500
    56   1 H        0.926     0.031     2.566     2.505

molecular dipole:
                 x           y           z       tot (Debye)
 q only:       -0.006      -0.027       0.005
   full:       -0.005      -0.022      -0.002       0.058

 projected vibrational frequencies (cm⁻¹)
eigval :       -0.00    -0.00    -0.00     0.00     0.00     0.00
eigval :       15.91    28.72    31.32    41.83    51.42    56.33
eigval :       82.74   113.30   122.93   135.66   156.01   170.88
eigval :      173.22   201.90   210.64   237.58   254.23   282.36
eigval :      293.20   337.82   341.40   350.73   371.79   376.06
eigval :      404.52   413.51   430.06   434.55   450.14   451.88
eigval :      454.21   458.53   491.37   497.54   502.09   506.36
eigval :      511.99   539.95   565.65   584.32   587.28   593.56
eigval :      604.00   615.42   638.94   648.15   655.36   702.17
eigval :      714.12   725.37   725.83   727.60   756.30   757.93
eigval :      787.25   789.92   797.61   798.51   819.10   831.67
eigval :      832.47   837.99   842.51   860.79   865.30   866.75
eigval :      873.39   874.20   878.10   880.34   882.93   885.82
eigval :      889.75   891.35   915.80   915.84   921.81   922.54
eigval :      927.07   928.28   928.81   931.06   963.27   967.98
eigval :     1073.49  1075.56  1080.66  1081.54  1142.94  1144.24
eigval :     1151.11  1166.55  1168.82  1174.67  1177.98  1178.92
eigval :     1179.11  1182.73  1200.22  1201.94  1228.15  1229.16
eigval :     1241.97  1249.46  1259.04  1260.81  1265.12  1266.79
eigval :     1284.49  1298.79  1324.30  1327.58  1332.21  1334.32
eigval :     1366.84  1369.75  1395.94  1398.40  1402.63  1421.68
eigval :     1424.64  1426.05  1431.69  1440.81  1456.92  1467.06
eigval :     1475.30  1502.23  1503.13  1530.28  1537.31  1560.43
eigval :     1560.78  1580.70  1595.04  1603.42  1605.72  1608.89
eigval :     1609.88  1618.95  3061.28  3061.57  3061.77  3062.95
eigval :     3063.05  3063.34  3064.68  3065.03  3065.51  3065.99
eigval :     3068.59  3068.82  3070.37  3071.61  3073.20  3073.45
eigval :     3079.20  3079.91  3080.97  3081.95  3084.74  3085.28

   temp. (K)  partition function   enthalpy   heat capacity  entropy
                                   cal/mol     cal/K/mol   cal/K/mol   J/K/mol
 298.15  VIB  0.674E+10            14210.536     96.502     84.977
         ROT  0.365E+08              888.752      2.981     37.585
         INT  0.246E+18            15099.288     99.483    122.562
         TR   0.864E+28             1481.254      4.968     44.050
         TOT                       16580.5419   104.4512   166.6112   697.1014

       T/K    H(0)-H(T)+PV         H(T)/Eh          T*S/Eh         G(T)/Eh
   ------------------------------------------------------------------------
    298.15    0.264228E-01    0.460699E+00    0.791624E-01    0.381537E+00
   ------------------------------------------------------------------------

         :::::::::::::::::::::::::::::::::::::::::::::::::::::
         ::                  THERMODYNAMIC                  ::
         :::::::::::::::::::::::::::::::::::::::::::::::::::::
         :: total free energy         -83.684948333105 Eh   ::
         ::.................................................::
         :: total energy              -84.066485089963 Eh   ::
         :: zero point energy           0.434276356910 Eh   ::
         :: G(RRHO) w/o ZPVE           -0.052739600052 Eh   ::
         :: G(RRHO) contrib.            0.381536756858 Eh   ::
         :::::::::::::::::::::::::::::::::::::::::::::::::::::

           -------------------------------------------------
          | TOTAL ENERGY              -84.066485089963 Eh   |
          | TOTAL ENTHALPY            -83.605785957667 Eh   |
          | TOTAL FREE ENERGY         -83.684948333105 Eh   |
          | GRADIENT NORM               0.000059679485 Eh/α |
          | HOMO-LUMO GAP               2.107564150514 eV   |
           -------------------------------------------------

 * finished run on 2025/09/13 at 05:12:32.159
