   * xtb version 6.7.1 (edcfbbe) compiled by 'albert@albert-system' on 2024-07-22

   ID    Z sym.   atoms
    1    6 C      1-9, 11-15, 17-38
    2    7 N      10, 16
    3    1 H      39-70

          program call               : xtb data2507/gas/mAP/mAP_gas_S0_finalOpt.xtbopt.xyz --gfn 2 --spinpol --tblite --uhf 2 --ohess vtight --parallel 40 --molden --ceasefiles --namespace data2507/gas/mAP/mAP_gas_T1_preOpt
 * total energy  :   -99.2037343 Eh     change        0.4494467E-08 Eh
 * total energy  :   -99.2060413 Eh     change       -0.2307052E-02 Eh
 * total energy  :   -99.2066179 Eh     change       -0.5766171E-03 Eh
 * total energy  :   -99.2067101 Eh     change       -0.9212400E-04 Eh
 * total energy  :   -99.2067497 Eh     change       -0.3962247E-04 Eh
 * total energy  :   -99.2067786 Eh     change       -0.2895035E-04 Eh
 * total energy  :   -99.1922658 Eh     change        0.1451282E-01 Eh
 * total energy  :   -99.2066420 Eh     change       -0.1437618E-01 Eh
 * total energy  :   -99.2068634 Eh     change       -0.2213563E-03 Eh
 * total energy  :   -99.2069715 Eh     change       -0.1081764E-03 Eh
 * total energy  :   -99.2074923 Eh     change       -0.1082039E-05 Eh
 * total energy  :   -99.2074932 Eh     change       -0.8666661E-06 Eh
 * total energy  :   -99.2074936 Eh     change       -0.4421380E-06 Eh
 * total energy  :   -99.2074939 Eh     change       -0.2354387E-06 Eh
 * total energy  :   -99.2074937 Eh     change        0.1493923E-06 Eh
 * total energy  :   -99.2074940 Eh     change       -0.2502826E-06 Eh
 * total energy  :   -99.2074939 Eh     change        0.8973251E-07 Eh
 * total energy  :   -99.2074941 Eh     change       -0.1772165E-06 Eh
 * total energy  :   -99.2074941 Eh     change       -0.3252580E-08 Eh
   *** GEOMETRY OPTIMIZATION CONVERGED AFTER 44 ITERATIONS ***

 final structure:
================
70
 xtb: 6.7.1 (edcfbbe)
C            6.33424908455492       -0.40875828725112        0.31440726799708
C            4.94297327694250       -0.22364662219947        0.95396494148120
C            5.06995955662414       -0.22749203888509        2.49096515096550
C            4.07134751851090       -1.38205328489671        0.53515809592374
C            4.42130875244647       -2.67555304819222        0.85302250149897
C            3.66415527362164       -3.77306449098311        0.45359831656902
C            2.50926128068379       -3.56732248443521       -0.32694473829116
C            2.12563037538177       -2.30227824410957       -0.65603126456538
C            2.87011843706797       -1.17376279145540       -0.21995049173156
N            2.44427394133548        0.08848350497953       -0.52004920847876
C            1.20706300283597        0.24248742696476       -1.20537120960676
C            1.19936723903173        0.52687395315212       -2.58782456310654
C           -0.00803495813079        0.66520358088615       -3.24196399935232
C           -1.20707293888513        0.53271679367302       -2.56316150485280
C           -1.19087019071425        0.25020734884132       -1.18109831361840
N           -2.41706468001443        0.10987809700436       -0.47266306614399
C           -3.06201842227196        1.24470960432310       -0.02064231759517
C           -2.48737476626741        2.50045174985170       -0.24951966136967
C           -3.10769226318786        3.65234441867453        0.18186936584052
C           -4.31490235482734        3.57406156494232        0.85505609378637
C           -4.88046486121682        2.33460313409039        1.09156706417639
C           -4.27800836758362        1.15774879089407        0.66907154896067
C           -4.94095202889649       -0.17267830818091        0.96668590602407
C           -6.33045796722189       -0.19175759333274        0.30304062100583
C           -5.07812715245578       -0.32367255720543        2.49310134967080
C           -4.13360494575367       -1.33914336411851        0.43216742364517
C           -4.59398514843254       -2.63508197846710        0.61899796749944
C           -3.90522438380361       -3.73465256519024        0.14107418335668
C           -2.72305541076648       -3.54533883521558       -0.55430261015624
C           -2.24301817134945       -2.27008867972733       -0.75468483720597
C           -2.93037313770529       -1.15520289864833       -0.26120084899073
C            0.01173468979790        0.10712192668094       -0.51306128121715
C            3.14271350389657        1.21166875451427       -0.17663319541842
C            2.62997139487786        2.49617951524881       -0.49463659780423
C            3.32526050426084        3.62689160713216       -0.18304341438284
C            4.56594414109503        3.53198239189649        0.47533652483234
C            5.05904841026075        2.27869831340766        0.82258223317030
C            4.38693600619643        1.11259440803254        0.52607349281962
H            6.24613045297497       -0.40097704106260       -0.77014806991745
H            6.77372129656296       -1.35485301131822        0.61717691577502
H            7.00514070971191        0.39217452634552        0.61152913664715
H            4.08811440259968       -0.10223713173155        2.94312610735402
H            5.70941610452810        0.58382309525963        2.82669657198519
H            5.49334786167907       -1.16464302404676        2.84067084160344
H            5.31702417329238       -2.86041761619348        1.42762862087972
H            3.96762022775666       -4.77128540648193        0.72416835810818
H            1.93389357409859       -4.41529346723236       -0.66568013148251
H            1.24997030931055       -2.14224273154039       -1.26517360790421
H            2.13710206982799        0.62607373114775       -3.11095065188659
H           -0.01701458403924        0.87900682902008       -4.30073482549561
H           -2.15283666933563        0.63942023987047       -3.06950180770452
H           -1.54499080028198        2.56267522726068       -0.77078341216300
H           -2.64748007236060        4.61069116307074       -0.00662668323031
H           -4.81131310151686        4.46949769686222        1.19669503789331
H           -5.81940135245066        2.28988731801804        1.62251043090670
H           -6.94688349311122        0.62394961078398        0.67049824278333
H           -6.22665769868069       -0.08531449651348       -0.77518109690695
H           -6.84502841035213       -1.12656543256041        0.50731886124590
H           -5.56375210571442       -1.26146896060278        2.74805313363716
H           -4.09318569102979       -0.30968823918747        2.95609936920493
H           -5.66556853468600        0.48853673804479        2.91204871358521
H           -5.51860183070074       -2.79851322929095        1.15182476260740
H           -4.29125203142319       -4.72894127851170        0.30621332683833
H           -2.17478459632851       -4.39061148434652       -0.94235877774232
H           -1.32655953952314       -2.12379466263839       -1.30416377497577
H            0.02196878185958       -0.11295222120954        0.54494636680855
H            1.67483243526027        2.56751824222018       -0.99082946549427
H            2.92527020721213        4.59712368376654       -0.43513132545681
H            5.12139456778965        4.42257281153307        0.72092460326049
H            6.00240968576647        2.23238410482358        1.34647297711199

 projected vibrational frequencies (cm⁻¹)
eigval :       -0.00    -0.00    -0.00     0.00     0.00     0.00
eigval :        3.55     5.62    11.81    19.57    43.41    54.72
eigval :       56.62    61.16    78.37    93.41    95.33   102.96
eigval :      129.58   136.28   137.96   187.17   191.42   202.63
eigval :      203.25   211.34   218.62   219.45   226.84   237.39
eigval :      246.31   271.24   301.60   307.31   316.41   321.05
eigval :      328.99   343.28   352.80   357.82   364.63   379.63
eigval :      383.64   386.08   394.04   399.88   405.48   419.24
eigval :      450.93   471.01   493.57   500.96   511.54   512.45
eigval :      523.33   536.41   543.92   545.80   559.57   573.02
eigval :      586.18   595.15   608.78   619.96   633.80   641.22
eigval :      650.99   652.14   664.95   681.26   686.65   695.11
eigval :      711.51   714.82   718.95   745.47   772.34   773.36
eigval :      775.41   807.69   812.09   814.48   818.13   824.61
eigval :      863.59   864.35   865.83   874.90   878.24   888.29
eigval :      889.79   894.59   897.07   907.07   912.10   913.06
eigval :      914.02   919.74   920.09   925.57   937.87   954.72
eigval :      956.90   957.08   991.23  1011.43  1013.61  1018.54
eigval :     1027.46  1058.36  1066.97  1076.66  1082.60  1089.91
eigval :     1105.36  1109.07  1116.07  1118.50  1134.43  1135.47
eigval :     1138.49  1139.44  1157.04  1172.27  1179.55  1182.96
eigval :     1185.26  1187.06  1198.06  1200.12  1215.31  1232.93
eigval :     1244.91  1245.71  1255.84  1259.20  1261.21  1271.82
eigval :     1289.45  1294.49  1296.75  1320.35  1324.46  1335.19
eigval :     1336.29  1337.07  1347.57  1356.34  1367.78  1386.81
eigval :     1396.57  1401.41  1412.88  1416.18  1418.90  1422.04
eigval :     1430.40  1436.25  1437.30  1451.83  1461.87  1467.35
eigval :     1472.95  1485.86  1485.89  1487.05  1488.63  1489.38
eigval :     1493.10  1497.16  1498.99  1502.19  1503.17  1562.57
eigval :     1565.32  1578.66  1583.79  1595.62  3027.08  3028.94
eigval :     3029.84  3031.61  3039.78  3041.62  3042.29  3043.76
eigval :     3048.20  3049.39  3051.87  3052.96  3076.43  3077.30
eigval :     3078.58  3079.13  3079.38  3081.12  3083.81  3083.99
eigval :     3084.39  3084.62  3095.07  3095.58  3099.41  3100.10
eigval :     3100.79  3103.71  3104.72  3105.33  3106.42  3107.59

   temp. (K)  partition function   enthalpy   heat capacity  entropy
                                   cal/mol     cal/K/mol   cal/K/mol   J/K/mol
 298.15  VIB  0.257E+16            19335.398    124.585    120.763
         ROT  0.347E+08              888.752      2.981     37.482
         INT  0.889E+23            20224.151    127.566    158.245
         TR   0.106E+29             1481.254      4.968     44.451
         TOT                       21705.4045   132.5337   202.6962   848.0807

       T/K    H(0)-H(T)+PV         H(T)/Eh          T*S/Eh         G(T)/Eh
   ------------------------------------------------------------------------
    298.15    0.345898E-01    0.593205E+00    0.963075E-01    0.496898E+00
   ------------------------------------------------------------------------

         :::::::::::::::::::::::::::::::::::::::::::::::::::::
         ::                  THERMODYNAMIC                  ::
         :::::::::::::::::::::::::::::::::::::::::::::::::::::
         :: total free energy         -98.710596322411 Eh   ::
         ::.................................................::
         :: total energy              -99.207494079554 Eh   ::
         :: zero point energy           0.558615478614 Eh   ::
         :: G(RRHO) w/o ZPVE           -0.061717721472 Eh   ::
         :: G(RRHO) contrib.            0.496897757142 Eh   ::
         :::::::::::::::::::::::::::::::::::::::::::::::::::::

           -------------------------------------------------
          | TOTAL ENERGY              -99.207494079554 Eh   |
          | TOTAL ENTHALPY            -98.614288837098 Eh   |
          | TOTAL FREE ENERGY         -98.710596322411 Eh   |
          | GRADIENT NORM               0.000068304486 Eh/α |
           -------------------------------------------------

 * finished run on 2025/08/22 at 17:10:24.492
