   * xtb version 6.7.1 (edcfbbe) compiled by 'albert@albert-system' on 2024-07-22

   ID    Z sym.   atoms
    1    6 C      1-9, 11-15, 17-38
    2    7 N      10, 16
    3    1 H      39-70

          program call               : xtb data2507/gas/mAP/mAP.xyz --gfn 2 --ohess vtight --parallel 40 --molden --ceasefiles --namespace data2507/gas/mAP/mAP_gas_S0_preOpt
          :  Hamiltonian                  GFN2-xTB          :
 * total energy  :   -99.2937269 Eh     change       -0.1305239E-08 Eh
 * total energy  :   -99.3107248 Eh     change       -0.1699791E-01 Eh
 * total energy  :   -99.3164799 Eh     change       -0.5755118E-02 Eh
 * total energy  :   -99.3174366 Eh     change       -0.9567219E-03 Eh
 * total energy  :   -99.3178926 Eh     change       -0.4559417E-03 Eh
 * total energy  :   -99.3179916 Eh     change       -0.9908434E-04 Eh
 * total energy  :   -99.3180224 Eh     change       -0.3072965E-04 Eh
 * total energy  :   -99.3180436 Eh     change       -0.2121791E-04 Eh
 * total energy  :   -99.3180339 Eh     change        0.9678169E-05 Eh
 * total energy  :   -99.3180492 Eh     change       -0.1529305E-04 Eh
 * total energy  :   -99.3180778 Eh     change       -0.4926557E-06 Eh
 * total energy  :   -99.3180783 Eh     change       -0.4978098E-06 Eh
 * total energy  :   -99.3180788 Eh     change       -0.5461362E-06 Eh
 * total energy  :   -99.3180795 Eh     change       -0.6602265E-06 Eh
 * total energy  :   -99.3180802 Eh     change       -0.7173314E-06 Eh
 * total energy  :   -99.3180808 Eh     change       -0.5741875E-06 Eh
 * total energy  :   -99.3180810 Eh     change       -0.2406017E-06 Eh
 * total energy  :   -99.3180810 Eh     change        0.1050033E-07 Eh
 * total energy  :   -99.3180811 Eh     change       -0.4107537E-07 Eh
   *** GEOMETRY OPTIMIZATION CONVERGED AFTER 34 ITERATIONS ***

 final structure:
================
70
 xtb: 6.7.1 (edcfbbe)
C            6.36475180064744        0.00074618472007        0.10014905611632
C            4.99238100432147        0.00049175252195        0.79787402114812
C            5.17201759302297        0.00089201029413        2.32693390634310
C            4.24458239487026       -1.25744300795894        0.39716966574364
C            4.78463929009679       -2.50057989175034        0.69605073339053
C            4.14713349431316       -3.67951068214481        0.35581649102341
C            2.93240836123488       -3.62647227835942       -0.30316020587192
C            2.37385093854332       -2.40485857028574       -0.61429127630690
C            3.01732191254942       -1.21234043938918       -0.27197750380892
N            2.43181566903547       -0.00059695782016       -0.59956736737073
C            1.20036573894414       -0.00112468771303       -1.30922123090810
C            1.19983913588602       -0.00214695385101       -2.69902133900943
C           -0.00011969082701       -0.00263083620825       -3.38828013890318
C           -1.20000757670223       -0.00206866603749       -2.69889840491921
C           -1.20039414473844       -0.00104822158322       -1.30909822797374
N           -2.43177805762860       -0.00044153473604       -0.59932981821668
C           -3.01639770196466        1.21184608646852       -0.27216638255937
C           -2.37213837887763        2.40377954949096       -0.61502823316798
C           -2.92977210247843        3.62590651213036       -0.30425862162273
C           -4.14437065766789        3.68005546217872        0.35486004743449
C           -4.78271539456789        2.50170578855524        0.69553297131865
C           -4.24359635953807        1.25807386917294        0.39702156876871
C           -4.99237776523537        0.00082579153522        0.79804838652610
C           -6.36472048365000        0.00143020962500        0.10026776430813
C           -5.17208171565641        0.00098688977225        2.32709962792287
C           -4.24476192567430       -1.25716267850217        0.39717160355060
C           -4.78502018841584       -2.50026219877250        0.69584385295095
C           -4.14768576830931       -3.67923845425667        0.35544698268655
C           -2.93292023114694       -3.62628503044570       -0.30346201308252
C           -2.37416422681144       -2.40470947667201       -0.61438650456654
C           -3.01747519441659       -1.21214528053239       -0.27193373217945
C            0.00002129227369       -0.00059626775460       -0.61212164654377
C            3.01662402050943        1.21165106738056       -0.27259577214381
C            2.37254902215946        2.40363098611596       -0.61564316387759
C            2.93037455321230        3.62572019325691       -0.30506908130403
C            4.14498044360332        3.67978407077818        0.35404290689622
C            4.78313888466134        2.50138864466772        0.69490736659314
C            4.24382648447537        1.25779346511119        0.39659195668033
H            6.23068529738176        0.00043025261004       -0.98008658183012
H            6.93961702224408       -0.87954232822196        0.37431573619194
H            6.93905272214790        0.88154373695223        0.37385914228267
H            4.19833470373326        0.00073729830962        2.81342412956290
H            5.71830023472651        0.88131925645530        2.65375866154434
H            5.71876796390651       -0.87909522035703        2.65415932829652
H            5.73241930445185       -2.55782868061555        1.20985236316292
H            4.59595605654849       -4.62920747262549        0.60392353754910
H            2.41676566690521       -4.53490916866358       -0.57680480796120
H            1.42647107292766       -2.36961621141496       -1.13031829625375
H            2.14111199531787       -0.00255430538181       -3.22759238822426
H           -0.00017549859673       -0.00341934799442       -4.46773781829260
H           -2.14133454535179       -0.00242662683126       -3.22737307269129
H           -1.42488736647825        2.36767800725091       -1.13122903638886
H           -2.41351003654096        4.53387257076816       -0.57829939975504
H           -4.59246196876763        4.63016327004433        0.60271536033305
H           -5.73041840882393        2.55981977889284        1.20937981738498
H           -6.93890306846354        0.88225908619881        0.37412935678794
H           -6.23059624686929        0.00131399908565       -0.97996015300862
H           -6.93972771453730       -0.87883221959330        0.37422189133018
H           -5.71903938437528       -0.87893985432048        2.65414125175374
H           -4.19842269332857        0.00053790731813        2.81363880103057
H           -5.71819059101316        0.88147153298350        2.65405842938896
H           -5.73283213158818       -2.55744460394629        1.20959441437761
H           -4.59666448831497       -4.62890459443783        0.60338945048783
H           -2.41739728021040       -4.53475947145534       -0.57720913307421
H           -1.42674961200868       -2.36953323822471       -1.13035422556087
H            0.00007776093913        0.00020450480409        0.46770140568422
H            1.42529032856866        2.36759539665245       -1.13183483540164
H            2.41426225547789        4.53372364205102       -0.57926790913503
H            4.59322798813777        4.62986127625994        0.60173263735138
H            5.73084619180083        2.55943640844476        1.20875369801120

          :  Hamiltonian                  GFN2-xTB          :
         :: gradient norm              0.000014186153 Eh/a0 ::
         :: HOMO-LUMO gap              2.661243594301 eV    ::
         :: SCC energy              -101.122363185759 Eh    ::
         :: -> dispersion             -0.096772634129 Eh    ::
         :: repulsion energy           1.804282117437 Eh    ::

    * Orbital Energies and Occupations

         #    Occupation            Energy/Eh            Energy/eV
      -------------------------------------------------------------
         1        2.0000           -0.6765677             -18.4103
       ...           ...                  ...                  ...
        81        2.0000           -0.4179828             -11.3739
        82        2.0000           -0.4070853             -11.0774
        83        2.0000           -0.4063272             -11.0567
        84        2.0000           -0.4054801             -11.0337
        85        2.0000           -0.4039077             -10.9909
        86        2.0000           -0.4006989             -10.9036
        87        2.0000           -0.4006865             -10.9032
        88        2.0000           -0.3954567             -10.7609
        89        2.0000           -0.3954500             -10.7607
        90        2.0000           -0.3902232             -10.6185
        91        2.0000           -0.3902106             -10.6182
        92        2.0000           -0.3455213              -9.4021
        93        2.0000           -0.3430421              -9.3347 (HOMO)
        94                         -0.2452432              -6.6734 (LUMO)
        95                         -0.2446452              -6.6571
        96                         -0.2214233              -6.0252
        97                         -0.2214102              -6.0249
        98                         -0.2165219              -5.8919
        99                         -0.2164646              -5.8903
       100                         -0.2155376              -5.8651
       101                         -0.2154239              -5.8620
       102                         -0.1877604              -5.1092
       103                         -0.1866323              -5.0785
       104                         -0.1171857              -3.1888
       ...                                ...                  ...
       184                          0.6838664              18.6090
      -------------------------------------------------------------
                  HL-Gap            0.0977989 Eh            2.6612 eV

     #   Z          covCN         q      C6AA      α(0)
     1   6 C        3.761    -0.103    22.506     6.763
     2   6 C        3.909     0.021    20.156     6.381
     3   6 C        3.761    -0.103    22.510     6.763
     4   6 C        2.979    -0.014    28.364     8.736
     5   6 C        2.928    -0.036    28.897     8.816
     6   6 C        2.917    -0.045    29.117     8.849
     7   6 C        2.920    -0.033    28.816     8.803
     8   6 C        2.924    -0.058    29.451     8.900
     9   6 C        2.929     0.058    26.696     8.473
    10   7 N        2.755    -0.073    22.650     7.068
    11   6 C        2.928     0.074    26.350     8.418
    12   6 C        2.922    -0.040    28.987     8.829
    13   6 C        2.919    -0.027    28.681     8.782
    14   6 C        2.922    -0.040    28.987     8.829
    15   6 C        2.928     0.074    26.350     8.418
    16   7 N        2.755    -0.073    22.650     7.068
    17   6 C        2.929     0.058    26.696     8.473
    18   6 C        2.924    -0.058    29.451     8.900
    19   6 C        2.920    -0.033    28.816     8.803
    20   6 C        2.917    -0.045    29.117     8.849
    21   6 C        2.928    -0.036    28.897     8.816
    22   6 C        2.979    -0.014    28.364     8.736
    23   6 C        3.909     0.021    20.156     6.381
    24   6 C        3.761    -0.103    22.506     6.763
    25   6 C        3.761    -0.103    22.510     6.763
    26   6 C        2.979    -0.014    28.364     8.736
    27   6 C        2.928    -0.036    28.897     8.816
    28   6 C        2.917    -0.045    29.117     8.849
    29   6 C        2.920    -0.033    28.816     8.803
    30   6 C        2.924    -0.058    29.451     8.900
    31   6 C        2.929     0.058    26.696     8.473
    32   6 C        2.924    -0.046    29.151     8.854
    33   6 C        2.929     0.058    26.696     8.473
    34   6 C        2.924    -0.058    29.451     8.900
    35   6 C        2.920    -0.033    28.816     8.803
    36   6 C        2.917    -0.045    29.117     8.849
    37   6 C        2.928    -0.036    28.897     8.816
    38   6 C        2.979    -0.014    28.364     8.736
    39   1 H        0.925     0.031     2.577     2.510
    40   1 H        0.925     0.039     2.464     2.455
    41   1 H        0.925     0.039     2.464     2.455
    42   1 H        0.925     0.031     2.569     2.506
    43   1 H        0.925     0.039     2.464     2.455
    44   1 H        0.925     0.039     2.464     2.455
    45   1 H        0.926     0.029     2.595     2.519
    46   1 H        0.926     0.026     2.649     2.545
    47   1 H        0.926     0.027     2.631     2.536
    48   1 H        0.926     0.020     2.737     2.587
    49   1 H        0.926     0.047     2.358     2.401
    50   1 H        0.926     0.045     2.384     2.414
    51   1 H        0.926     0.047     2.358     2.401
    52   1 H        0.926     0.020     2.737     2.587
    53   1 H        0.926     0.027     2.631     2.536
    54   1 H        0.926     0.026     2.649     2.545
    55   1 H        0.926     0.029     2.595     2.519
    56   1 H        0.925     0.039     2.464     2.455
    57   1 H        0.925     0.031     2.577     2.510
    58   1 H        0.925     0.039     2.464     2.455
    59   1 H        0.925     0.039     2.464     2.455
    60   1 H        0.925     0.031     2.569     2.506
    61   1 H        0.925     0.039     2.464     2.455
    62   1 H        0.926     0.029     2.595     2.519
    63   1 H        0.926     0.026     2.649     2.545
    64   1 H        0.926     0.027     2.631     2.536
    65   1 H        0.926     0.020     2.737     2.587
    66   1 H        0.926     0.052     2.299     2.371
    67   1 H        0.926     0.020     2.737     2.587
    68   1 H        0.926     0.027     2.631     2.536
    69   1 H        0.926     0.026     2.649     2.545
    70   1 H        0.926     0.029     2.595     2.519

molecular dipole:
                 x           y           z       tot (Debye)
 q only:       -0.000      -0.000      -0.273
   full:       -0.000      -0.000      -0.334       0.849

 projected vibrational frequencies (cm⁻¹)
eigval :       -0.00    -0.00    -0.00     0.00     0.00     0.00
eigval :       -6.12    -2.75    15.65    24.04    39.64    56.58
eigval :       59.53    60.20    95.04    98.39    98.62   102.50
eigval :      129.38   129.47   140.69   190.78   190.79   195.43
eigval :      207.49   219.63   219.72   220.04   236.63   237.44
eigval :      249.65   263.24   306.22   308.12   330.56   330.65
eigval :      334.09   344.75   352.98   367.15   369.93   383.91
eigval :      385.24   407.41   410.24   429.20   437.71   449.01
eigval :      450.58   485.03   498.34   515.37   515.56   525.35
eigval :      542.82   545.88   547.45   547.84   568.78   585.96
eigval :      589.94   612.38   621.87   659.85   661.30   677.30
eigval :      677.70   682.03   682.06   692.84   693.06   722.78
eigval :      765.88   773.54   774.81   776.42   777.57   795.07
eigval :      824.37   826.16   859.99   860.66   864.63   865.07
eigval :      884.83   890.42   896.72   911.83   912.60   912.71
eigval :      913.43   918.16   919.59   919.94   920.12   920.67
eigval :      920.69   929.76   938.40   938.97   957.16   957.16
eigval :      997.09  1005.37  1014.35  1014.36  1077.50  1077.76
eigval :     1086.29  1087.65  1111.86  1113.40  1118.62  1119.29
eigval :     1119.81  1140.27  1141.40  1153.39  1160.66  1160.72
eigval :     1175.69  1176.57  1185.81  1185.96  1186.75  1188.16
eigval :     1188.71  1214.50  1237.48  1247.70  1248.95  1249.03
eigval :     1250.54  1266.53  1269.88  1294.59  1294.72  1298.17
eigval :     1301.84  1326.35  1326.50  1333.44  1335.70  1339.79
eigval :     1345.78  1347.70  1402.67  1402.69  1420.73  1420.84
eigval :     1428.29  1436.80  1437.94  1444.65  1445.82  1463.97
eigval :     1481.13  1483.78  1490.17  1490.22  1491.02  1491.02
eigval :     1496.14  1499.26  1500.69  1500.73  1505.48  1505.83
eigval :     1573.03  1576.06  1576.21  1583.69  1591.52  1591.99
eigval :     1593.15  1594.15  1602.90  1604.16  3026.21  3026.28
eigval :     3028.62  3028.62  3039.02  3039.02  3041.81  3041.89
eigval :     3047.84  3047.85  3051.73  3051.87  3077.55  3077.68
eigval :     3077.90  3078.06  3082.00  3082.14  3082.38  3082.49
eigval :     3086.44  3091.61  3091.74  3092.67  3093.18  3096.42
eigval :     3097.13  3097.91  3098.88  3099.11  3099.69  3102.54

   temp. (K)  partition function   enthalpy   heat capacity  entropy
                                   cal/mol     cal/K/mol   cal/K/mol   J/K/mol
 298.15  VIB  0.107E+16            18834.377    121.002    117.731
         ROT  0.174E+08              888.752      2.981     36.117
         INT  0.186E+23            19723.129    123.983    153.848
         TR   0.106E+29             1481.254      4.968     44.451
         TOT                       21204.3831   128.9510   198.2987   829.6816

       T/K    H(0)-H(T)+PV         H(T)/Eh          T*S/Eh         G(T)/Eh
   ------------------------------------------------------------------------
    298.15    0.337913E-01    0.600981E+00    0.942181E-01    0.506763E+00
   ------------------------------------------------------------------------

         :::::::::::::::::::::::::::::::::::::::::::::::::::::
         ::                  THERMODYNAMIC                  ::
         :::::::::::::::::::::::::::::::::::::::::::::::::::::
         :: total free energy         -98.811317667892 Eh   ::
         ::.................................................::
         :: total energy              -99.318081068322 Eh   ::
         :: zero point energy           0.567190156095 Eh   ::
         :: G(RRHO) w/o ZPVE           -0.060426755665 Eh   ::
         :: G(RRHO) contrib.            0.506763400430 Eh   ::
         :::::::::::::::::::::::::::::::::::::::::::::::::::::

           -------------------------------------------------
          | TOTAL ENERGY              -99.318081068322 Eh   |
          | TOTAL ENTHALPY            -98.717099576820 Eh   |
          | TOTAL FREE ENERGY         -98.811317667892 Eh   |
          | GRADIENT NORM               0.000014194116 Eh/α |
          | HOMO-LUMO GAP               2.661243736718 eV   |
           -------------------------------------------------

 * finished run on 2025/08/22 at 17:07:54.149
