   * xtb version 6.7.1 (edcfbbe) compiled by 'albert@albert-system' on 2024-07-22

   ID    Z sym.   atoms
    1    6 C      1-9, 11-15, 17-38
    2    7 N      10, 16
    3    1 H      39-70

          program call               : xtb data2507/gas/mAP/mAP_gas_S0_crest.xyz --gfn 2 --ohess vtight --parallel 40 --molden --ceasefiles --namespace data2507/gas/mAP/mAP_gas_S0_finalOpt
          :  Hamiltonian                  GFN2-xTB          :
 * total energy  :   -99.3180979 Eh     change       -0.3693998E-08 Eh
   *** GEOMETRY OPTIMIZATION CONVERGED AFTER 1 ITERATIONS ***

 final structure:
================
70
 xtb: 6.7.1 (edcfbbe)
C            6.33766763280000       -0.38865754400000        0.17581237650000
C            4.99142586990000       -0.23494790930000        0.90685598550000
C            5.20515115950000       -0.27256738030000        2.43106073400000
C            4.09270927760000       -1.39120873210000        0.51092524830000
C            4.49113950950000       -2.69178206700000        0.78795726340000
C            3.72464662460000       -3.78662159740000        0.43413766260000
C            2.52719485610000       -3.58727313600000       -0.22824357020000
C            2.10888965220000       -2.30593344400000       -0.51802873380000
C            2.87263937240000       -1.19657308350000       -0.14472514330000
N            2.42236912020000        0.08040567890000       -0.44311021080000
C            1.19912771460000        0.23436781730000       -1.14733554730000
C            1.21235269290000        0.50732391340000       -2.51051826310000
C            0.02008989750000        0.65837385630000       -3.19619858630000
C           -1.18760858500000        0.53074169880000       -2.53272454260000
C           -1.20285790690000        0.25644471960000       -1.17016545970000
N           -2.43970166730000        0.12170957330000       -0.48389264260000
C           -3.09684786210000        1.26214116140000       -0.05159475110000
C           -2.52870816960000        2.51754476670000       -0.28559269330000
C           -3.16306939500000        3.67077277330000        0.12538194400000
C           -4.37720969520000        3.59135863910000        0.78276522550000
C           -4.93418509150000        2.34961833780000        1.02697840070000
C           -4.31748850900000        1.17282516340000        0.62533054190000
C           -4.97205233510000       -0.15961243360000        0.93839626200000
C           -6.36126270490000       -0.19623706900000        0.27596706030000
C           -5.10648191870000       -0.29308432450000        2.46630655980000
C           -4.15625536600000       -1.32822571930000        0.41838380980000
C           -4.61381799600000       -2.62393103260000        0.61421414840000
C           -3.91905861100000       -3.72639357880000        0.15192054790000
C           -2.73449488790000       -3.53942283530000       -0.53672210690000
C           -2.25708538620000       -2.26296898210000       -0.74531828110000
C           -2.94960717320000       -1.14789633980000       -0.26533038050000
C           -0.00975136100000        0.11318250430000       -0.47516999880000
C            3.14614835250000        1.21217688080000       -0.10149464440000
C            2.62217011100000        2.47783651040000       -0.38005117480000
C            3.32283863960000        3.62192024950000       -0.06178462780000
C            4.56075954840000        3.52386935700000        0.54690535910000
C            5.07143739250000        2.27348657470000        0.84219455170000
C            4.38626294240000        1.10572245240000        0.53617374350000
H            6.17923665150000       -0.36248944430000       -0.90081670320000
H            6.81145439040000       -1.33302829850000        0.42927863580000
H            7.01749320380000        0.41609216770000        0.44188140210000
H            4.24971861560000       -0.16318628380000        2.94089511950000
H            5.85908542060000        0.53339247520000        2.75217586890000
H            5.65162736150000       -1.21428120460000        2.73791603110000
H            5.42955356690000       -2.86257906290000        1.29356820100000
H            4.06374758780000       -4.78421120360000        0.66797513840000
H            1.91662917130000       -4.42750797670000       -0.52341574810000
H            1.17912501180000       -2.16042155040000       -1.04537467710000
H            2.15889243890000        0.60263467280000       -3.02084556050000
H            0.03213887230000        0.87060745380000       -4.25452084520000
H           -2.12288569070000        0.64317866790000       -3.05989277320000
H           -1.57879291210000        2.58607690690000       -0.79349479090000
H           -2.70588558360000        4.62980704040000       -0.06797855800000
H           -4.88524831320000        4.48652264680000        1.10760017500000
H           -5.87833221880000        2.30268753470000        1.54845501550000
H           -6.98552548010000        0.61604723210000        0.63759620270000
H           -6.25927685470000       -0.09664885650000       -0.80316115530000
H           -6.86775163600000       -1.13400969240000        0.48695975410000
H           -5.58852890300000       -1.22955751220000        2.73320825690000
H           -4.12076026390000       -0.27059253190000        2.92750814970000
H           -5.69551674120000        0.52227460910000        2.87700925830000
H           -5.54106259160000       -2.78483687480000        1.14325141760000
H           -4.30322441220000       -4.72028143900000        0.32387661760000
H           -2.18005443710000       -4.38548642870000       -0.91461955200000
H           -1.33761509440000       -2.12362527080000       -1.29277825720000
H           -0.02223677670000       -0.10081507600000        0.58323801780000
H            1.65308788640000        2.56252278750000       -0.84752684160000
H            2.89845983100000        4.58852616050000       -0.28885907320000
H            5.12177009990000        4.41143081160000        0.79676782700000
H            6.03424089460000        2.21215124650000        1.32675012280000

          :  Hamiltonian                  GFN2-xTB          :
         :: gradient norm              0.000176591421 Eh/a0 ::
         :: HOMO-LUMO gap              2.684790557093 eV    ::
         :: SCC energy              -101.122176511143 Eh    ::
         :: -> dispersion             -0.096927211426 Eh    ::
         :: repulsion energy           1.804078654875 Eh    ::

    * Orbital Energies and Occupations

         #    Occupation            Energy/Eh            Energy/eV
      -------------------------------------------------------------
         1        2.0000           -0.6758545             -18.3909
       ...           ...                  ...                  ...
        81        2.0000           -0.4173825             -11.3576
        82        2.0000           -0.4071527             -11.0792
        83        2.0000           -0.4063455             -11.0572
        84        2.0000           -0.4053516             -11.0302
        85        2.0000           -0.4038446             -10.9892
        86        2.0000           -0.4008667             -10.9081
        87        2.0000           -0.4006468             -10.9022
        88        2.0000           -0.3955327             -10.7630
        89        2.0000           -0.3953657             -10.7584
        90        2.0000           -0.3902952             -10.6205
        91        2.0000           -0.3901296             -10.6160
        92        2.0000           -0.3456370              -9.4053
        93        2.0000           -0.3431918              -9.3387 (HOMO)
        94                         -0.2445275              -6.6539 (LUMO)
        95                         -0.2437327              -6.6323
        96                         -0.2216529              -6.0315
        97                         -0.2213954              -6.0245
        98                         -0.2166761              -5.8961
        99                         -0.2164235              -5.8892
       100                         -0.2156148              -5.8672
       101                         -0.2154015              -5.8614
       102                         -0.1879480              -5.1143
       103                         -0.1864877              -5.0746
       104                         -0.1163483              -3.1660
       ...                                ...                  ...
       184                          0.6842641              18.6198
      -------------------------------------------------------------
                  HL-Gap            0.0986642 Eh            2.6848 eV

     #   Z          covCN         q      C6AA      α(0)
     1   6 C        3.761    -0.103    22.505     6.763
     2   6 C        3.909     0.021    20.156     6.381
     3   6 C        3.761    -0.103    22.512     6.764
     4   6 C        2.979    -0.014    28.361     8.736
     5   6 C        2.928    -0.036    28.899     8.816
     6   6 C        2.917    -0.045    29.112     8.848
     7   6 C        2.920    -0.033    28.812     8.802
     8   6 C        2.925    -0.058    29.446     8.899
     9   6 C        2.928     0.058    26.700     8.474
    10   7 N        2.755    -0.072    22.631     7.065
    11   6 C        2.928     0.073    26.367     8.421
    12   6 C        2.922    -0.040    29.003     8.831
    13   6 C        2.919    -0.028    28.691     8.784
    14   6 C        2.921    -0.040    29.004     8.832
    15   6 C        2.928     0.073    26.364     8.421
    16   7 N        2.755    -0.072    22.640     7.067
    17   6 C        2.928     0.058    26.696     8.473
    18   6 C        2.924    -0.059    29.459     8.901
    19   6 C        2.920    -0.033    28.819     8.803
    20   6 C        2.917    -0.045    29.117     8.849
    21   6 C        2.928    -0.036    28.898     8.816
    22   6 C        2.979    -0.014    28.363     8.736
    23   6 C        3.909     0.021    20.156     6.381
    24   6 C        3.761    -0.103    22.509     6.763
    25   6 C        3.761    -0.103    22.507     6.763
    26   6 C        2.979    -0.014    28.363     8.736
    27   6 C        2.928    -0.036    28.897     8.816
    28   6 C        2.917    -0.045    29.115     8.848
    29   6 C        2.920    -0.033    28.812     8.802
    30   6 C        2.925    -0.058    29.440     8.898
    31   6 C        2.929     0.058    26.697     8.474
    32   6 C        2.924    -0.047    29.168     8.857
    33   6 C        2.928     0.058    26.699     8.474
    34   6 C        2.924    -0.059    29.455     8.900
    35   6 C        2.920    -0.033    28.820     8.804
    36   6 C        2.917    -0.045    29.113     8.848
    37   6 C        2.928    -0.036    28.898     8.816
    38   6 C        2.979    -0.014    28.359     8.735
    39   1 H        0.925     0.031     2.577     2.510
    40   1 H        0.925     0.039     2.463     2.454
    41   1 H        0.925     0.039     2.464     2.455
    42   1 H        0.925     0.031     2.567     2.506
    43   1 H        0.925     0.039     2.464     2.455
    44   1 H        0.925     0.039     2.463     2.454
    45   1 H        0.926     0.029     2.594     2.518
    46   1 H        0.926     0.026     2.648     2.545
    47   1 H        0.926     0.027     2.626     2.534
    48   1 H        0.926     0.021     2.718     2.578
    49   1 H        0.926     0.046     2.365     2.405
    50   1 H        0.926     0.044     2.391     2.418
    51   1 H        0.926     0.047     2.362     2.403
    52   1 H        0.926     0.021     2.725     2.582
    53   1 H        0.926     0.027     2.633     2.538
    54   1 H        0.926     0.026     2.650     2.546
    55   1 H        0.926     0.029     2.595     2.519
    56   1 H        0.925     0.039     2.464     2.455
    57   1 H        0.925     0.031     2.575     2.509
    58   1 H        0.925     0.039     2.464     2.455
    59   1 H        0.925     0.039     2.464     2.455
    60   1 H        0.925     0.031     2.570     2.507
    61   1 H        0.925     0.039     2.465     2.455
    62   1 H        0.926     0.029     2.595     2.519
    63   1 H        0.926     0.026     2.649     2.545
    64   1 H        0.926     0.027     2.631     2.537
    65   1 H        0.926     0.020     2.739     2.588
    66   1 H        0.926     0.051     2.305     2.374
    67   1 H        0.926     0.021     2.719     2.579
    68   1 H        0.926     0.027     2.631     2.536
    69   1 H        0.926     0.026     2.648     2.545
    70   1 H        0.926     0.030     2.593     2.518

molecular dipole:
                 x           y           z       tot (Debye)
 q only:        0.025       0.037      -0.247
   full:        0.028       0.051      -0.304       0.788

 projected vibrational frequencies (cm⁻¹)
eigval :       -0.00    -0.00    -0.00    -0.00    -0.00     0.00
eigval :        3.93     8.74    15.37    22.63    40.61    60.36
eigval :       61.03    61.97    94.70    98.42   100.01   103.13
eigval :      128.80   129.23   141.52   190.43   190.61   195.53
eigval :      208.03   218.12   220.24   222.29   237.72   239.78
eigval :      249.65   266.10   306.52   308.45   330.76   331.20
eigval :      333.89   344.73   353.52   367.06   369.98   384.03
eigval :      385.32   407.99   410.31   428.88   438.12   449.56
eigval :      451.63   486.08   497.42   515.21   515.48   528.12
eigval :      543.12   546.15   547.36   547.88   569.26   586.03
eigval :      590.13   612.24   621.76   658.64   661.28   677.53
eigval :      677.61   682.19   682.44   693.02   693.36   722.75
eigval :      765.74   772.60   775.61   776.66   777.81   795.77
eigval :      824.52   826.28   858.41   862.68   865.35   865.91
eigval :      886.61   890.12   897.04   911.60   912.73   912.96
eigval :      913.58   917.77   919.23   919.63   920.42   920.82
eigval :      920.86   929.76   938.39   938.99   957.18   957.20
eigval :      996.96  1005.60  1014.36  1014.38  1077.41  1077.75
eigval :     1086.46  1087.56  1112.28  1114.00  1118.88  1119.24
eigval :     1120.63  1140.24  1141.51  1153.81  1160.57  1160.69
eigval :     1175.97  1176.88  1185.23  1186.09  1187.48  1188.19
eigval :     1189.29  1214.19  1237.65  1247.10  1248.98  1250.04
eigval :     1251.10  1266.35  1270.04  1294.65  1294.97  1300.13
eigval :     1300.80  1325.89  1326.54  1333.02  1335.51  1339.10
eigval :     1344.28  1346.61  1402.76  1402.80  1420.83  1420.96
eigval :     1427.73  1436.58  1437.85  1444.00  1445.85  1463.97
eigval :     1480.48  1483.20  1490.17  1490.25  1491.02  1491.05
eigval :     1495.60  1498.97  1500.70  1500.78  1505.44  1505.78
eigval :     1572.19  1575.98  1576.32  1582.74  1591.42  1591.82
eigval :     1593.21  1594.21  1602.90  1604.16  3026.12  3026.21
eigval :     3028.35  3028.58  3039.06  3039.08  3041.86  3041.96
eigval :     3047.91  3047.96  3051.87  3052.09  3077.46  3077.75
eigval :     3077.98  3078.68  3082.08  3082.35  3082.52  3083.50
eigval :     3086.36  3092.19  3092.77  3093.24  3094.95  3096.37
eigval :     3096.45  3098.50  3099.60  3099.81  3102.52  3103.59

   temp. (K)  partition function   enthalpy   heat capacity  entropy
                                   cal/mol     cal/K/mol   cal/K/mol   J/K/mol
 298.15  VIB  0.484E+15            18807.123    121.077    116.889
         ROT  0.348E+08              888.752      2.981     37.491
         INT  0.169E+23            19695.876    124.058    154.380
         TR   0.106E+29             1481.254      4.968     44.451
         TOT                       21177.1297   129.0260   198.8312   831.9097

       T/K    H(0)-H(T)+PV         H(T)/Eh          T*S/Eh         G(T)/Eh
   ------------------------------------------------------------------------
    298.15    0.337479E-01    0.601030E+00    0.944711E-01    0.506559E+00
   ------------------------------------------------------------------------

         :::::::::::::::::::::::::::::::::::::::::::::::::::::
         ::                  THERMODYNAMIC                  ::
         :::::::::::::::::::::::::::::::::::::::::::::::::::::
         :: total free energy         -98.811538940750 Eh   ::
         ::.................................................::
         :: total energy              -99.318097856267 Eh   ::
         :: zero point energy           0.567282127284 Eh   ::
         :: G(RRHO) w/o ZPVE           -0.060723211767 Eh   ::
         :: G(RRHO) contrib.            0.506558915517 Eh   ::
         :::::::::::::::::::::::::::::::::::::::::::::::::::::

           -------------------------------------------------
          | TOTAL ENERGY              -99.318097856267 Eh   |
          | TOTAL ENTHALPY            -98.717067824663 Eh   |
          | TOTAL FREE ENERGY         -98.811538940750 Eh   |
          | GRADIENT NORM               0.000176621182 Eh/α |
          | HOMO-LUMO GAP               2.684790596987 eV   |
           -------------------------------------------------

 * finished run on 2025/08/22 at 17:10:15.000
