   * xtb version 6.7.1 (edcfbbe) compiled by 'albert@albert-system' on 2024-07-22

   ID    Z sym.   atoms
    1    6 C      1-9, 11-15, 17-38
    2    7 N      10, 16
    3    1 H      39-70

          program call               : xtb data2507/gas/mAP/mAP_gas_T1_crest.xyz --gfn 2 --spinpol --tblite --uhf 2 --ohess vtight --parallel 40 --molden --ceasefiles --namespace data2507/gas/mAP/mAP_gas_T1_finalOpt
 * total energy  :   -99.2068154 Eh     change       -0.8184742E-09 Eh
 * total energy  :   -99.2068209 Eh     change       -0.5500061E-05 Eh
 * total energy  :   -99.2068298 Eh     change       -0.8936961E-05 Eh
 * total energy  :   -99.2068482 Eh     change       -0.1837644E-04 Eh
 * total energy  :   -99.2068859 Eh     change       -0.3768461E-04 Eh
 * total energy  :   -99.2069573 Eh     change       -0.7140487E-04 Eh
 * total energy  :   -99.2070722 Eh     change       -0.1149690E-03 Eh
 * total energy  :   -99.2072105 Eh     change       -0.1382788E-03 Eh
 * total energy  :   -99.2025465 Eh     change        0.4663960E-02 Eh
 * total energy  :   -99.2074127 Eh     change       -0.4866102E-02 Eh
 * total energy  :   -99.2074871 Eh     change       -0.1980937E-05 Eh
 * total energy  :   -99.2074885 Eh     change       -0.1365101E-05 Eh
 * total energy  :   -99.2074895 Eh     change       -0.1052281E-05 Eh
 * total energy  :   -99.2074902 Eh     change       -0.6598174E-06 Eh
 * total energy  :   -99.2074906 Eh     change       -0.4059213E-06 Eh
 * total energy  :   -99.2074911 Eh     change       -0.4511364E-06 Eh
 * total energy  :   -99.2074914 Eh     change       -0.3435958E-06 Eh
 * total energy  :   -99.2074916 Eh     change       -0.1460394E-06 Eh
 * total energy  :   -99.2074916 Eh     change       -0.5527421E-07 Eh
   *** GEOMETRY OPTIMIZATION CONVERGED AFTER 41 ITERATIONS ***

 final structure:
================
70
 xtb: 6.7.1 (edcfbbe)
C            6.30972218656459        0.29029055511900        0.32727248474157
C            4.91863342273214        0.24141428036032        0.98606465316176
C            5.04537100114898        0.41591786070745        2.51090278027465
C            4.29343002496450       -1.11042633160204        0.70407982680466
C            4.92596109995030       -2.26429864382823        1.14574579261645
C            4.39355964690815       -3.52175279327405        0.92809339023515
C            3.18872927193260       -3.64194747968856        0.25688079579048
C            2.53910067553004       -2.51365241461001       -0.19342727066474
C            3.08199840779549       -1.23990264031535        0.01303547301022
N            2.40960727223077       -0.12959006635598       -0.46009013455748
C            1.18812280998277       -0.31311277723367       -1.16604317550910
C            1.21192488369699       -0.66736328416891       -2.53182014851829
C            0.01641161813378       -0.84098566836716       -3.20778689400171
C           -1.19466219410553       -0.67395201658621       -2.56754785423889
C           -1.21021018872638       -0.31677239413440       -1.20164770806899
N           -2.44876777311635       -0.12376953326339       -0.52998914694958
C           -2.85624130293977        1.15403328799092       -0.27376871361553
C           -2.11095205529502        2.25593551932278       -0.77293434610851
C           -2.46671238599146        3.53696053880988       -0.47702198024114
C           -3.59258650204352        3.78660939606838        0.33307295329294
C           -4.35452937254591        2.71499060477231        0.79015721428225
C           -4.03426240300541        1.40653889781163        0.50455484958803
C           -4.91207998262130        0.27605525035479        0.98217588241254
C           -6.31629969164642        0.46400473023079        0.37241938162263
C           -4.99938055206624        0.32960964967491        2.52098514189701
C           -4.38737768659144       -1.08170639073645        0.58301799213512
C           -5.07151255868872       -2.22679692816910        0.93201343292423
C           -4.60532565292428       -3.49806509869189        0.61739160902311
C           -3.37893574105760       -3.63489649706804       -0.05923440611126
C           -2.67158462363338       -2.52602390581230       -0.42029236499032
C           -3.15941885707443       -1.22437768967748       -0.13924823155599
C           -0.01821731054774       -0.14054434959385       -0.51238094433787
C            2.88858341805842        1.15186704603037       -0.26528040903019
C            2.17780273349688        2.24098929576604       -0.78268125931939
C            2.62185051838989        3.53131953605545       -0.59682733894250
C            3.79181299353744        3.76231048126232        0.10656939833471
C            4.50603191115311        2.68829341511927        0.60469882942763
C            4.08193338421686        1.37795614738565        0.43278638561424
H            6.21314936313609        0.16758094778257       -0.74989854452082
H            6.94680843120583       -0.50350937444276        0.70724436968154
H            6.79762320678952        1.24138352127646        0.52158538927151
H            4.05928699376133        0.38078638616670        2.97035234298592
H            5.50398320112358        1.36993795230144        2.75543446003809
H            5.65318858603918       -0.37427836941288        2.94267321745336
H            5.86230367631626       -2.18650444630645        1.67743694373488
H            4.91293139137662       -4.39841070819897        1.28400111687126
H            2.75289394902867       -4.61470023262037        0.08494414211322
H            1.59778383479952       -2.60901763230608       -0.71148067109490
H            2.16034537326805       -0.79533624145136       -3.02815424463514
H            0.03140598865273       -1.10950532542779       -4.25398678615837
H           -2.12941666455327       -0.80294919977390       -3.08954522136401
H           -1.25940329537648        2.06139146582027       -1.40583232964139
H           -1.89213872648120        4.36425107277242       -0.86472040226354
H           -3.87218454426795        4.79786680688429        0.57985173621221
H           -5.23046290435985        2.93310323877708        1.38335000352071
H           -6.73167277530162        1.42729447426810        0.65427907640777
H           -6.25660351618716        0.41866425221157       -0.71314128777512
H           -6.99265793356562       -0.31453623189664        0.71342616376166
H           -5.64108455517634       -0.46142082847929        2.89832192201136
H           -4.00804081505341        0.20421176129661        2.95193995808899
H           -5.40063012553162        1.28332788218222        2.85151625161449
H           -6.00311056250451       -2.14752303869971        1.47271108799692
H           -5.16974997468999       -4.37094889056640        0.90300481198979
H           -2.99838038328711       -4.61914860208027       -0.28564405165728
H           -1.72629417575847       -2.62976280373086       -0.92942809013015
H           -0.03450593419758        0.13604171640031        0.53224938852280
H            1.27163634276247        2.06291661243625       -1.33950995561882
H            2.05510755596287        4.35576017929955       -1.00269792332947
H            4.14935086540675        4.76884947914880        0.26128015660483
H            5.42197724135726        2.88375823100559        1.14168944378143

 projected vibrational frequencies (cm⁻¹)
eigval :       -0.00    -0.00     0.00     0.00     0.00     0.00
eigval :        3.70     7.05    13.27    19.82    43.53    54.97
eigval :       57.31    62.54    79.58    94.16    95.90   103.08
eigval :      129.79   137.70   138.20   187.56   191.31   202.40
eigval :      203.54   212.18   218.72   219.87   228.71   237.68
eigval :      246.02   271.59   301.57   307.43   316.39   321.54
eigval :      329.13   343.33   353.15   357.87   364.50   380.76
eigval :      383.77   385.89   394.27   400.50   405.63   419.04
eigval :      451.15   471.03   494.36   500.46   511.49   512.68
eigval :      524.24   536.38   544.23   545.78   559.68   573.25
eigval :      586.20   594.05   612.19   619.75   633.84   640.85
eigval :      651.77   652.41   665.93   684.04   695.10   705.63
eigval :      711.15   715.96   720.73   745.90   773.09   774.98
eigval :      783.10   807.62   812.01   814.82   821.47   824.87
eigval :      863.68   864.59   866.40   874.63   878.77   888.72
eigval :      890.83   894.18   897.81   907.21   912.23   913.23
eigval :      913.85   920.00   920.36   925.05   938.00   952.80
eigval :      957.13   957.35   991.68  1011.75  1013.92  1018.70
eigval :     1029.94  1058.14  1066.77  1076.66  1082.35  1091.95
eigval :     1107.57  1108.97  1116.12  1118.76  1134.48  1135.77
eigval :     1138.82  1140.10  1157.06  1172.04  1179.44  1183.09
eigval :     1185.68  1187.40  1197.67  1200.72  1216.33  1233.20
eigval :     1244.88  1245.91  1256.21  1260.46  1261.31  1273.04
eigval :     1289.70  1294.85  1296.49  1319.29  1324.27  1335.62
eigval :     1336.35  1337.01  1347.50  1355.80  1368.08  1387.73
eigval :     1397.21  1401.92  1414.17  1416.99  1419.81  1420.00
eigval :     1430.88  1436.12  1437.58  1454.46  1461.69  1467.19
eigval :     1472.48  1485.67  1486.25  1488.02  1489.11  1490.31
eigval :     1492.73  1498.21  1500.00  1502.47  1503.67  1562.40
eigval :     1565.13  1577.52  1582.89  1594.86  3027.27  3029.33
eigval :     3029.81  3031.89  3039.96  3041.66  3042.47  3043.80
eigval :     3049.14  3050.15  3052.54  3053.44  3076.27  3077.59
eigval :     3078.23  3079.40  3079.72  3080.80  3083.78  3084.27
eigval :     3084.66  3084.86  3095.47  3096.01  3099.29  3099.86
eigval :     3100.83  3104.91  3105.26  3105.53  3107.05  3108.37

   temp. (K)  partition function   enthalpy   heat capacity  entropy
                                   cal/mol     cal/K/mol   cal/K/mol   J/K/mol
 298.15  VIB  0.158E+16            19304.433    124.520    120.174
         ROT  0.345E+08              888.752      2.981     37.475
         INT  0.547E+23            20193.186    127.501    157.649
         TR   0.106E+29             1481.254      4.968     44.451
         TOT                       21674.4395   132.4694   202.1000   845.5864

       T/K    H(0)-H(T)+PV         H(T)/Eh          T*S/Eh         G(T)/Eh
   ------------------------------------------------------------------------
    298.15    0.345404E-01    0.593368E+00    0.960242E-01    0.497344E+00
   ------------------------------------------------------------------------

         :::::::::::::::::::::::::::::::::::::::::::::::::::::
         ::                  THERMODYNAMIC                  ::
         :::::::::::::::::::::::::::::::::::::::::::::::::::::
         :: total free energy         -98.710148050587 Eh   ::
         ::.................................................::
         :: total energy              -99.207491626653 Eh   ::
         :: zero point energy           0.558827384413 Eh   ::
         :: G(RRHO) w/o ZPVE           -0.061483808348 Eh   ::
         :: G(RRHO) contrib.            0.497343576065 Eh   ::
         :::::::::::::::::::::::::::::::::::::::::::::::::::::

           -------------------------------------------------
          | TOTAL ENERGY              -99.207491626653 Eh   |
          | TOTAL ENTHALPY            -98.614123824243 Eh   |
          | TOTAL FREE ENERGY         -98.710148050587 Eh   |
          | GRADIENT NORM               0.000121394683 Eh/α |
           -------------------------------------------------

 * finished run on 2025/08/22 at 17:14:05.296
