   * xtb version 6.7.1 (edcfbbe) compiled by 'albert@albert-system' on 2024-07-22

   ID    Z sym.   atoms
    1    6 C      1-20, 22-34
    2   15 P      21
    3    1 H      35-85

          program call               : xtb data2507/toluene/XPhos/XPhos_toluene_T1_crest.xyz --gfn 2 --uhf 2 --gbsa toluene --ohess vtight --parallel 40 --molden --ceasefiles --namespace data2507/toluene/XPhos/XPhos_toluene_T1_finalOpt
      * Solvation model:               GBSA
        Solvent                        toluene
        Solvent mass                       9.2140E+01 g/mol
          :  Hamiltonian                  GFN2-xTB          :
 * total energy  :   -99.1753741 Eh     change       -0.2084633E-08 Eh
 * total energy  :   -99.1755979 Eh     change       -0.2237696E-03 Eh
 * total energy  :   -99.1756582 Eh     change       -0.6033475E-04 Eh
 * total energy  :   -99.1756782 Eh     change       -0.2001244E-04 Eh
 * total energy  :   -99.1756947 Eh     change       -0.1648237E-04 Eh
 * total energy  :   -99.1757045 Eh     change       -0.9813052E-05 Eh
 * total energy  :   -99.1757099 Eh     change       -0.5384759E-05 Eh
 * total energy  :   -99.1757139 Eh     change       -0.4025282E-05 Eh
 * total energy  :   -99.1757171 Eh     change       -0.3203959E-05 Eh
 * total energy  :   -99.1757199 Eh     change       -0.2788741E-05 Eh
 * total energy  :   -99.1757472 Eh     change       -0.3059843E-06 Eh
 * total energy  :   -99.1757476 Eh     change       -0.3507218E-06 Eh
 * total energy  :   -99.1757480 Eh     change       -0.3814151E-06 Eh
 * total energy  :   -99.1757482 Eh     change       -0.2823809E-06 Eh
 * total energy  :   -99.1757484 Eh     change       -0.1082717E-06 Eh
 * total energy  :   -99.1757485 Eh     change       -0.1605167E-06 Eh
 * total energy  :   -99.1757488 Eh     change       -0.2404824E-06 Eh
 * total energy  :   -99.1757490 Eh     change       -0.2392368E-06 Eh
 * total energy  :   -99.1757490 Eh     change       -0.4845934E-07 Eh
   *** GEOMETRY OPTIMIZATION CONVERGED AFTER 44 ITERATIONS ***

 final structure:
================
85
 xtb: 6.7.1 (edcfbbe)
C            0.09787460386892        4.70357856190040        1.56681318863061
C           -0.50618180383476        3.46890119943972        2.25285931420726
C            0.46569047391027        2.94802412431894        3.32048519344516
C           -0.87807375235478        2.38746028193135        1.28052215192425
C           -2.20801102190782        2.08204125354712        1.01957841749506
C           -2.58663484319611        1.04244431712298        0.19982566624226
C           -4.04279204264813        0.86438053856580       -0.17067790777485
C           -4.97243146679286        0.92207680285178        1.04745620289613
C           -4.48529155311894        1.92544297529429       -1.18864754458181
C           -1.57079952007106        0.16806609299374       -0.39519660629836
C           -1.90836041403416       -1.19154689809354       -0.62007000847748
C           -2.81858476534276       -1.83945533988954        0.26284514107510
C           -3.21714967344889       -3.13818058014263        0.07387025388060
C           -2.75744360743737       -3.86919734712832       -1.01832873929179
C           -1.85776537824780       -3.27028003212666       -1.89139535381612
C           -1.42545688979046       -1.97845069140310       -1.69422680954011
C           -0.21756930746074        0.78514094203100       -0.63582505953138
C           -0.17314532394350        1.68544297753267       -1.91073787655959
C           -0.91338000775593        3.01129685650709       -1.76057613769368
C           -0.68921523639557        0.96412125430989       -3.15321694347080
P            1.15484930510949       -0.56463315589159       -0.90286402658176
C            2.83374535410634        0.24296075313589       -0.51014374140776
C            3.84129853021212       -0.86339042420668       -0.85205984151697
C            5.26911370087937       -0.44787088835408       -0.51236481754282
C            5.64668946454059        0.81083765176402       -1.28474481498543
C            4.64630476987985        1.91999561011876       -0.98236640789697
C            3.21668078240290        1.48583196938133       -1.31310254490498
C            0.93403348618835       -1.62893001032798        0.66411979375611
C            1.05966736038627       -3.09932992650278        0.24864979056490
C            0.57835655553781       -4.01978135855236        1.36601867704461
C            1.38024806832981       -3.77642337050284        2.64052550115304
C            1.29911405656378       -2.30665740238959        3.03931735776258
C            1.79818431022852       -1.40651897852052        1.90752362944242
C            0.19045411977028        1.59149161524464        0.62138768083004
H            1.01513839059816        4.44781191435609        1.04099276596028
H            0.33355178127340        5.46215869266708        2.31052004776926
H           -0.60699715697322        5.12977746769764        0.85583517512966
H           -1.42399189843927        3.79024903612580        2.75980971354905
H            0.61755405218519        3.70495468218751        4.08728692813603
H            0.06628942543436        2.05384973955933        3.79497800044229
H            1.43131460683795        2.71070080569016        2.88088329053183
H           -2.96801976333626        2.71560380036327        1.45544133545791
H           -4.16576356247987       -0.11258360901475       -0.64837120443260
H           -4.61870902025992        0.27152312519163        1.84433680299506
H           -5.97229460573389        0.60057017375085        0.76210945880050
H           -5.04345171190082        1.93368420408263        1.43952749598945
H           -5.54417886944993        1.80554515558532       -1.41086616955157
H           -3.93029267476996        1.82124405867290       -2.11846230510337
H           -4.32723018397592        2.92737477071210       -0.79403694359744
H           -3.14608763598182       -1.30594724164368        1.14300270325586
H           -3.89136698257635       -3.59976195809233        0.78318679377404
H           -3.08795956725768       -4.88459791654623       -1.17825689995026
H           -1.48990337350003       -3.82638300243328       -2.74334400145235
H           -0.75514610332332       -1.54176088005717       -2.41339733016358
H            0.87734775910037        1.91941833914694       -2.09678772790722
H           -0.74352753087450        3.61896586048166       -2.64856009668668
H           -1.97984198646276        2.84807062634808       -1.65343924505539
H           -0.56545177753987        3.56828511868102       -0.89757742244385
H           -0.04655237233751        0.12260935186669       -3.40298112031001
H           -0.68483406723856        1.64724407422386       -4.00104749249220
H           -1.70532927695883        0.60695577415450       -3.00253289973975
H            2.90449502772308        0.48389887449477        0.55429144988191
H            3.77268439871379       -1.07919626749288       -1.92245966037290
H            3.59429293060637       -1.78429853920795       -0.32233577170510
H            5.95816869139355       -1.26005143559769       -0.75664329707785
H            5.34765316315180       -0.25390232185177        0.56076670017122
H            6.65559354143340        1.13213551512497       -1.01521193402610
H            5.63825897644332        0.59501951077663       -2.35593578538515
H            4.70652170483406        2.17994089051805        0.07811582564982
H            4.89475760475829        2.81457013927856       -1.55895868834303
H            2.55598909241236        2.32343185829287       -1.08591984550846
H            3.14302852812566        1.27009927762915       -2.38242727011850
H           -0.11115873341200       -1.46211943265554        0.95150544082617
H            0.46800492156050       -3.27804624560965       -0.65081082805465
H            2.10065038234432       -3.33409500528315        0.01268471202973
H           -0.48049939321372       -3.82575589392520        1.55533878784752
H            0.67508940678478       -5.06275789715466        1.05477328719537
H            1.00031776161571       -4.40473804427557        3.44961511832521
H            2.42514011770514       -4.04837298271980        2.46901409391598
H            1.89856236158820       -2.13089463402974        3.93655808469464
H            0.26189664760173       -2.05243442903918        3.27428744509920
H            2.84075725226050       -1.65352581356422        1.70091444030581
H            1.76009450576296       -0.37146117807129        2.25328884934705
H            0.54574630339211        0.85847170081344        1.35413711019744
H            1.03842348892138        2.23538062591265        0.38085552060963

          :  Hamiltonian                  GFN2-xTB          :
         :: gradient norm              0.000101715272 Eh/a0 ::
         :: HOMO-LUMO gap              1.581145169246 eV    ::
         :: SCC energy              -100.702309401294 Eh    ::
         :: -> dispersion             -0.108578160576 Eh    ::
         :: -> Gsolv                  -0.030507115776 Eh    ::
         :: repulsion energy           1.526560358441 Eh    ::

    * Orbital Energies and Occupations

         #    Occupation            Energy/Eh            Energy/eV
      -------------------------------------------------------------
         1        2.0000           -0.6543608             -17.8061
       ...           ...                  ...                  ...
        83        2.0000           -0.4164594             -11.3324
        84        2.0000           -0.4157574             -11.3133
        85        2.0000           -0.4114470             -11.1960
        86        2.0000           -0.4089833             -11.1290
        87        2.0000           -0.4084021             -11.1132
        88        2.0000           -0.4002699             -10.8919
        89        2.0000           -0.3933074             -10.7024
        90        2.0000           -0.3912729             -10.6471
        91        2.0000           -0.3869943             -10.5307
        92        2.0000           -0.3820859             -10.3971
        93        2.0000           -0.3482268              -9.4757
        94        1.0000           -0.3261243              -8.8743
        95        1.0000           -0.2689476              -7.3184 (HOMO)
        96                         -0.2108417              -5.7373 (LUMO)
        97                         -0.1985302              -5.4023
        98                         -0.1647065              -4.4819
        99                         -0.1453967              -3.9564
       100                         -0.1426147              -3.8807
       101                         -0.0792779              -2.1573
       102                         -0.0777730              -2.1163
       103                          0.0215254               0.5857
       104                          0.0473048               1.2872
       105                          0.0486351               1.3234
       106                          0.0607822               1.6540
       ...                                ...                  ...
       192                          0.8218491              22.3637
      -------------------------------------------------------------
                  HL-Gap            0.0581059 Eh            1.5811 eV

     #   Z          covCN         q      C6AA      α(0)
     1   6 C        3.754    -0.098    22.424     6.752
     2   6 C        3.853    -0.011    20.739     6.477
     3   6 C        3.756    -0.100    22.465     6.758
     4   6 C        2.953    -0.014    28.371     8.736
     5   6 C        2.905    -0.047    29.166     8.855
     6   6 C        2.960    -0.012    28.320     8.729
     7   6 C        3.853    -0.012    20.751     6.479
     8   6 C        3.755    -0.097    22.406     6.749
     9   6 C        3.756    -0.096    22.386     6.746
    10   6 C        3.000    -0.011    28.280     8.723
    11   6 C        2.967     0.009    27.816     8.651
    12   6 C        2.925    -0.040    29.003     8.832
    13   6 C        2.913    -0.034    28.846     8.807
    14   6 C        2.917    -0.042    29.050     8.838
    15   6 C        2.914    -0.032    28.810     8.802
    16   6 C        2.925    -0.039    28.969     8.827
    17   6 C        3.844     0.023    20.155     6.386
    18   6 C        3.918    -0.010    20.692     6.465
    19   6 C        3.756    -0.108    22.614     6.780
    20   6 C        3.756    -0.099    22.437     6.754
    21  15 P        3.196    -0.173   168.170    23.295
    22   6 C        3.800    -0.010    20.758     6.487
    23   6 C        3.951    -0.050    21.404     6.574
    24   6 C        3.805    -0.053    21.522     6.604
    25   6 C        3.805    -0.055    21.553     6.609
    26   6 C        3.806    -0.054    21.531     6.606
    27   6 C        3.827    -0.049    21.428     6.587
    28   6 C        3.801    -0.012    20.795     6.492
    29   6 C        3.886    -0.053    21.477     6.589
    30   6 C        3.805    -0.052    21.512     6.603
    31   6 C        3.805    -0.054    21.535     6.606
    32   6 C        3.806    -0.052    21.511     6.603
    33   6 C        3.816    -0.049    21.439     6.590
    34   6 C        3.876    -0.055    21.507     6.594
    35   1 H        0.925     0.034     2.527     2.486
    36   1 H        0.925     0.036     2.508     2.476
    37   1 H        0.925     0.032     2.559     2.502
    38   1 H        0.924     0.029     2.598     2.521
    39   1 H        0.925     0.035     2.521     2.483
    40   1 H        0.925     0.031     2.573     2.509
    41   1 H        0.925     0.037     2.484     2.465
    42   1 H        0.926     0.021     2.714     2.576
    43   1 H        0.924     0.032     2.564     2.504
    44   1 H        0.925     0.029     2.605     2.524
    45   1 H        0.925     0.031     2.565     2.505
    46   1 H        0.925     0.036     2.504     2.475
    47   1 H        0.925     0.034     2.528     2.486
    48   1 H        0.925     0.031     2.575     2.509
    49   1 H        0.925     0.035     2.519     2.482
    50   1 H        0.926     0.021     2.722     2.580
    51   1 H        0.925     0.016     2.795     2.614
    52   1 H        0.926     0.016     2.795     2.614
    53   1 H        0.925     0.020     2.736     2.587
    54   1 H        0.926     0.050     2.324     2.384
    55   1 H        0.924     0.041     2.439     2.442
    56   1 H        0.925     0.031     2.569     2.507
    57   1 H        0.925     0.040     2.446     2.446
    58   1 H        0.925     0.042     2.424     2.435
    59   1 H        0.925     0.041     2.434     2.440
    60   1 H        0.925     0.035     2.514     2.479
    61   1 H        0.925     0.034     2.528     2.486
    62   1 H        0.924     0.042     2.420     2.433
    63   1 H        0.924     0.034     2.527     2.486
    64   1 H        0.924     0.033     2.545     2.495
    65   1 H        0.924     0.026     2.650     2.546
    66   1 H        0.924     0.029     2.601     2.522
    67   1 H        0.924     0.025     2.657     2.549
    68   1 H        0.924     0.031     2.579     2.511
    69   1 H        0.924     0.029     2.602     2.523
    70   1 H        0.924     0.027     2.632     2.537
    71   1 H        0.924     0.028     2.611     2.527
    72   1 H        0.924     0.032     2.560     2.502
    73   1 H        0.925     0.042     2.416     2.431
    74   1 H        0.924     0.033     2.539     2.492
    75   1 H        0.924     0.027     2.625     2.534
    76   1 H        0.924     0.025     2.656     2.548
    77   1 H        0.924     0.024     2.673     2.557
    78   1 H        0.924     0.024     2.668     2.554
    79   1 H        0.924     0.030     2.592     2.518
    80   1 H        0.924     0.027     2.630     2.536
    81   1 H        0.924     0.027     2.634     2.538
    82   1 H        0.924     0.035     2.513     2.479
    83   1 H        0.924     0.027     2.624     2.533
    84   1 H        0.924     0.068     2.107     2.270
    85   1 H        0.924     0.047     2.361     2.403

molecular dipole:
                 x           y           z       tot (Debye)
 q only:        0.617       0.904       0.260
   full:        0.575       0.972       0.627       3.283

 projected vibrational frequencies (cm⁻¹)
eigval :       -0.00    -0.00    -0.00     0.00     0.00     0.00
eigval :       15.29    22.23    31.51    46.31    51.05    59.24
eigval :       64.62    67.17    74.04    76.21    92.83   100.84
eigval :      106.95   123.29   128.40   143.49   154.57   158.70
eigval :      173.52   177.99   181.73   188.62   203.36   208.42
eigval :      211.01   212.64   219.03   229.53   245.50   252.78
eigval :      256.93   259.77   267.91   276.41   284.64   296.96
eigval :      304.80   311.42   316.31   323.08   359.01   362.72
eigval :      373.10   377.14   394.87   396.80   419.86   423.55
eigval :      427.58   430.69   446.87   447.21   462.77   472.49
eigval :      488.07   511.19   517.28   522.63   530.29   543.82
eigval :      579.08   587.01   638.65   651.50   683.26   719.11
eigval :      730.04   742.66   766.10   800.82   818.42   821.21
eigval :      834.86   848.98   852.40   859.95   862.39   867.80
eigval :      894.13   896.43   911.90   915.14   922.40   924.27
eigval :      926.97   930.12   932.76   934.57   938.84   940.48
eigval :      941.87   946.69   951.57   958.59   967.77   968.52
eigval :      976.07   976.23   980.74   986.40   993.00   995.15
eigval :     1022.99  1038.18  1063.65  1065.79  1074.56  1075.68
eigval :     1086.24  1090.31  1092.77  1092.84  1098.11  1108.04
eigval :     1109.70  1116.92  1118.96  1123.45  1126.06  1137.70
eigval :     1138.72  1153.36  1156.10  1160.82  1174.80  1178.11
eigval :     1180.33  1184.45  1185.93  1188.68  1195.72  1201.90
eigval :     1213.80  1227.52  1242.17  1245.43  1248.34  1251.48
eigval :     1253.95  1259.24  1266.07  1276.63  1280.00  1285.54
eigval :     1301.31  1305.32  1306.51  1307.60  1313.90  1315.65
eigval :     1326.76  1333.19  1334.29  1338.34  1339.41  1340.94
eigval :     1343.80  1345.84  1353.38  1356.04  1357.90  1360.10
eigval :     1363.50  1392.99  1395.92  1397.18  1408.41  1409.46
eigval :     1413.66  1414.43  1416.95  1440.16  1449.04  1477.24
eigval :     1480.82  1484.59  1485.76  1487.22  1487.74  1489.22
eigval :     1490.63  1491.36  1494.03  1494.46  1495.70  1496.63
eigval :     1497.14  1500.77  1503.61  1504.47  1505.40  1506.50
eigval :     1507.09  1507.47  1508.92  1513.13  1515.20  1570.45
eigval :     2906.97  2913.55  2914.47  2926.26  2942.01  2945.09
eigval :     2949.34  2949.50  2952.10  2953.39  2955.61  2956.18
eigval :     2956.70  2961.64  2961.73  2966.71  2968.13  2968.92
eigval :     2970.40  2971.67  2976.13  2976.35  2978.37  2982.10
eigval :     2984.60  2988.14  2990.21  3009.28  3013.34  3014.97
eigval :     3018.84  3020.16  3021.77  3022.70  3023.43  3024.69
eigval :     3026.99  3028.14  3030.47  3031.82  3032.00  3037.02
eigval :     3038.50  3051.90  3056.66  3060.46  3076.28  3079.77
eigval :     3085.78  3087.69  3134.23

   temp. (K)  partition function   enthalpy   heat capacity  entropy
                                   cal/mol     cal/K/mol   cal/K/mol   J/K/mol
 298.15  VIB  0.130E+16            21487.806    135.227    132.638
         ROT  0.241E+08              888.752      2.981     36.757
         INT  0.312E+23            22376.559    138.207    169.394
         TR   0.101E+29             1481.254      4.968     44.366
         TOT                       23857.8125   143.1756   213.7600   894.3719

       T/K    H(0)-H(T)+PV         H(T)/Eh          T*S/Eh         G(T)/Eh
   ------------------------------------------------------------------------
    298.15    0.380198E-01    0.791783E+00    0.101564E+00    0.690218E+00
   ------------------------------------------------------------------------

         :::::::::::::::::::::::::::::::::::::::::::::::::::::
         ::                  THERMODYNAMIC                  ::
         :::::::::::::::::::::::::::::::::::::::::::::::::::::
         :: total free energy         -98.485530655444 Eh   ::
         ::.................................................::
         :: total energy              -99.175749041497 Eh   ::
         :: zero point energy           0.753762827284 Eh   ::
         :: G(RRHO) w/o ZPVE           -0.063544441231 Eh   ::
         :: G(RRHO) contrib.            0.690218386053 Eh   ::
         :::::::::::::::::::::::::::::::::::::::::::::::::::::

           -------------------------------------------------
          | TOTAL ENERGY              -99.175749041497 Eh   |
          | TOTAL ENTHALPY            -98.383966369888 Eh   |
          | TOTAL FREE ENERGY         -98.485530655444 Eh   |
          | GRADIENT NORM               0.000101663402 Eh/α |
          | HOMO-LUMO GAP               1.581140930675 eV   |
           -------------------------------------------------

 * finished run on 2025/08/25 at 21:31:13.009
