   * xtb version 6.7.1 (edcfbbe) compiled by 'albert@albert-system' on 2024-07-22

   ID    Z sym.   atoms
    1    6 C      1-20, 22-34
    2   15 P      21
    3    1 H      35-85

          program call               : xtb data2507/toluene/XPhos/XPhos_toluene_S0_finalOpt.xtbopt.xyz --gfn 2 --uhf 2 --gbsa toluene --ohess vtight --parallel 40 --molden --ceasefiles --namespace data2507/toluene/XPhos/XPhos_toluene_T1_preOpt
      * Solvation model:               GBSA
        Solvent                        toluene
        Solvent mass                       9.2140E+01 g/mol
          :  Hamiltonian                  GFN2-xTB          :
 * total energy  :   -99.1447286 Eh     change       -0.1842622E-08 Eh
 * total energy  :   -99.1597705 Eh     change       -0.1504190E-01 Eh
 * total energy  :   -99.1633987 Eh     change       -0.3628221E-02 Eh
 * total energy  :   -99.1639312 Eh     change       -0.5325344E-03 Eh
 * total energy  :   -99.1643456 Eh     change       -0.4143720E-03 Eh
 * total energy  :   -99.1646813 Eh     change       -0.3356820E-03 Eh
 * total energy  :   -99.1649746 Eh     change       -0.2933186E-03 Eh
 * total energy  :   -99.1652613 Eh     change       -0.2866657E-03 Eh
 * total energy  :   -99.1656005 Eh     change       -0.3392075E-03 Eh
 * total energy  :   -99.1659953 Eh     change       -0.3947711E-03 Eh
 * total energy  :   -99.1695624 Eh     change       -0.2740556E-06 Eh
 * total energy  :   -99.1695627 Eh     change       -0.2472548E-06 Eh
 * total energy  :   -99.1695629 Eh     change       -0.2260082E-06 Eh
 * total energy  :   -99.1695631 Eh     change       -0.1829747E-06 Eh
 * total energy  :   -99.1695633 Eh     change       -0.2035692E-06 Eh
 * total energy  :   -99.1695635 Eh     change       -0.2122962E-06 Eh
 * total energy  :   -99.1695637 Eh     change       -0.1744110E-06 Eh
 * total energy  :   -99.1695638 Eh     change       -0.1425584E-06 Eh
 * total energy  :   -99.1695639 Eh     change       -0.7434079E-07 Eh
   *** GEOMETRY OPTIMIZATION CONVERGED AFTER 86 ITERATIONS ***

 final structure:
================
85
 xtb: 6.7.1 (edcfbbe)
C           -0.20726800133532        4.85375597058157        0.53688522521619
C           -0.62446801753407        4.09404870561974       -0.73487741932540
C           -1.83218792861417        4.78247738375822       -1.37682926797976
C           -0.88558326242048        2.65149980962045       -0.42239729964557
C           -2.04404860852067        2.21075688038461        0.22292241717255
C           -2.29231821170785        0.87920632186201        0.47153878004041
C           -3.37228950276848        0.59826952851719        1.50681708786210
C           -4.78092666088552        0.98151972298423        1.02232910249589
C           -3.41269878836317       -0.80474902337228        2.11083151912180
C           -1.47354859516575       -0.14234091249809       -0.19179701668905
C           -2.08303963355749       -1.40648952421896       -0.49264761546021
C           -3.40622487517234       -1.44508987044343       -0.98657521167155
C           -4.02786606836331       -2.63233701045816       -1.29646775145232
C           -3.37462492348851       -3.84348566223478       -1.09886059011253
C           -2.07658802092287       -3.83355068215234       -0.60403172944612
C           -1.43926298639140       -2.64695342898546       -0.32121345804750
C           -0.15111268869338        0.23780483210877       -0.77798589103380
C           -0.18736879479564        0.11352589909260       -2.34411875102262
C           -1.36211446510996        0.89107237476329       -2.93358199985576
C           -0.18551594919628       -1.30537645221864       -2.90371692579385
P            1.30795005304677       -0.93240815971736       -0.17933398166014
C            2.84412393965850       -0.14467093114456       -0.97851119123679
C            3.65696742644639        0.89777436105523       -0.21364264286499
C            4.79597482758387        1.41286103649420       -1.09511385488524
C            5.71149439090724        0.26837715329664       -1.51816304058730
C            4.91338054530251       -0.80077650716740       -2.25822853760647
C            3.76119595140990       -1.30250729592891       -1.39217942561336
C            1.55512930657399       -0.47122312693804        1.63424814379106
C            0.25565952930876       -0.52682551400559        2.42879204608468
C            0.51356987728511       -0.23343501669269        3.90515051467590
C            1.50648061580163       -1.23513190682468        4.48719563128617
C            2.80677578604003       -1.21250932325800        3.68979787273706
C            2.53348495975353       -1.49750128523210        2.21540126030198
C            0.24533455584557        1.68631804138605       -0.44659437606972
H            0.00036766749933        5.89570917151735        0.30229338721835
H            0.68694908645703        4.41149480331973        0.97010747751658
H           -1.00371851141247        4.81624514880119        1.27665305637005
H            0.21305539100256        4.14621676806170       -1.44232335166190
H           -2.15867688661486        4.24116599815665       -2.26257853794100
H           -2.66574580600577        4.83582274083266       -0.68121484794112
H           -1.56995307845835        5.79700814913741       -1.67036174509268
H           -2.74274258077384        2.94871059386395        0.59518094000192
H           -3.13896679950594        1.28523521590748        2.33478332670685
H           -5.45498689554618        1.04489975467845        1.87486269006401
H           -5.17586399155043        0.23345460790734        0.34090779670060
H           -4.77716156202059        1.94345409506453        0.51539915708184
H           -3.85034312503939       -1.52506098770042        1.42661503305644
H           -4.02289382561199       -0.78349800639583        3.01302319038927
H           -2.41903887700137       -1.14732713531094        2.38000732931666
H           -3.91242420910021       -0.51067679813298       -1.17725658060491
H           -5.03184768000559       -2.62242128779437       -1.70031282264045
H           -3.86815420289412       -4.77614001882146       -1.32950710344248
H           -1.55986237816293       -4.76891046304902       -0.43809276526160
H           -0.43691870271508       -2.66626267203664        0.07966490360064
H            0.72615135226078        0.59599005033695       -2.70858191758237
H           -1.40346825839320        1.89803511707469       -2.52297770378615
H           -1.25279168346080        0.95898572272884       -4.01469382811495
H           -2.30173558700887        0.39195934259843       -2.71404169757329
H            0.59136361860886       -1.90892581686858       -2.43742750373209
H            0.00976942756402       -1.26482862008454       -3.97447022584704
H           -1.14156834077641       -1.79621458931820       -2.75312542917064
H            2.48851105227869        0.31927264105813       -1.90512759083330
H            4.08865692806861        0.45503851700084        0.68566107494203
H            3.03346516945078        1.74158196133904        0.08571344503281
H            5.36943729332072        2.16520276341040       -0.54769434137122
H            4.38127228802574        1.89302477170719       -1.98555505557642
H            6.51243737446347        0.64720537847821       -2.15741262205638
H            6.17291905922238       -0.17287228653406       -0.63094871353258
H            4.51257463613087       -0.37879178066539       -3.18368312298773
H            5.56529087827721       -1.63522332471900       -2.52725678525813
H            3.18312088323428       -2.04896248658188       -1.94377885773915
H            4.16420812361107       -1.79300211620529       -0.50274098784505
H            1.99194743121247        0.52737237051303        1.73613295108126
H           -0.45992744385545        0.19640057210070        2.03253475100168
H           -0.18121761739518       -1.52418728797484        2.32943697679310
H            0.91489371522441        0.77841718320325        4.00910612519300
H           -0.42763929632618       -0.27660264560476        4.45811328026151
H            1.70567599859469       -0.99926830718264        5.53526695834460
H            1.07403599430177       -2.23792210500349        4.44574235352367
H            3.50185650798153       -1.95643068869593        4.08669031552958
H            3.27618973992839       -0.22999974376636        3.78933730642279
H            2.10349204795244       -2.49804436364790        2.11180569266796
H            3.47351299114245       -1.48725004855171        1.65977803612821
H            0.68636812215957        1.69460216877149        0.55961414926521
H            1.01898936474295        2.02503006326659       -1.13754689742402

          :  Hamiltonian                  GFN2-xTB          :
         :: gradient norm              0.000037831144 Eh/a0 ::
         :: HOMO-LUMO gap              1.512440631968 eV    ::
         :: SCC energy              -100.694168279617 Eh    ::
         :: -> dispersion             -0.108259027324 Eh    ::
         :: -> Gsolv                  -0.030704491821 Eh    ::
         :: repulsion energy           1.524604408262 Eh    ::

    * Orbital Energies and Occupations

         #    Occupation            Energy/Eh            Energy/eV
      -------------------------------------------------------------
         1        2.0000           -0.6560444             -17.8519
       ...           ...                  ...                  ...
        83        2.0000           -0.4147524             -11.2860
        84        2.0000           -0.4132488             -11.2451
        85        2.0000           -0.4115490             -11.1988
        86        2.0000           -0.4090075             -11.1297
        87        2.0000           -0.4079542             -11.1010
        88        2.0000           -0.4037674             -10.9871
        89        2.0000           -0.3937623             -10.7148
        90        2.0000           -0.3912006             -10.6451
        91        2.0000           -0.3893071             -10.5936
        92        2.0000           -0.3790653             -10.3149
        93        2.0000           -0.3493637              -9.5067
        94        1.0000           -0.3255629              -8.8590
        95        1.0000           -0.2631830              -7.1616 (HOMO)
        96                         -0.2076018              -5.6491 (LUMO)
        97                         -0.2026369              -5.5140
        98                         -0.1619042              -4.4056
        99                         -0.1585106              -4.3133
       100                         -0.1450034              -3.9457
       101                         -0.0803202              -2.1856
       102                         -0.0730749              -1.9885
       103                          0.0355037               0.9661
       104                          0.0377184               1.0264
       105                          0.0467100               1.2710
       106                          0.0519657               1.4141
       ...                                ...                  ...
       192                          0.9356047              25.4591
      -------------------------------------------------------------
                  HL-Gap            0.0555812 Eh            1.5124 eV

     #   Z          covCN         q      C6AA      α(0)
     1   6 C        3.756    -0.099    22.449     6.756
     2   6 C        3.852    -0.009    20.704     6.472
     3   6 C        3.755    -0.100    22.474     6.760
     4   6 C        2.954    -0.019    28.472     8.752
     5   6 C        2.913    -0.050    29.253     8.869
     6   6 C        2.953    -0.014    28.353     8.734
     7   6 C        3.855    -0.009    20.704     6.471
     8   6 C        3.754    -0.099    22.441     6.755
     9   6 C        3.754    -0.102    22.512     6.766
    10   6 C        2.991    -0.011    28.283     8.724
    11   6 C        2.967     0.016    27.654     8.626
    12   6 C        2.926    -0.039    28.963     8.826
    13   6 C        2.914    -0.036    28.908     8.817
    14   6 C        2.918    -0.044    29.103     8.846
    15   6 C        2.915    -0.034    28.838     8.806
    16   6 C        2.922    -0.039    28.961     8.825
    17   6 C        3.842     0.025    20.120     6.381
    18   6 C        3.904    -0.005    20.604     6.452
    19   6 C        3.755    -0.103    22.526     6.767
    20   6 C        3.756    -0.103    22.520     6.766
    21  15 P        3.163    -0.174   168.183    23.296
    22   6 C        3.802    -0.011    20.776     6.490
    23   6 C        3.818    -0.051    21.480     6.596
    24   6 C        3.806    -0.053    21.517     6.604
    25   6 C        3.805    -0.054    21.543     6.608
    26   6 C        3.805    -0.054    21.543     6.608
    27   6 C        3.900    -0.051    21.423     6.579
    28   6 C        3.803    -0.005    20.669     6.473
    29   6 C        3.856    -0.049    21.416     6.582
    30   6 C        3.805    -0.053    21.517     6.603
    31   6 C        3.805    -0.054    21.549     6.608
    32   6 C        3.805    -0.053    21.528     6.605
    33   6 C        3.911    -0.048    21.366     6.570
    34   6 C        3.867    -0.054    21.506     6.595
    35   1 H        0.925     0.037     2.488     2.467
    36   1 H        0.925     0.032     2.558     2.501
    37   1 H        0.925     0.036     2.508     2.477
    38   1 H        0.924     0.029     2.608     2.525
    39   1 H        0.925     0.032     2.565     2.504
    40   1 H        0.925     0.036     2.501     2.473
    41   1 H        0.925     0.035     2.523     2.484
    42   1 H        0.925     0.021     2.716     2.577
    43   1 H        0.923     0.031     2.575     2.509
    44   1 H        0.925     0.031     2.569     2.506
    45   1 H        0.925     0.035     2.515     2.480
    46   1 H        0.925     0.033     2.551     2.498
    47   1 H        0.925     0.034     2.524     2.484
    48   1 H        0.925     0.029     2.606     2.524
    49   1 H        0.925     0.035     2.512     2.478
    50   1 H        0.926     0.023     2.691     2.565
    51   1 H        0.925     0.014     2.822     2.627
    52   1 H        0.926     0.014     2.821     2.626
    53   1 H        0.925     0.020     2.732     2.585
    54   1 H        0.926     0.044     2.390     2.417
    55   1 H        0.924     0.032     2.561     2.503
    56   1 H        0.925     0.043     2.409     2.427
    57   1 H        0.925     0.034     2.533     2.489
    58   1 H        0.925     0.034     2.535     2.490
    59   1 H        0.925     0.052     2.300     2.371
    60   1 H        0.925     0.036     2.496     2.471
    61   1 H        0.925     0.039     2.458     2.452
    62   1 H        0.925     0.043     2.415     2.430
    63   1 H        0.924     0.034     2.537     2.491
    64   1 H        0.924     0.030     2.583     2.513
    65   1 H        0.924     0.026     2.640     2.541
    66   1 H        0.924     0.028     2.619     2.531
    67   1 H        0.924     0.025     2.659     2.550
    68   1 H        0.924     0.029     2.597     2.520
    69   1 H        0.924     0.029     2.597     2.520
    70   1 H        0.924     0.027     2.636     2.539
    71   1 H        0.924     0.031     2.569     2.507
    72   1 H        0.924     0.029     2.600     2.522
    73   1 H        0.924     0.039     2.459     2.452
    74   1 H        0.924     0.038     2.478     2.462
    75   1 H        0.924     0.030     2.581     2.512
    76   1 H        0.924     0.028     2.615     2.529
    77   1 H        0.924     0.027     2.630     2.536
    78   1 H        0.924     0.026     2.647     2.544
    79   1 H        0.924     0.031     2.578     2.511
    80   1 H        0.924     0.027     2.631     2.536
    81   1 H        0.924     0.029     2.600     2.521
    82   1 H        0.924     0.033     2.544     2.494
    83   1 H        0.924     0.029     2.597     2.520
    84   1 H        0.923     0.061     2.189     2.314
    85   1 H        0.924     0.040     2.447     2.446

molecular dipole:
                 x           y           z       tot (Debye)
 q only:        0.755       0.866       0.121
   full:        0.776       1.216       0.232       3.714

 projected vibrational frequencies (cm⁻¹)
eigval :       -0.00    -0.00     0.00     0.00     0.00     0.00
eigval :       23.69    26.94    31.40    45.81    52.88    55.70
eigval :       60.21    65.24    72.42    77.74    78.84    82.54
eigval :       99.77   106.22   119.11   125.95   148.80   158.19
eigval :      162.89   171.08   177.14   184.27   194.36   201.55
eigval :      202.60   205.87   213.22   223.58   228.40   238.62
eigval :      244.72   245.58   255.35   271.36   282.39   286.67
eigval :      303.64   314.75   324.02   336.40   357.72   370.12
eigval :      371.16   379.19   385.27   387.84   409.94   423.61
eigval :      430.20   440.95   444.48   450.17   458.65   471.16
eigval :      476.96   487.60   515.10   525.10   525.94   549.78
eigval :      587.18   598.21   618.75   658.38   683.60   708.20
eigval :      717.55   742.78   755.59   788.77   820.45   822.92
eigval :      830.61   847.08   856.14   862.40   864.99   880.71
eigval :      893.54   895.51   900.36   915.33   924.76   926.45
eigval :      928.67   930.42   933.88   936.51   937.82   939.40
eigval :      940.31   942.20   955.60   961.08   964.97   966.98
eigval :      977.29   983.20   987.41   989.52   992.60   994.40
eigval :     1025.99  1060.27  1063.50  1066.09  1075.31  1079.35
eigval :     1086.86  1089.44  1096.40  1097.15  1103.30  1109.15
eigval :     1114.13  1115.63  1117.87  1121.97  1132.53  1137.32
eigval :     1137.61  1148.28  1154.08  1160.76  1175.68  1181.10
eigval :     1182.61  1185.14  1190.07  1191.03  1192.79  1206.12
eigval :     1210.26  1237.68  1241.01  1246.18  1246.63  1250.53
eigval :     1256.10  1257.21  1267.09  1279.51  1282.86  1285.00
eigval :     1286.07  1296.62  1302.71  1314.85  1319.50  1327.35
eigval :     1331.96  1333.69  1336.71  1337.88  1338.84  1340.72
eigval :     1343.45  1350.29  1353.33  1353.50  1355.63  1357.74
eigval :     1365.14  1394.88  1395.35  1398.23  1402.48  1413.13
eigval :     1414.61  1416.82  1420.42  1442.22  1457.36  1476.40
eigval :     1480.30  1481.81  1484.56  1486.26  1486.62  1488.20
eigval :     1489.33  1489.68  1489.80  1490.99  1492.17  1492.97
eigval :     1494.13  1498.85  1499.37  1501.94  1502.24  1503.29
eigval :     1505.37  1506.18  1511.64  1513.53  1520.65  1571.96
eigval :     2858.74  2868.57  2900.89  2903.86  2908.79  2914.67
eigval :     2945.42  2947.39  2950.00  2950.92  2953.67  2953.89
eigval :     2956.99  2960.61  2962.71  2966.59  2967.87  2968.72
eigval :     2970.05  2971.37  2971.46  2973.50  2976.50  2977.23
eigval :     2978.09  2979.12  2986.47  3007.20  3011.02  3013.65
eigval :     3014.36  3016.87  3017.22  3019.49  3023.48  3026.65
eigval :     3030.26  3033.53  3035.89  3037.60  3043.17  3049.35
eigval :     3050.83  3053.68  3057.43  3060.17  3066.96  3072.46
eigval :     3074.73  3079.54  3087.24

   temp. (K)  partition function   enthalpy   heat capacity  entropy
                                   cal/mol     cal/K/mol   cal/K/mol   J/K/mol
 298.15  VIB  0.224E+16            21738.864    135.372    135.003
         ROT  0.250E+08              888.752      2.981     36.834
         INT  0.560E+23            22627.616    138.353    171.837
         TR   0.101E+29             1481.254      4.968     44.366
         TOT                       24108.8698   143.3211   216.2028   904.5924

       T/K    H(0)-H(T)+PV         H(T)/Eh          T*S/Eh         G(T)/Eh
   ------------------------------------------------------------------------
    298.15    0.384199E-01    0.791007E+00    0.102725E+00    0.688282E+00
   ------------------------------------------------------------------------

         :::::::::::::::::::::::::::::::::::::::::::::::::::::
         ::                  THERMODYNAMIC                  ::
         :::::::::::::::::::::::::::::::::::::::::::::::::::::
         :: total free energy         -98.481281597308 Eh   ::
         ::.................................................::
         :: total energy              -99.169563868949 Eh   ::
         :: zero point energy           0.752587255001 Eh   ::
         :: G(RRHO) w/o ZPVE           -0.064304983360 Eh   ::
         :: G(RRHO) contrib.            0.688282271641 Eh   ::
         :::::::::::::::::::::::::::::::::::::::::::::::::::::

           -------------------------------------------------
          | TOTAL ENERGY              -99.169563868949 Eh   |
          | TOTAL ENTHALPY            -98.378556684402 Eh   |
          | TOTAL FREE ENERGY         -98.481281597308 Eh   |
          | GRADIENT NORM               0.000037820145 Eh/α |
          | HOMO-LUMO GAP               1.512442362263 eV   |
           -------------------------------------------------

 * finished run on 2025/08/25 at 21:19:30.203
