   * xtb version 6.7.1 (edcfbbe) compiled by 'albert@albert-system' on 2024-07-22

   ID    Z sym.   atoms
    1    6 C      1-20, 22-34
    2   15 P      21
    3    1 H      35-85

          program call               : xtb data2507/toluene/XPhos/XPhos.xyz --gfn 2 --gbsa toluene --ohess vtight --parallel 40 --molden --ceasefiles --namespace data2507/toluene/XPhos/XPhos_toluene_S0_preOpt
      * Solvation model:               GBSA
        Solvent                        toluene
        Solvent mass                       9.2140E+01 g/mol
          :  Hamiltonian                  GFN2-xTB          :
 * total energy  :   -99.2041958 Eh     change       -0.2588834E-08 Eh
 * total energy  :   -99.2222098 Eh     change       -0.1801400E-01 Eh
 * total energy  :   -99.2278620 Eh     change       -0.5652158E-02 Eh
 * total energy  :   -99.2302481 Eh     change       -0.2386080E-02 Eh
 * total energy  :   -99.2312910 Eh     change       -0.1042889E-02 Eh
 * total energy  :   -99.2318188 Eh     change       -0.5278183E-03 Eh
 * total energy  :   -99.2321228 Eh     change       -0.3040317E-03 Eh
 * total energy  :   -99.2323087 Eh     change       -0.1859302E-03 Eh
 * total energy  :   -99.2324419 Eh     change       -0.1331209E-03 Eh
 * total energy  :   -99.2325545 Eh     change       -0.1126742E-03 Eh
 * total energy  :   -99.2336403 Eh     change       -0.2573610E-06 Eh
 * total energy  :   -99.2336405 Eh     change       -0.2064024E-06 Eh
 * total energy  :   -99.2336407 Eh     change       -0.1966227E-06 Eh
 * total energy  :   -99.2336409 Eh     change       -0.1876046E-06 Eh
 * total energy  :   -99.2336411 Eh     change       -0.2046813E-06 Eh
 * total energy  :   -99.2336413 Eh     change       -0.2061551E-06 Eh
 * total energy  :   -99.2336415 Eh     change       -0.1954401E-06 Eh
 * total energy  :   -99.2336417 Eh     change       -0.1608092E-06 Eh
 * total energy  :   -99.2336417 Eh     change       -0.2372005E-08 Eh
   *** GEOMETRY OPTIMIZATION CONVERGED AFTER 68 ITERATIONS ***

 final structure:
================
85
 xtb: 6.7.1 (edcfbbe)
C           -0.07994163380500        4.46590243606923        1.13152979552289
C           -0.83687597525936        4.02977055360960       -0.12976559122876
C           -2.06596849819407        4.91413447867369       -0.33311534310975
C           -1.15994818900065        2.55886595656585       -0.05202739455340
C           -2.35577020623500        2.04676025074891        0.22738453177552
C           -2.60456888081823        0.61228586900277        0.25038749403765
C           -3.94157237821044        0.26475316662560        0.88633503987690
C           -5.08027051180387        0.28324294422674       -0.13915222941630
C           -3.97511375157206       -1.03059358449596        1.69671495598623
C           -1.71682939951776       -0.24173355434457       -0.29664823726569
C           -2.06880940247666       -1.66299805372118       -0.52633435230652
C           -2.94627101675770       -2.00578973075080       -1.55264389496615
C           -3.28545624354686       -3.32606538756938       -1.78936766249383
C           -2.75704080602823       -4.33313559791548       -0.99977051427850
C           -1.90351105396609       -4.00494852568063        0.03925029435851
C           -1.56809162372872       -2.68335702538418        0.27418689860142
C           -0.36080411483641        0.24360690181646       -0.80726712879886
C           -0.31561355603187        0.35376910641471       -2.36065739768643
C           -1.41145018239669        1.26999634726121       -2.90796215094587
C           -0.35187034610524       -0.97571114909878       -3.11774961311235
P            0.96256374748867       -1.07722949932180       -0.31101652548618
C            2.56515100370150       -0.51849347471960       -1.14975425416078
C            3.11785204541110        0.91373236442729       -1.05174375024388
C            4.64769737016847        0.92856755640740       -1.16110085325056
C            5.11351698438481       -0.08332432659199       -2.20195408461897
C            4.80886715021493       -1.51347829480445       -1.73294170597709
C            3.63430830800412       -1.54142859731631       -0.74921971405752
C            1.20312998928375       -0.83330958780070        1.56037718127211
C            1.54861817753326       -2.21431699946212        2.13778418701257
C            1.18312589938140       -2.27240388040947        3.62499819496769
C            1.41989976103509       -0.91421338286974        4.29776937880915
C            2.56779449501714       -0.18863774346390        3.60509656611078
C            2.20968512210274        0.16603691765387        2.14930051296696
C           -0.00742227454030        1.60783529497807       -0.19317333968908
H           -0.68760771634310        4.28185336197529        2.01538507796466
H            0.14986539170744        5.52838340234307        1.08427179191632
H            0.85373591785453        3.91835938505069        1.23258994632360
H           -0.16872079395903        4.17806395020007       -0.98911206558933
H           -2.64887637411306        4.57364558588103       -1.18635213741253
H           -2.70040510543209        4.90560842056764        0.55009469929582
H           -1.75601040187770        5.94126913228300       -0.51574873863787
H           -3.21057662828296        2.68035059258774        0.40861071094615
H           -4.13972179730741        1.07802377341378        1.59810341658026
H           -5.03659252613121        1.18520018739406       -0.74697160117429
H           -6.04186913738852        0.25758075867261        0.37071705265648
H           -5.01914611595322       -0.58231057778665       -0.79268282914776
H           -4.86576720638095       -1.03875213299668        2.32370740611274
H           -3.10290397878413       -1.10186220353012        2.34253929025296
H           -4.00606926985433       -1.90673271560907        1.05685740512261
H           -3.36867851682689       -1.22916555680930       -2.17474489003572
H           -3.96679288889032       -3.56910757279081       -2.59322576137552
H           -3.01891890316327       -5.36477758027340       -1.18628517043544
H           -1.50357188919939       -4.78163617962066        0.67590001042534
H           -0.94801264004410       -2.43304601770088        1.11893963674376
H            0.64521440853981        0.82807802247287       -2.59254200265688
H           -1.36983008331738        1.28021665896968       -3.99602221511647
H           -2.39410350797390        0.91885051858066       -2.60389399466477
H           -1.29158361967180        2.28838591437740       -2.55010549715783
H            0.24810000736157       -1.73548886261439       -2.61914412261560
H            0.04092553308432       -0.83196964523521       -4.12370226364526
H           -1.36370848450413       -1.35546225013503       -3.20296853681273
H            2.34140903864995       -0.72127353672241       -2.20576444000894
H            2.82671577593083        1.39971574713989       -0.12323141097133
H            2.71100550197582        1.50706176270854       -1.87467529869420
H            5.10364008056001        0.69046540766276       -0.19789487893872
H            4.97702966907147        1.93302960749621       -1.43720948343268
H            4.59640155284841        0.12132201223173       -3.14225534524481
H            6.18351101432915        0.02955463128680       -2.38695487960891
H            4.57773319438749       -2.13762015921111       -2.59857864463472
H            5.68757656999187       -1.94324373583093       -1.24669719954047
H            3.19446292296360       -2.54280386766752       -0.73256219837099
H            3.99337071886038       -1.33094458168332        0.25838491382650
H            0.19266322953328       -0.56894384432531        1.90412743476029
H            1.03374015678881       -3.01059541657996        1.59585131207165
H            2.61761654720009       -2.39104821896201        2.00891372466494
H            0.13509892859683       -2.55854579829661        3.74111056820220
H            1.78702104334910       -3.04076481031156        4.11268032431920
H            0.51976821667544       -0.29815104563147        4.23791407100811
H            1.64760545496815       -1.05463003294943        5.35630710794035
H            3.45099468574964       -0.83057361258094        3.63080197766337
H            2.81634351869528        0.72622772651369        4.14753193614460
H            3.12897539355174        0.16751500002232        1.56679536339265
H            1.79991364087744        1.17773948395457        2.13004723400860
H            0.37983038286491        1.44881221687919        0.81498696479144
H            0.78018907954316        2.07604694642043       -0.78159206493324

          :  Hamiltonian                  GFN2-xTB          :
         :: gradient norm              0.000031683656 Eh/a0 ::
         :: HOMO-LUMO gap              2.962946788440 eV    ::
         :: SCC energy              -100.777987939767 Eh    ::
         :: -> dispersion             -0.107998338703 Eh    ::
         :: -> Gsolv                  -0.030412121185 Eh    ::
         :: repulsion energy           1.544346243175 Eh    ::

    * Orbital Energies and Occupations

         #    Occupation            Energy/Eh            Energy/eV
      -------------------------------------------------------------
         1        2.0000           -0.6532584             -17.7761
       ...           ...                  ...                  ...
        82        2.0000           -0.4146425             -11.2830
        83        2.0000           -0.4141165             -11.2687
        84        2.0000           -0.4127473             -11.2314
        85        2.0000           -0.4110946             -11.1865
        86        2.0000           -0.4071106             -11.0780
        87        2.0000           -0.4049463             -11.0191
        88        2.0000           -0.3982162             -10.8360
        89        2.0000           -0.3961984             -10.7811
        90        2.0000           -0.3922912             -10.6748
        91        2.0000           -0.3876625             -10.5488
        92        2.0000           -0.3812337             -10.3739
        93        2.0000           -0.3485677              -9.4850
        94        2.0000           -0.3425912              -9.3224 (HOMO)
        95                         -0.2337049              -6.3594 (LUMO)
        96                         -0.2163963              -5.8884
        97                         -0.2122671              -5.7761
        98                         -0.1496909              -4.0733
        99                         -0.1458118              -3.9677
       100                         -0.1347154              -3.6658
       101                         -0.0885357              -2.4092
       102                         -0.0844176              -2.2971
       103                          0.0281637               0.7664
       104                          0.0431118               1.1731
       105                          0.0483873               1.3167
       ...                                ...                  ...
       192                          0.9062317              24.6598
      -------------------------------------------------------------
                  HL-Gap            0.1088863 Eh            2.9629 eV

     #   Z          covCN         q      C6AA      α(0)
     1   6 C        3.757    -0.099    22.445     6.755
     2   6 C        3.853    -0.011    20.743     6.478
     3   6 C        3.755    -0.103    22.517     6.766
     4   6 C        2.951    -0.003    28.090     8.693
     5   6 C        2.916    -0.060    29.494     8.906
     6   6 C        2.958    -0.010    28.268     8.721
     7   6 C        3.855    -0.013    20.779     6.483
     8   6 C        3.754    -0.098    22.421     6.752
     9   6 C        3.753    -0.100    22.462     6.758
    10   6 C        3.024    -0.010    28.237     8.716
    11   6 C        2.977     0.025    27.434     8.592
    12   6 C        2.927    -0.031    28.766     8.796
    13   6 C        2.918    -0.034    28.841     8.807
    14   6 C        2.920    -0.034    28.850     8.808
    15   6 C        2.919    -0.031    28.779     8.797
    16   6 C        2.932    -0.029    28.721     8.789
    17   6 C        3.847     0.026    20.110     6.379
    18   6 C        3.915    -0.008    20.666     6.461
    19   6 C        3.755    -0.099    22.448     6.756
    20   6 C        3.757    -0.102    22.497     6.762
    21  15 P        3.172    -0.202   169.539    23.390
    22   6 C        3.799    -0.005    20.674     6.474
    23   6 C        3.810    -0.051    21.479     6.597
    24   6 C        3.803    -0.052    21.501     6.601
    25   6 C        3.803    -0.054    21.540     6.607
    26   6 C        3.803    -0.055    21.566     6.611
    27   6 C        3.908    -0.048    21.369     6.571
    28   6 C        3.798    -0.002    20.620     6.466
    29   6 C        3.900    -0.052    21.446     6.583
    30   6 C        3.804    -0.053    21.532     6.606
    31   6 C        3.803    -0.053    21.515     6.604
    32   6 C        3.803    -0.053    21.530     6.606
    33   6 C        3.813    -0.049    21.449     6.592
    34   6 C        3.862    -0.061    21.634     6.615
    35   1 H        0.925     0.033     2.538     2.491
    36   1 H        0.925     0.036     2.499     2.472
    37   1 H        0.925     0.034     2.537     2.491
    38   1 H        0.923     0.029     2.596     2.520
    39   1 H        0.925     0.033     2.545     2.495
    40   1 H        0.925     0.036     2.501     2.473
    41   1 H        0.925     0.034     2.528     2.487
    42   1 H        0.926     0.025     2.653     2.547
    43   1 H        0.923     0.031     2.577     2.511
    44   1 H        0.925     0.031     2.576     2.510
    45   1 H        0.925     0.031     2.576     2.510
    46   1 H        0.925     0.034     2.526     2.485
    47   1 H        0.925     0.030     2.583     2.513
    48   1 H        0.925     0.029     2.601     2.522
    49   1 H        0.925     0.033     2.540     2.492
    50   1 H        0.926     0.026     2.643     2.542
    51   1 H        0.925     0.023     2.683     2.561
    52   1 H        0.926     0.024     2.670     2.555
    53   1 H        0.926     0.026     2.642     2.542
    54   1 H        0.926     0.046     2.368     2.407
    55   1 H        0.924     0.028     2.616     2.529
    56   1 H        0.925     0.032     2.553     2.499
    57   1 H        0.925     0.030     2.585     2.514
    58   1 H        0.925     0.033     2.547     2.496
    59   1 H        0.925     0.048     2.340     2.392
    60   1 H        0.925     0.029     2.594     2.519
    61   1 H        0.925     0.040     2.451     2.448
    62   1 H        0.927     0.044     2.392     2.419
    63   1 H        0.925     0.039     2.462     2.454
    64   1 H        0.924     0.021     2.721     2.580
    65   1 H        0.924     0.029     2.597     2.520
    66   1 H        0.924     0.025     2.653     2.547
    67   1 H        0.924     0.029     2.602     2.523
    68   1 H        0.924     0.025     2.654     2.548
    69   1 H        0.924     0.027     2.625     2.534
    70   1 H        0.924     0.027     2.632     2.537
    71   1 H        0.924     0.033     2.539     2.492
    72   1 H        0.925     0.032     2.561     2.502
    73   1 H        0.925     0.039     2.460     2.453
    74   1 H        0.924     0.035     2.516     2.481
    75   1 H        0.924     0.032     2.554     2.499
    76   1 H        0.924     0.024     2.667     2.554
    77   1 H        0.924     0.027     2.633     2.537
    78   1 H        0.924     0.027     2.624     2.533
    79   1 H        0.924     0.025     2.660     2.551
    80   1 H        0.924     0.030     2.591     2.517
    81   1 H        0.924     0.025     2.651     2.546
    82   1 H        0.925     0.039     2.463     2.454
    83   1 H        0.924     0.021     2.714     2.576
    84   1 H        0.924     0.051     2.302     2.373
    85   1 H        0.925     0.039     2.468     2.457

molecular dipole:
                 x           y           z       tot (Debye)
 q only:        0.396       0.410       0.116
   full:        0.460       0.726       0.198       2.241

 projected vibrational frequencies (cm⁻¹)
eigval :       -0.00    -0.00    -0.00     0.00     0.00     0.00
eigval :       18.62    29.68    32.35    35.69    47.60    49.86
eigval :       54.51    61.18    67.85    78.18    88.91    97.93
eigval :      106.37   116.65   124.19   138.40   149.09   151.76
eigval :      160.02   169.63   171.29   184.42   192.57   195.20
eigval :      207.33   212.30   220.16   221.21   227.17   233.20
eigval :      237.43   249.11   256.77   265.09   271.05   286.48
eigval :      303.70   306.52   308.10   328.28   342.88   360.54
eigval :      376.75   386.38   397.42   405.97   420.73   426.12
eigval :      445.85   456.37   464.76   469.14   490.15   493.59
eigval :      505.48   518.57   529.39   539.33   544.84   584.96
eigval :      590.17   617.88   654.63   680.75   689.53   704.07
eigval :      719.98   756.72   775.57   801.25   801.89   802.46
eigval :      850.71   853.19   859.05   864.23   881.24   904.32
eigval :      907.07   912.54   922.46   926.01   926.92   932.39
eigval :      936.37   939.65   941.28   942.47   944.41   950.40
eigval :      950.80   954.04   962.81   967.95   969.94   972.11
eigval :      983.70   989.02   989.18   990.18   991.44  1007.22
eigval :     1033.62  1077.63  1083.94  1086.52  1089.29  1092.48
eigval :     1099.54  1104.70  1110.51  1113.01  1114.93  1116.27
eigval :     1117.71  1124.68  1126.80  1138.90  1142.40  1147.27
eigval :     1151.34  1152.98  1159.66  1167.50  1179.40  1184.01
eigval :     1187.58  1193.38  1196.32  1200.41  1204.49  1214.37
eigval :     1220.53  1221.97  1223.07  1237.93  1248.40  1254.21
eigval :     1258.09  1261.42  1263.95  1274.37  1291.60  1293.02
eigval :     1299.86  1303.49  1309.93  1312.54  1313.83  1323.32
eigval :     1328.04  1333.04  1334.14  1336.72  1339.35  1343.25
eigval :     1343.94  1345.65  1352.27  1352.86  1354.82  1358.93
eigval :     1375.85  1398.98  1399.63  1404.16  1412.69  1416.28
eigval :     1416.79  1424.08  1462.22  1473.59  1483.72  1484.81
eigval :     1485.61  1490.94  1491.27  1492.58  1492.91  1494.77
eigval :     1496.60  1499.02  1499.68  1501.04  1502.22  1502.73
eigval :     1504.64  1505.06  1506.51  1510.73  1511.34  1511.62
eigval :     1518.42  1523.16  1577.95  1596.97  1625.58  1706.79
eigval :     2863.71  2884.26  2888.11  2889.39  2912.93  2944.91
eigval :     2948.74  2950.89  2953.85  2955.11  2960.42  2961.89
eigval :     2966.37  2969.16  2971.46  2974.38  2976.07  2977.06
eigval :     2979.52  2979.97  2985.75  2986.66  2989.33  2991.71
eigval :     3004.88  3006.97  3009.84  3010.43  3015.11  3015.43
eigval :     3017.83  3020.59  3022.79  3024.20  3026.10  3027.02
eigval :     3029.52  3032.76  3035.84  3040.21  3040.52  3052.49
eigval :     3054.56  3058.10  3063.41  3063.89  3069.32  3080.19
eigval :     3081.69  3082.15  3120.04

   temp. (K)  partition function   enthalpy   heat capacity  entropy
                                   cal/mol     cal/K/mol   cal/K/mol   J/K/mol
 298.15  VIB  0.275E+16            21542.470    133.387    133.684
         ROT  0.246E+08              888.752      2.981     36.799
         INT  0.677E+23            22431.223    136.368    170.483
         TR   0.101E+29             1481.254      4.968     44.366
         TOT                       23912.4766   141.3359   214.8487   898.9272

       T/K    H(0)-H(T)+PV         H(T)/Eh          T*S/Eh         G(T)/Eh
   ------------------------------------------------------------------------
    298.15    0.381070E-01    0.795251E+00    0.102082E+00    0.693169E+00
   ------------------------------------------------------------------------

         :::::::::::::::::::::::::::::::::::::::::::::::::::::
         ::                  THERMODYNAMIC                  ::
         :::::::::::::::::::::::::::::::::::::::::::::::::::::
         :: total free energy         -98.540472354393 Eh   ::
         ::.................................................::
         :: total energy              -99.233641692767 Eh   ::
         :: zero point energy           0.757143955263 Eh   ::
         :: G(RRHO) w/o ZPVE           -0.063974616888 Eh   ::
         :: G(RRHO) contrib.            0.693169338375 Eh   ::
         :::::::::::::::::::::::::::::::::::::::::::::::::::::

           -------------------------------------------------
          | TOTAL ENERGY              -99.233641692767 Eh   |
          | TOTAL ENTHALPY            -98.438390780431 Eh   |
          | TOTAL FREE ENERGY         -98.540472354393 Eh   |
          | GRADIENT NORM               0.000031688506 Eh/α |
          | HOMO-LUMO GAP               2.962946939102 eV   |
           -------------------------------------------------

 * finished run on 2025/08/25 at 21:08:20.111
