   * xtb version 6.7.1 (edcfbbe) compiled by 'albert@albert-system' on 2024-07-22

   ID    Z sym.   atoms
    1    6 C      1-20, 22-34
    2   15 P      21
    3    1 H      35-85

          program call               : xtb data2507/toluene/XPhos/XPhos_toluene_S0_crest.xyz --gfn 2 --gbsa toluene --ohess vtight --parallel 40 --molden --ceasefiles --namespace data2507/toluene/XPhos/XPhos_toluene_S0_finalOpt
      * Solvation model:               GBSA
        Solvent                        toluene
        Solvent mass                       9.2140E+01 g/mol
          :  Hamiltonian                  GFN2-xTB          :
 * total energy  :   -99.2547036 Eh     change       -0.1817170E-08 Eh
 * total energy  :   -99.2548990 Eh     change       -0.1953847E-03 Eh
 * total energy  :   -99.2549589 Eh     change       -0.5995513E-04 Eh
 * total energy  :   -99.2549745 Eh     change       -0.1559388E-04 Eh
 * total energy  :   -99.2549875 Eh     change       -0.1299243E-04 Eh
 * total energy  :   -99.2549967 Eh     change       -0.9215595E-05 Eh
 * total energy  :   -99.2550109 Eh     change       -0.1417679E-04 Eh
 * total energy  :   -99.2550199 Eh     change       -0.8996873E-05 Eh
 * total energy  :   -99.2550280 Eh     change       -0.8072281E-05 Eh
 * total energy  :   -99.2550330 Eh     change       -0.5063903E-05 Eh
 * total energy  :   -99.2550609 Eh     change       -0.4565566E-06 Eh
 * total energy  :   -99.2550612 Eh     change       -0.3173416E-06 Eh
 * total energy  :   -99.2550615 Eh     change       -0.3355733E-06 Eh
 * total energy  :   -99.2550619 Eh     change       -0.3709456E-06 Eh
 * total energy  :   -99.2550622 Eh     change       -0.3598076E-06 Eh
 * total energy  :   -99.2550626 Eh     change       -0.3466721E-06 Eh
 * total energy  :   -99.2550628 Eh     change       -0.2667825E-06 Eh
 * total energy  :   -99.2550630 Eh     change       -0.1782667E-06 Eh
 * total energy  :   -99.2550630 Eh     change       -0.4181416E-08 Eh
   *** GEOMETRY OPTIMIZATION CONVERGED AFTER 44 ITERATIONS ***

 final structure:
================
85
 xtb: 6.7.1 (edcfbbe)
C            0.09146942229143        4.67833126959792        1.06417039029752
C           -0.59815349879693        4.21344954057804       -0.22531742699604
C           -1.81926390244972        5.08815692924185       -0.50809091529816
C           -0.92260420377587        2.74298217002740       -0.12902089438131
C           -2.10495897284390        2.25034543240544        0.23371455366542
C           -2.39296752170312        0.82452402430942        0.29009425522599
C           -3.70908070239152        0.53058390503179        0.99292247856474
C           -4.90648837073700        0.67351090911052        0.04644736478277
C           -3.78348277535320       -0.79487763654284        1.74923396211848
C           -1.53858990015364       -0.06481947107788       -0.25522332930325
C           -1.94346347470045       -1.47535722908933       -0.47438831525557
C           -2.93197525216701       -1.75276698784988       -1.42030877469373
C           -3.35256694960602       -3.04696447373941       -1.66613607881892
C           -2.79206244034559       -4.10435597337002       -0.96968785405367
C           -1.81642646641796       -3.84719642450930       -0.02318538314520
C           -1.40081126515088       -2.55000927092137        0.22176204282176
C           -0.18339165260745        0.37815519930902       -0.80440193789011
C           -0.18215603881972        0.36936068318850       -2.36432027160799
C           -1.32410591364516        1.20967615167394       -2.93896137950266
C           -0.17037018229987       -1.01256732473637       -3.01577410688319
P            1.12352982186933       -0.90160344696463       -0.17585461864921
C            2.72397774102508       -0.30620044960027       -1.01546398282683
C            3.62071016222022        0.72477645410514       -0.33337693210378
C            4.78559519413595        1.08680505447000       -1.25653948757827
C            5.60689407371168       -0.15094324176700       -1.60392809946683
C            4.72089441555628       -1.20776439186176       -2.25669577228019
C            3.54857468342710       -1.55697189709767       -1.34403424932119
C            1.45115543846381       -0.38831389885287        1.62099394148683
C            0.21749749777485       -0.19641601602222        2.50230842178233
C            0.64639874499523        0.21475587858574        3.91075826203992
C            1.53777816007809       -0.85603990682397        4.53316211956742
C            2.75485456159064       -1.11168382321561        3.64921400556500
C            2.32284962136309       -1.48884967017419        2.23426771921622
C            0.21774837969119        1.79151194586200       -0.33670039507532
H            0.32861958385335        5.73853909120093        1.00371637584982
H            1.01514825248464        4.12933426086064        1.23056037894823
H           -0.56427345349029        4.51727899051452        1.91756205216728
H            0.11032006184706        4.34672235631716       -1.05344961092862
H           -2.37415013501352        4.71003517989015       -1.36422575483247
H           -2.48352229243266        5.11882706143405        0.35217576927949
H           -1.50249980142593        6.10655555684892       -0.72473065529450
H           -2.92947333512882        2.90736123199279        0.46618953788049
H           -3.80588255685194        1.32156838138607        1.74995943097109
H           -5.83237988994986        0.69874035064515        0.61858147409888
H           -4.95541725862983       -0.16795427780132       -0.63885323179291
H           -4.83456628727201        1.59197762544851       -0.53306182943243
H           -3.90997549749601       -1.63785443019347        1.07740402267610
H           -4.63594645757274       -0.77274072924883        2.42695953897569
H           -2.88277509758996       -0.95072166234051        2.33748542791652
H           -3.37302961711983       -0.94141149693263       -1.98108126494883
H           -4.11984761801363       -3.22980420868935       -2.40591300789084
H           -3.11682441110550       -5.11706931591999       -1.16060208649253
H           -1.37723504084373       -4.66183394413034        0.53506187733154
H           -0.66061500054160       -2.37677257657798        0.98617945045875
H            0.74464429548646        0.86855998184799       -2.67328476122546
H           -1.24727160587655        2.24454202757775       -2.61651355375240
H           -1.28577161556653        1.18324085161085       -4.02678021954959
H           -2.28944658156592        0.82935530758973       -2.61997209462779
H            0.56899248804300       -1.65688005915757       -2.54186501809141
H            0.08637851809045       -0.91522960291434       -4.07001030185434
H           -1.13714594003466       -1.49855836909575       -2.94428674947642
H            2.40183029261835        0.11451351307609       -1.97361529437335
H            4.02830338992174        0.31762844855744        0.59404211279055
H            3.06357313549462        1.63270853256620       -0.09702301547031
H            5.42155780943173        1.82961477777986       -0.76794983970105
H            4.39736275949560        1.53341978162142       -2.17590563838894
H            6.42425532680811        0.12001006102650       -2.27649048536346
H            6.04732535807549       -0.56105538479566       -0.69141050032577
H            4.33798467443027       -0.82473727083781       -3.20636059152047
H            5.30529263113015       -2.10591807880382       -2.47046912939931
H            2.91050824663264       -2.30136778358865       -1.82868521871747
H            3.93108361434594       -2.00573386187246       -0.42422372258126
H            2.02503678961089        0.54458254359050        1.63493241812219
H           -0.44907964527568        0.55954691864907        2.08650331205856
H           -0.34401296176127       -1.12969869946139        2.57247894259832
H            1.19114565905540        1.16180247075743        3.86621979383682
H           -0.23911349212540        0.36975713431789        4.53198102933154
H            1.85913845531536       -0.54428213867520        5.52988745160077
H            0.96769190756091       -1.78236305938192        4.64028923631848
H            3.36505072596982       -1.91174098856642        4.07574570007143
H            3.36954038749230       -0.20805367386613        3.61113773760474
H            1.75756962361836       -2.42475562442882        2.26101782564340
H            3.20715444334323       -1.66118893709243        1.61710177092873
H            0.74187902615742        1.73424331797759        0.61940897360568
H            0.92308737654223        2.21468818691509       -1.05663857994345

          :  Hamiltonian                  GFN2-xTB          :
         :: gradient norm              0.000040557305 Eh/a0 ::
         :: HOMO-LUMO gap              2.937786208465 eV    ::
         :: SCC energy              -100.801628904529 Eh    ::
         :: -> dispersion             -0.108703083785 Eh    ::
         :: -> Gsolv                  -0.030354325314 Eh    ::
         :: repulsion energy           1.546565872723 Eh    ::

    * Orbital Energies and Occupations

         #    Occupation            Energy/Eh            Energy/eV
      -------------------------------------------------------------
         1        2.0000           -0.6536779             -17.7875
       ...           ...                  ...                  ...
        82        2.0000           -0.4188362             -11.3971
        83        2.0000           -0.4158428             -11.3157
        84        2.0000           -0.4129885             -11.2380
        85        2.0000           -0.4116614             -11.2019
        86        2.0000           -0.4100203             -11.1572
        87        2.0000           -0.4060920             -11.0503
        88        2.0000           -0.4005831             -10.9004
        89        2.0000           -0.3964024             -10.7867
        90        2.0000           -0.3933637             -10.7040
        91        2.0000           -0.3900571             -10.6140
        92        2.0000           -0.3809056             -10.3650
        93        2.0000           -0.3482510              -9.4764
        94        2.0000           -0.3439481              -9.3593 (HOMO)
        95                         -0.2359865              -6.4215 (LUMO)
        96                         -0.2162428              -5.8843
        97                         -0.2108548              -5.7377
        98                         -0.1544007              -4.2015
        99                         -0.1505281              -4.0961
       100                         -0.1346264              -3.6634
       101                         -0.0863362              -2.3493
       102                         -0.0675190              -1.8373
       103                          0.0275883               0.7507
       104                          0.0386048               1.0505
       105                          0.0460374               1.2527
       ...                                ...                  ...
       192                          0.9229016              25.1134
      -------------------------------------------------------------
                  HL-Gap            0.1079617 Eh            2.9378 eV

     #   Z          covCN         q      C6AA      α(0)
     1   6 C        3.757    -0.099    22.444     6.755
     2   6 C        3.853    -0.012    20.754     6.479
     3   6 C        3.755    -0.102    22.509     6.765
     4   6 C        2.950    -0.003    28.100     8.694
     5   6 C        2.915    -0.060    29.486     8.904
     6   6 C        2.957    -0.010    28.272     8.721
     7   6 C        3.855    -0.013    20.769     6.482
     8   6 C        3.754    -0.098    22.423     6.752
     9   6 C        3.753    -0.101    22.490     6.762
    10   6 C        3.031    -0.007    28.173     8.706
    11   6 C        2.973     0.026    27.427     8.590
    12   6 C        2.929    -0.031    28.779     8.798
    13   6 C        2.918    -0.034    28.855     8.809
    14   6 C        2.919    -0.034    28.852     8.808
    15   6 C        2.919    -0.031    28.771     8.796
    16   6 C        2.932    -0.028    28.706     8.787
    17   6 C        3.846     0.023    20.162     6.387
    18   6 C        3.897    -0.008    20.669     6.463
    19   6 C        3.754    -0.099    22.452     6.757
    20   6 C        3.756    -0.102    22.499     6.763
    21  15 P        3.171    -0.184   168.658    23.329
    22   6 C        3.802    -0.012    20.796     6.493
    23   6 C        3.818    -0.050    21.459     6.593
    24   6 C        3.806    -0.053    21.516     6.603
    25   6 C        3.805    -0.054    21.538     6.607
    26   6 C        3.805    -0.054    21.540     6.607
    27   6 C        3.894    -0.050    21.407     6.577
    28   6 C        3.802    -0.006    20.689     6.476
    29   6 C        3.832    -0.050    21.454     6.590
    30   6 C        3.806    -0.053    21.513     6.603
    31   6 C        3.805    -0.054    21.542     6.607
    32   6 C        3.805    -0.053    21.518     6.604
    33   6 C        3.906    -0.047    21.357     6.569
    34   6 C        3.863    -0.059    21.594     6.608
    35   1 H        0.925     0.037     2.496     2.471
    36   1 H        0.925     0.033     2.549     2.497
    37   1 H        0.925     0.035     2.523     2.484
    38   1 H        0.923     0.029     2.608     2.525
    39   1 H        0.925     0.032     2.553     2.499
    40   1 H        0.925     0.036     2.500     2.472
    41   1 H        0.925     0.034     2.529     2.487
    42   1 H        0.926     0.026     2.648     2.544
    43   1 H        0.923     0.031     2.571     2.508
    44   1 H        0.925     0.031     2.577     2.510
    45   1 H        0.925     0.034     2.532     2.489
    46   1 H        0.925     0.032     2.564     2.504
    47   1 H        0.925     0.033     2.546     2.495
    48   1 H        0.925     0.030     2.582     2.513
    49   1 H        0.925     0.032     2.565     2.505
    50   1 H        0.926     0.026     2.638     2.540
    51   1 H        0.925     0.023     2.683     2.561
    52   1 H        0.926     0.025     2.666     2.553
    53   1 H        0.926     0.028     2.621     2.532
    54   1 H        0.926     0.047     2.352     2.398
    55   1 H        0.924     0.025     2.654     2.548
    56   1 H        0.925     0.033     2.550     2.497
    57   1 H        0.925     0.032     2.562     2.503
    58   1 H        0.925     0.032     2.563     2.503
    59   1 H        0.925     0.047     2.354     2.399
    60   1 H        0.925     0.030     2.580     2.512
    61   1 H        0.925     0.039     2.464     2.455
    62   1 H        0.925     0.044     2.396     2.421
    63   1 H        0.924     0.032     2.555     2.500
    64   1 H        0.924     0.029     2.599     2.521
    65   1 H        0.924     0.026     2.648     2.545
    66   1 H        0.924     0.027     2.626     2.534
    67   1 H        0.924     0.025     2.662     2.552
    68   1 H        0.924     0.029     2.600     2.522
    69   1 H        0.924     0.029     2.603     2.523
    70   1 H        0.924     0.026     2.646     2.544
    71   1 H        0.924     0.029     2.604     2.523
    72   1 H        0.924     0.027     2.625     2.534
    73   1 H        0.924     0.041     2.434     2.440
    74   1 H        0.924     0.034     2.530     2.487
    75   1 H        0.924     0.029     2.600     2.522
    76   1 H        0.924     0.027     2.633     2.537
    77   1 H        0.924     0.025     2.653     2.547
    78   1 H        0.924     0.025     2.662     2.551
    79   1 H        0.924     0.030     2.591     2.517
    80   1 H        0.924     0.026     2.649     2.545
    81   1 H        0.924     0.028     2.622     2.532
    82   1 H        0.924     0.031     2.576     2.510
    83   1 H        0.924     0.029     2.601     2.522
    84   1 H        0.924     0.055     2.263     2.352
    85   1 H        0.924     0.033     2.547     2.496

molecular dipole:
                 x           y           z       tot (Debye)
 q only:        0.277       0.464       0.120
   full:        0.373       0.795       0.157       2.267

 projected vibrational frequencies (cm⁻¹)
eigval :       -0.00     0.00     0.00     0.00     0.00     0.00
eigval :       22.18    29.36    34.32    39.81    44.80    52.13
eigval :       54.80    61.06    67.33    77.17    88.47    99.52
eigval :      108.54   110.37   127.60   139.24   154.33   160.61
eigval :      163.81   172.44   178.43   192.66   197.89   199.35
eigval :      202.01   205.91   219.72   225.16   236.13   243.21
eigval :      244.64   251.95   258.63   278.84   282.84   292.38
eigval :      308.48   314.86   317.44   340.81   358.20   369.12
eigval :      371.87   388.10   392.45   398.15   420.83   426.02
eigval :      431.97   442.84   450.03   463.04   467.61   492.64
eigval :      502.69   514.08   520.99   525.56   541.25   580.66
eigval :      590.10   619.25   654.93   679.55   702.19   719.09
eigval :      748.45   753.40   775.25   807.77   819.79   822.48
eigval :      855.20   858.91   862.79   863.16   874.60   894.68
eigval :      895.57   903.58   923.12   924.29   926.71   927.86
eigval :      931.52   934.80   935.49   937.23   940.15   940.85
eigval :      943.62   953.68   961.18   966.22   967.22   970.46
eigval :      982.86   989.50   991.18   992.77   996.63  1002.22
eigval :     1031.02  1063.30  1067.14  1071.53  1084.79  1086.82
eigval :     1089.44  1090.94  1096.09  1099.29  1110.51  1113.10
eigval :     1118.07  1120.10  1126.10  1136.17  1136.89  1137.83
eigval :     1142.27  1157.22  1158.81  1169.46  1180.80  1184.62
eigval :     1185.78  1186.30  1196.73  1198.36  1199.99  1211.52
eigval :     1221.38  1236.72  1241.17  1248.30  1249.56  1251.04
eigval :     1255.54  1257.17  1260.81  1273.82  1280.45  1287.73
eigval :     1299.76  1302.52  1310.18  1311.83  1326.47  1331.79
eigval :     1334.47  1336.14  1338.03  1339.64  1343.31  1345.23
eigval :     1352.17  1353.33  1353.68  1357.18  1359.46  1363.65
eigval :     1374.01  1397.95  1399.75  1402.82  1412.47  1414.38
eigval :     1415.98  1422.42  1470.57  1472.65  1478.35  1481.98
eigval :     1483.41  1485.82  1487.23  1488.33  1489.51  1490.61
eigval :     1491.62  1492.04  1493.76  1494.77  1497.28  1497.89
eigval :     1500.82  1501.81  1502.80  1504.25  1505.37  1507.72
eigval :     1509.92  1511.60  1575.67  1595.88  1621.94  1705.10
eigval :     2885.14  2891.53  2896.34  2903.25  2924.13  2943.31
eigval :     2944.78  2946.35  2948.83  2950.52  2952.33  2952.96
eigval :     2958.79  2960.95  2964.78  2966.53  2967.73  2968.79
eigval :     2969.97  2973.27  2974.07  2975.49  2976.27  2977.97
eigval :     2979.19  2983.79  3002.79  3004.59  3010.34  3010.99
eigval :     3016.28  3016.83  3020.41  3024.16  3024.49  3025.45
eigval :     3029.03  3036.92  3038.17  3042.16  3044.99  3050.88
eigval :     3059.43  3061.23  3063.27  3065.68  3074.78  3077.33
eigval :     3081.16  3082.64  3101.24

   temp. (K)  partition function   enthalpy   heat capacity  entropy
                                   cal/mol     cal/K/mol   cal/K/mol   J/K/mol
 298.15  VIB  0.157E+16            21454.778    133.552    132.732
         ROT  0.245E+08              888.752      2.981     36.794
         INT  0.385E+23            22343.530    136.533    169.526
         TR   0.101E+29             1481.254      4.968     44.366
         TOT                       23824.7843   141.5015   213.8919   894.9235

       T/K    H(0)-H(T)+PV         H(T)/Eh          T*S/Eh         G(T)/Eh
   ------------------------------------------------------------------------
    298.15    0.379672E-01    0.794437E+00    0.101627E+00    0.692810E+00
   ------------------------------------------------------------------------

         :::::::::::::::::::::::::::::::::::::::::::::::::::::
         ::                  THERMODYNAMIC                  ::
         :::::::::::::::::::::::::::::::::::::::::::::::::::::
         :: total free energy         -98.562252812913 Eh   ::
         ::.................................................::
         :: total energy              -99.255063033342 Eh   ::
         :: zero point energy           0.756469934263 Eh   ::
         :: G(RRHO) w/o ZPVE           -0.063659713834 Eh   ::
         :: G(RRHO) contrib.            0.692810220429 Eh   ::
         :::::::::::::::::::::::::::::::::::::::::::::::::::::

           -------------------------------------------------
          | TOTAL ENERGY              -99.255063033342 Eh   |
          | TOTAL ENTHALPY            -98.460625888634 Eh   |
          | TOTAL FREE ENERGY         -98.562252812913 Eh   |
          | GRADIENT NORM               0.000040558721 Eh/α |
          | HOMO-LUMO GAP               2.937786270300 eV   |
           -------------------------------------------------

 * finished run on 2025/08/25 at 21:19:20.940
