   * xtb version 6.7.1 (edcfbbe) compiled by 'albert@albert-system' on 2024-07-22

   ID    Z sym.   atoms
    1    6 C      1-4, 6-30, 32-45
    2    7 N      5, 31
    3    1 H      46-75

          program call               : xtb data2507/toluene/SAFDPA/SAFDPA.xyz --gfn 2 --gbsa toluene --ohess vtight --parallel 40 --molden --ceasefiles --namespace data2507/toluene/SAFDPA/SAFDPA_toluene_S0_preOpt
      * Solvation model:               GBSA
        Solvent                        toluene
        Solvent mass                       9.2140E+01 g/mol
          :  Hamiltonian                  GFN2-xTB          :
 * total energy  :  -113.2829923 Eh     change       -0.8847536E-09 Eh
 * total energy  :  -113.2991556 Eh     change       -0.1616327E-01 Eh
 * total energy  :  -113.3049774 Eh     change       -0.5821849E-02 Eh
 * total energy  :  -113.3060590 Eh     change       -0.1081601E-02 Eh
 * total energy  :  -113.3064744 Eh     change       -0.4154202E-03 Eh
 * total energy  :  -113.3066042 Eh     change       -0.1297205E-03 Eh
 * total energy  :  -113.3066793 Eh     change       -0.7516767E-04 Eh
 * total energy  :  -113.3067321 Eh     change       -0.5275710E-04 Eh
 * total energy  :  -113.3067688 Eh     change       -0.3675011E-04 Eh
 * total energy  :  -113.3067954 Eh     change       -0.2659956E-04 Eh
 * total energy  :  -113.3068447 Eh     change       -0.7538026E-06 Eh
 * total energy  :  -113.3068454 Eh     change       -0.6972081E-06 Eh
 * total energy  :  -113.3068461 Eh     change       -0.6379883E-06 Eh
 * total energy  :  -113.3068465 Eh     change       -0.4850829E-06 Eh
 * total energy  :  -113.3068468 Eh     change       -0.2829768E-06 Eh
 * total energy  :  -113.3068470 Eh     change       -0.1580213E-06 Eh
 * total energy  :  -113.3068471 Eh     change       -0.1104394E-06 Eh
 * total energy  :  -113.3068472 Eh     change       -0.1017124E-06 Eh
 * total energy  :  -113.3068473 Eh     change       -0.9687037E-07 Eh
   *** GEOMETRY OPTIMIZATION CONVERGED AFTER 43 ITERATIONS ***

 final structure:
================
75
 xtb: 6.7.1 (edcfbbe)
C            5.38922766981787       -4.59376098323713        0.13692083978814
C            4.37662841378234       -4.10046406592998        0.94401246423337
C            3.94911179823874       -2.79336621486162        0.81179648137011
C            4.52819626243406       -1.95706987200367       -0.14312433269012
N            4.09712782448703       -0.63282018998267       -0.28169619807437
C            5.01800150917189        0.38202630848667       -0.56555143297309
C            4.66747779359515        1.44154173140184       -1.40326444152567
C            5.57712221778998        2.44501494512396       -1.67582251141884
C            6.84985775718069        2.40751035082813       -1.12908270383319
C            7.20480362489240        1.35595771303702       -0.29938825961391
C            6.29900354312926        0.35273294335156       -0.01332810454749
C            2.74024472452986       -0.31848425079770       -0.12453213331015
C            1.75959043401048       -1.17950601363590       -0.62232730811858
C            0.41276207324746       -0.88952139344958       -0.47546721421074
C            0.04621262558644        0.27557065109496        0.16289166144270
C            1.02356872493884        1.14883698627296        0.66182687797363
C            2.36770946560225        0.85736891454842        0.52881834181436
C            0.35509369136628        2.28210577376291        1.28427248558943
C            0.86368128445899        3.40459368748448        1.91688653826958
C           -0.02522508793346        4.33854938419194        2.42570610656424
C           -1.39487504363680        4.15624883365834        2.30549845705186
C           -1.90951276642727        3.03340548850184        1.67037048369451
C           -1.03019629687124        2.10188903606234        1.16324786455839
C           -1.34688083154146        0.80877845532744        0.43411829554160
C           -2.06962441473617        1.09609601736665       -0.86134283634850
C           -1.46997453230699        1.93764485238576       -1.78621515857682
C           -2.08337434751156        2.24199775991461       -2.98767234705626
C           -3.32260129418120        1.69307779276534       -3.27087855360254
C           -3.93457151825460        0.85219248422652       -2.36363654998526
C           -3.32037718379325        0.54083693316995       -1.14686110750996
N           -3.94653352913655       -0.30393458237972       -0.24534781907907
C           -5.22012699456132       -0.85126643073097       -0.57930833556374
C           -5.29894260251186       -2.06412514913298       -1.25204898411256
C           -6.53686521070856       -2.59260028819187       -1.57447620714693
C           -7.69411110218889       -1.91449109140165       -1.22756180001914
C           -7.61472614538879       -0.70497519573289       -0.55668747394935
C           -6.37996916542612       -0.17076059046579       -0.23133257563498
C           -3.36539351700717       -0.64291605160914        0.96540801288981
C           -4.02547226598339       -1.50513467070110        1.84608800339975
C           -3.45865156516416       -1.85158896701125        3.05574133269225
C           -2.22011741402840       -1.34781503393863        3.41562550971935
C           -1.56200224202241       -0.49371610025994        2.54964619234190
C           -2.11594786099030       -0.13303852943457        1.33047567729461
C            5.54265814283350       -2.46105578797156       -0.95758562402648
C            5.96925677491074       -3.76700364828996       -0.81190205801986
H            5.72319756495704       -5.61473433516768        0.24588510856478
H            3.92107014459959       -4.73583736511429        1.68985361071207
H            3.16487469801896       -2.40947035039925        1.44827231202483
H            3.67932922387020        1.46947116149787       -1.83950988049274
H            5.29218958577101        3.25784320449828       -2.32820075672422
H            7.55914980630807        3.19175241514819       -1.34740537966878
H            8.19272890203152        1.32015131012677        0.13671161335061
H            6.57598324504188       -0.45994950464122        0.64249648522805
H            2.06391094108320       -2.08303257631322       -1.13002459420790
H           -0.33399515395653       -1.56503994920568       -0.86688542024760
H            3.12414557348601        1.52105259235451        0.92058924406964
H            1.92985931440725        3.55047416414323        2.01145760163578
H            0.35307411815705        5.22054269863943        2.92243392199147
H           -2.06949100820598        4.89687150316625        2.71009319790601
H           -2.97706399572293        2.89420340864053        1.57687134266216
H           -0.50278131174656        2.36023596545927       -1.55353120643919
H           -1.59978511045646        2.90068521307802       -3.69307417580057
H           -3.81836035748601        1.91888895013548       -4.20371918373412
H           -4.90028371071828        0.42958117700627       -2.59571561917383
H           -4.38967243369137       -2.58357174883124       -1.51748981204787
H           -6.59733690240621       -3.53556627871438       -2.09737064416561
H           -8.65861347405338       -2.32889600735353       -1.48045711137014
H           -8.51590871509767       -0.17511681315519       -0.28576009523832
H           -6.30567136521698        0.77170140014448        0.29140246409456
H           -4.99146289766598       -1.90382425587048        1.57603564745379
H           -3.98896809300811       -2.51952846510844        3.71875535698788
H           -1.77143960965053       -1.61533680783842        4.36032782213248
H           -0.59549715171838       -0.09244010968407        2.82014297238987
H            5.99048691161887       -1.82164600770707       -1.70459335813704
H            6.75506583775650       -4.14402753074583       -1.45050201903220

          :  Hamiltonian                  GFN2-xTB          :
         :: gradient norm              0.000028711809 Eh/a0 ::
         :: HOMO-LUMO gap              2.581321218658 eV    ::
         :: SCC energy              -115.461651574585 Eh    ::
         :: -> dispersion             -0.111129626003 Eh    ::
         :: -> Gsolv                  -0.044623467296 Eh    ::
         :: repulsion energy           2.154804275770 Eh    ::

    * Orbital Energies and Occupations

         #    Occupation            Energy/Eh            Energy/eV
      -------------------------------------------------------------
         1        2.0000           -0.6687216             -18.1968
       ...           ...                  ...                  ...
        94        2.0000           -0.4110193             -11.1844
        95        2.0000           -0.4095919             -11.1456
        96        2.0000           -0.4082812             -11.1099
        97        2.0000           -0.4064994             -11.0614
        98        2.0000           -0.4048722             -11.0171
        99        2.0000           -0.4045174             -11.0075
       100        2.0000           -0.4036765             -10.9846
       101        2.0000           -0.3978476             -10.8260
       102        2.0000           -0.3956471             -10.7661
       103        2.0000           -0.3913339             -10.6487
       104        2.0000           -0.3805063             -10.3541
       105        2.0000           -0.3479517              -9.4682
       106        2.0000           -0.3465617              -9.4304 (HOMO)
       107                         -0.2516999              -6.8491 (LUMO)
       108                         -0.2350506              -6.3961
       109                         -0.2339258              -6.3654
       110                         -0.2315415              -6.3006
       111                         -0.2294027              -6.2424
       112                         -0.2273221              -6.1857
       113                         -0.2242476              -6.1021
       114                         -0.2213707              -6.0238
       115                         -0.2207816              -6.0078
       116                         -0.2205808              -6.0023
       117                         -0.2161115              -5.8807
       ...                                ...                  ...
       210                          0.7289605              19.8360
      -------------------------------------------------------------
                  HL-Gap            0.0948618 Eh            2.5813 eV

     #   Z          covCN         q      C6AA      α(0)
     1   6 C        2.919    -0.040    28.992     8.830
     2   6 C        2.919    -0.030    28.759     8.794
     3   6 C        2.922    -0.048    29.200     8.861
     4   6 C        2.923     0.066    26.524     8.446
     5   7 N        2.752    -0.082    22.829     7.096
     6   6 C        2.923     0.066    26.518     8.445
     7   6 C        2.922    -0.048    29.197     8.861
     8   6 C        2.919    -0.030    28.759     8.794
     9   6 C        2.919    -0.040    28.995     8.830
    10   6 C        2.919    -0.031    28.762     8.795
    11   6 C        2.922    -0.049    29.208     8.863
    12   6 C        2.924     0.063    26.581     8.455
    13   6 C        2.925    -0.051    29.259     8.871
    14   6 C        2.913    -0.034    28.841     8.806
    15   6 C        3.057    -0.006    28.117     8.696
    16   6 C        3.033     0.000    27.987     8.677
    17   6 C        2.917    -0.053    29.322     8.880
    18   6 C        3.034     0.000    27.984     8.677
    19   6 C        2.914    -0.035    28.874     8.811
    20   6 C        2.921    -0.034    28.836     8.806
    21   6 C        2.922    -0.033    28.817     8.803
    22   6 C        2.914    -0.034    28.835     8.805
    23   6 C        3.058     0.002    27.922     8.666
    24   6 C        3.949     0.013    20.282     6.399
    25   6 C        2.982    -0.010    28.252     8.719
    26   6 C        2.926    -0.037    28.910     8.818
    27   6 C        2.917    -0.045    29.124     8.850
    28   6 C        2.919    -0.034    28.848     8.808
    29   6 C        2.924    -0.059    29.468     8.902
    30   6 C        2.925     0.060    26.647     8.465
    31   7 N        2.753    -0.074    22.677     7.073
    32   6 C        2.927     0.068    26.475     8.438
    33   6 C        2.921    -0.037    28.927     8.820
    34   6 C        2.920    -0.027    28.686     8.783
    35   6 C        2.920    -0.030    28.742     8.792
    36   6 C        2.920    -0.027    28.686     8.783
    37   6 C        2.921    -0.037    28.928     8.820
    38   6 C        2.925     0.060    26.647     8.465
    39   6 C        2.924    -0.059    29.468     8.902
    40   6 C        2.919    -0.034    28.847     8.808
    41   6 C        2.917    -0.045    29.123     8.850
    42   6 C        2.926    -0.037    28.910     8.818
    43   6 C        2.982    -0.010    28.252     8.719
    44   6 C        2.922    -0.049    29.204     8.862
    45   6 C        2.919    -0.031    28.762     8.795
    46   1 H        0.926     0.031     2.567     2.505
    47   1 H        0.926     0.033     2.550     2.497
    48   1 H        0.926     0.030     2.586     2.515
    49   1 H        0.926     0.030     2.590     2.517
    50   1 H        0.926     0.032     2.554     2.499
    51   1 H        0.926     0.031     2.571     2.507
    52   1 H        0.926     0.033     2.550     2.497
    53   1 H        0.926     0.031     2.576     2.510
    54   1 H        0.926     0.032     2.554     2.499
    55   1 H        0.926     0.028     2.617     2.530
    56   1 H        0.926     0.033     2.548     2.496
    57   1 H        0.926     0.032     2.560     2.502
    58   1 H        0.926     0.032     2.557     2.500
    59   1 H        0.926     0.032     2.558     2.501
    60   1 H        0.926     0.025     2.655     2.548
    61   1 H        0.926     0.024     2.669     2.555
    62   1 H        0.926     0.027     2.633     2.537
    63   1 H        0.926     0.030     2.586     2.515
    64   1 H        0.926     0.029     2.608     2.525
    65   1 H        0.926     0.041     2.438     2.442
    66   1 H        0.926     0.043     2.409     2.427
    67   1 H        0.926     0.043     2.413     2.429
    68   1 H        0.926     0.043     2.409     2.427
    69   1 H        0.926     0.041     2.436     2.441
    70   1 H        0.926     0.028     2.608     2.525
    71   1 H        0.926     0.030     2.586     2.515
    72   1 H        0.926     0.027     2.633     2.537
    73   1 H        0.926     0.024     2.669     2.555
    74   1 H        0.926     0.031     2.573     2.509
    75   1 H        0.926     0.033     2.547     2.496

molecular dipole:
                 x           y           z       tot (Debye)
 q only:       -0.868      -0.338      -0.203
   full:       -0.839      -0.326      -0.196       2.341

 projected vibrational frequencies (cm⁻¹)
eigval :       -0.00    -0.00    -0.00     0.00     0.00     0.00
eigval :      -11.92     8.64    13.84    20.90    34.87    44.70
eigval :       47.07    50.99    55.45    57.82    67.86    72.47
eigval :       82.05    97.00   113.04   117.43   140.70   159.56
eigval :      171.98   197.48   198.36   222.37   233.97   244.55
eigval :      247.18   251.71   280.06   283.72   316.79   328.97
eigval :      347.58   373.86   377.47   380.25   382.67   387.37
eigval :      389.93   397.28   407.96   416.87   426.45   429.12
eigval :      444.07   462.75   470.48   478.69   490.10   501.31
eigval :      503.97   515.93   530.98   563.48   584.50   588.74
eigval :      591.45   591.97   593.64   596.19   598.48   609.37
eigval :      621.51   627.80   655.79   659.87   667.91   671.30
eigval :      674.26   682.12   691.71   703.16   726.96   728.85
eigval :      755.87   756.93   762.15   770.41   775.86   778.60
eigval :      786.35   824.64   863.81   865.25   873.14   874.30
eigval :      874.58   876.01   877.46   886.05   890.22   892.87
eigval :      894.09   904.08   908.22   908.53   909.79   909.86
eigval :      911.12   914.08   918.61   919.22   919.95   925.70
eigval :      927.28   927.35   928.49   928.82   928.92   931.98
eigval :      948.79   956.14   990.56   995.88  1003.84  1029.89
eigval :     1075.15  1076.95  1081.91  1083.08  1090.46  1104.82
eigval :     1106.08  1112.16  1120.80  1122.90  1124.76  1138.41
eigval :     1147.00  1173.74  1177.13  1178.48  1178.52  1179.89
eigval :     1180.76  1182.09  1183.81  1186.22  1194.52  1196.19
eigval :     1205.07  1213.72  1230.66  1232.65  1243.34  1248.87
eigval :     1264.78  1266.20  1271.55  1271.88  1277.23  1282.89
eigval :     1307.24  1311.61  1314.37  1316.61  1319.84  1325.25
eigval :     1325.86  1327.87  1334.29  1337.99  1362.15  1416.67
eigval :     1430.63  1433.34  1433.88  1436.45  1437.68  1441.98
eigval :     1463.93  1467.94  1468.73  1470.83  1474.34  1479.54
eigval :     1494.36  1570.62  1571.59  1576.63  1579.13  1582.06
eigval :     1585.87  1587.78  1590.54  1591.68  1592.44  1595.77
eigval :     1600.83  1602.58  1603.06  3068.05  3070.05  3070.57
eigval :     3071.12  3071.26  3071.59  3072.11  3072.27  3074.46
eigval :     3075.02  3075.11  3077.17  3078.21  3078.34  3080.56
eigval :     3081.07  3082.67  3083.90  3084.95  3085.45  3087.36
eigval :     3088.27  3088.70  3088.85  3089.25  3092.49  3093.24
eigval :     3096.91  3097.33  3098.37

   temp. (K)  partition function   enthalpy   heat capacity  entropy
                                   cal/mol     cal/K/mol   cal/K/mol   J/K/mol
 298.15  VIB  0.181E+17            20454.266    131.294    127.750
         ROT  0.584E+08              888.752      2.981     38.519
         INT  0.106E+25            21343.018    134.275    166.269
         TR   0.133E+29             1481.254      4.968     44.910
         TOT                       22824.2724   139.2434   211.1789   883.5726

       T/K    H(0)-H(T)+PV         H(T)/Eh          T*S/Eh         G(T)/Eh
   ------------------------------------------------------------------------
    298.15    0.363728E-01    0.619940E+00    0.100338E+00    0.519603E+00
   ------------------------------------------------------------------------

         :::::::::::::::::::::::::::::::::::::::::::::::::::::
         ::                  THERMODYNAMIC                  ::
         :::::::::::::::::::::::::::::::::::::::::::::::::::::
         :: total free energy        -112.787244766752 Eh   ::
         ::.................................................::
         :: total energy             -113.306847300967 Eh   ::
         :: zero point energy           0.583567661847 Eh   ::
         :: G(RRHO) w/o ZPVE           -0.063965127632 Eh   ::
         :: G(RRHO) contrib.            0.519602534215 Eh   ::
         :::::::::::::::::::::::::::::::::::::::::::::::::::::

           -------------------------------------------------
          | TOTAL ENERGY             -113.306847300967 Eh   |
          | TOTAL ENTHALPY           -112.686906845802 Eh   |
          | TOTAL FREE ENERGY        -112.787244766752 Eh   |
          | GRADIENT NORM               0.000028712325 Eh/α |
          | HOMO-LUMO GAP               2.581321502559 eV   |
           -------------------------------------------------

 * finished run on 2025/07/19 at 22:30:03.611
