   * xtb version 6.7.1 (edcfbbe) compiled by 'albert@albert-system' on 2024-07-22

   ID    Z sym.   atoms
    1    6 C      1-4, 6-30, 32-45
    2    7 N      5, 31
    3    1 H      46-75

          program call               : xtb data2507/toluene/SAFDPA/SAFDPA_toluene_S0_crest.xyz --gfn 2 --gbsa toluene --ohess vtight --parallel 40 --molden --ceasefiles --namespace data2507/toluene/SAFDPA/SAFDPA_toluene_S0_finalOpt
      * Solvation model:               GBSA
        Solvent                        toluene
        Solvent mass                       9.2140E+01 g/mol
          :  Hamiltonian                  GFN2-xTB          :
 * total energy  :  -113.3066979 Eh     change       -0.1242768E-08 Eh
 * total energy  :  -113.3067303 Eh     change       -0.3243452E-04 Eh
 * total energy  :  -113.3067440 Eh     change       -0.1369479E-04 Eh
 * total energy  :  -113.3067498 Eh     change       -0.5867642E-05 Eh
 * total energy  :  -113.3067562 Eh     change       -0.6376865E-05 Eh
 * total energy  :  -113.3067590 Eh     change       -0.2766629E-05 Eh
 * total energy  :  -113.3067619 Eh     change       -0.2923936E-05 Eh
 * total energy  :  -113.3067643 Eh     change       -0.2401134E-05 Eh
 * total energy  :  -113.3067670 Eh     change       -0.2670587E-05 Eh
 * total energy  :  -113.3067700 Eh     change       -0.2999504E-05 Eh
 * total energy  :  -113.3068393 Eh     change       -0.5173683E-06 Eh
 * total energy  :  -113.3068396 Eh     change       -0.2938587E-06 Eh
 * total energy  :  -113.3068398 Eh     change       -0.2079084E-06 Eh
 * total energy  :  -113.3068400 Eh     change       -0.2184694E-06 Eh
 * total energy  :  -113.3068403 Eh     change       -0.2467631E-06 Eh
 * total energy  :  -113.3068405 Eh     change       -0.2391687E-06 Eh
 * total energy  :  -113.3068407 Eh     change       -0.2368156E-06 Eh
 * total energy  :  -113.3068409 Eh     change       -0.1658627E-06 Eh
 * total energy  :  -113.3068409 Eh     change       -0.2263690E-08 Eh
   *** GEOMETRY OPTIMIZATION CONVERGED AFTER 44 ITERATIONS ***

 final structure:
================
75
 xtb: 6.7.1 (edcfbbe)
C            5.60379289710842       -4.48171327426094       -0.16758057650323
C            6.16363711677473       -3.63911790474821        0.77944871828339
C            5.69595130348466       -2.34813083190078        0.93236200129700
C            4.65922650506414       -1.87549207407996        0.12722158799278
N            4.18485910172905       -0.56704022818013        0.27330296102509
C            5.07216218506701        0.47796783869916        0.55428522289091
C            4.69039930986672        1.52256999430863        1.39710856361994
C            5.56606940889993        2.55661760325234        1.66642026761989
C            6.83578459975309        2.56483195974590        1.11149893429105
C            7.22185770464376        1.52825146340857        0.27688494318140
C            6.34992435552536        0.49454263666968       -0.00594008201287
C            2.81668687094758       -0.29871350308739        0.12775217390694
C            1.86960160807658       -1.19204392503501        0.63350456901470
C            0.51250792082826       -0.94602159151807        0.50045194070518
C            0.10166254011659        0.20677898666916       -0.13338678565610
C            1.04533422569256        1.11125142260437       -0.64191261255132
C            2.39952521016987        0.86427738940250       -0.52159426791729
C            0.33454985358767        2.22209853859967       -1.25771687646529
C            0.80022541911346        3.35933658838124       -1.89700235583221
C           -0.12346380730709        4.26391476817235       -2.39677102722834
C           -1.48521255370260        4.03876492975420       -2.26065073281513
C           -1.95687208740349        2.90082730673342       -1.61912819915111
C           -1.04275961575994        1.99814180870259       -1.12161510376429
C           -1.31015285571892        0.69558256624765       -0.38861753548604
C           -2.06365033715078       -0.26509295609552       -1.27807005073134
C           -1.49400148715235       -0.64314812753860       -2.48463290468278
C           -2.14334629419258       -1.50544436730520       -3.34913542536636
C           -3.38963849576126       -1.99846158417407       -3.00140038401863
C           -3.97199540537278       -1.63491029210718       -1.80418535529192
C           -3.32030993086682       -0.76535070911786       -0.92451603399148
N           -3.91660188147868       -0.40967887302160        0.27405386765277
C           -5.20705642505468       -0.92953519192765        0.58657014550613
C           -5.32573868833153       -2.14295346911222        1.25257149817601
C           -6.58094454551772       -2.64229084089927        1.55376237966269
C           -7.71597332339930       -1.93475712259088        1.19235960476514
C           -7.59686038935214       -0.72509106398354        0.52778827010085
C           -6.34459903559559       -0.22000479111567        0.22345938351666
C           -3.28648609216845        0.41981800601445        1.18699663666034
C           -3.90266039761032        0.72413733574290        2.40453888505705
C           -3.28607800976853        1.54884536812516        3.32343006575673
C           -2.03997949559345        2.08781676215546        3.05161052148937
C           -1.42490032705756        1.79099815956151        1.84912294377744
C           -2.02908014679305        0.96567886848879        0.91268414971961
C            4.10080436050186       -2.72746056141852       -0.82613489853375
C            4.56954027908360       -4.01956180166219       -0.96559224424826
H            5.97009748479287       -5.49092767270116       -0.28210018865526
H            6.96604135842286       -3.99223073932708        1.41104676994339
H            6.12817018165938       -1.69669272618022        1.67816292940822
H            3.70475013884670        1.51476498786117        1.83976113055743
H            5.25720548001270        3.35750145589474        2.32266185046084
H            7.51855689099383        3.37293601472757        1.32724005469141
H            8.20755046273164        1.52828332254759       -0.16568915297946
H            6.65099743880054       -0.30646231269109       -0.66549462404253
H            2.20836641134178       -2.08553463963940        1.13717307778055
H           -0.20786723108417       -1.64558368252723        0.89903082852352
H            3.12999804402836        1.55285491754922       -0.91961827441711
H            1.86007205329016        3.53878944645228       -2.00380321424674
H            0.22120001330767        5.15659445792474       -2.89880350552180
H           -2.18738927254419        4.75729697569547       -2.65812400772150
H           -3.01834169444611        2.72793278227738       -1.51345274860212
H           -0.52266760129540       -0.24808923195493       -2.74683085359721
H           -1.68259233342266       -1.78633622797914       -4.28410495081089
H           -3.91394835486749       -2.67120991147714       -3.66432190593192
H           -4.94402560468299       -2.02512657131567       -1.54361913297646
H           -4.43362476244110       -2.68571214245346        1.52929024485919
H           -6.67230015346245       -3.58561236652887        2.07147752807994
H           -8.69401962316286       -2.32647081212752        1.42886248412834
H           -8.48054525973599       -0.17226109076186        0.24541701721462
H           -6.23967769277260        0.72240480203049       -0.29405782798745
H           -4.87371787855283        0.30924301389573        2.62796379801540
H           -3.78359335669763        1.76959011389037        4.25654749417468
H           -1.55282038520227        2.73389011672266        3.76615448075466
H           -0.45329681531771        2.20773876202342        1.62437614073858
H            3.29970362311983       -2.36735097130755       -1.45547367001107
H            4.12939655321906       -4.66723210878194       -1.71009650224057

          :  Hamiltonian                  GFN2-xTB          :
         :: gradient norm              0.000037105108 Eh/a0 ::
         :: HOMO-LUMO gap              2.580723602108 eV    ::
         :: SCC energy              -115.461689994986 Eh    ::
         :: -> dispersion             -0.111163672429 Eh    ::
         :: -> Gsolv                  -0.044617821710 Eh    ::
         :: repulsion energy           2.154849084101 Eh    ::

    * Orbital Energies and Occupations

         #    Occupation            Energy/Eh            Energy/eV
      -------------------------------------------------------------
         1        2.0000           -0.6687200             -18.1968
       ...           ...                  ...                  ...
        94        2.0000           -0.4109990             -11.1839
        95        2.0000           -0.4096119             -11.1461
        96        2.0000           -0.4083518             -11.1118
        97        2.0000           -0.4064758             -11.0608
        98        2.0000           -0.4048586             -11.0168
        99        2.0000           -0.4045149             -11.0074
       100        2.0000           -0.4036690             -10.9844
       101        2.0000           -0.3977581             -10.8235
       102        2.0000           -0.3957256             -10.7682
       103        2.0000           -0.3913421             -10.6490
       104        2.0000           -0.3805167             -10.3544
       105        2.0000           -0.3479708              -9.4688
       106        2.0000           -0.3465787              -9.4309 (HOMO)
       107                         -0.2517388              -6.8502 (LUMO)
       108                         -0.2350631              -6.3964
       109                         -0.2339162              -6.3652
       110                         -0.2314094              -6.2970
       111                         -0.2293850              -6.2419
       112                         -0.2276299              -6.1941
       113                         -0.2242280              -6.1016
       114                         -0.2213696              -6.0238
       115                         -0.2207928              -6.0081
       116                         -0.2206211              -6.0034
       117                         -0.2158792              -5.8744
       ...                                ...                  ...
       210                          0.7289693              19.8363
      -------------------------------------------------------------
                  HL-Gap            0.0948399 Eh            2.5807 eV

     #   Z          covCN         q      C6AA      α(0)
     1   6 C        2.919    -0.040    28.992     8.830
     2   6 C        2.919    -0.031    28.762     8.795
     3   6 C        2.922    -0.049    29.205     8.862
     4   6 C        2.923     0.066    26.524     8.446
     5   7 N        2.752    -0.082    22.831     7.097
     6   6 C        2.923     0.066    26.517     8.445
     7   6 C        2.922    -0.048    29.198     8.861
     8   6 C        2.919    -0.030    28.760     8.794
     9   6 C        2.919    -0.040    28.996     8.830
    10   6 C        2.919    -0.031    28.762     8.795
    11   6 C        2.922    -0.049    29.209     8.863
    12   6 C        2.925     0.063    26.581     8.455
    13   6 C        2.925    -0.051    29.257     8.870
    14   6 C        2.913    -0.034    28.838     8.806
    15   6 C        3.056    -0.006    28.116     8.696
    16   6 C        3.033     0.000    27.987     8.677
    17   6 C        2.917    -0.053    29.322     8.880
    18   6 C        3.034     0.000    27.984     8.677
    19   6 C        2.914    -0.035    28.873     8.811
    20   6 C        2.921    -0.034    28.837     8.806
    21   6 C        2.922    -0.033    28.817     8.803
    22   6 C        2.914    -0.034    28.838     8.806
    23   6 C        3.059     0.002    27.922     8.666
    24   6 C        3.949     0.013    20.282     6.399
    25   6 C        2.982    -0.010    28.252     8.719
    26   6 C        2.926    -0.037    28.910     8.818
    27   6 C        2.917    -0.045    29.123     8.849
    28   6 C        2.919    -0.034    28.847     8.808
    29   6 C        2.924    -0.059    29.468     8.902
    30   6 C        2.925     0.060    26.647     8.465
    31   7 N        2.753    -0.074    22.678     7.073
    32   6 C        2.927     0.068    26.475     8.438
    33   6 C        2.921    -0.037    28.928     8.820
    34   6 C        2.920    -0.027    28.687     8.783
    35   6 C        2.920    -0.030    28.742     8.792
    36   6 C        2.920    -0.027    28.685     8.783
    37   6 C        2.921    -0.037    28.927     8.820
    38   6 C        2.925     0.060    26.646     8.465
    39   6 C        2.924    -0.059    29.468     8.902
    40   6 C        2.919    -0.034    28.848     8.808
    41   6 C        2.917    -0.045    29.124     8.850
    42   6 C        2.926    -0.037    28.910     8.818
    43   6 C        2.982    -0.010    28.251     8.719
    44   6 C        2.922    -0.048    29.200     8.862
    45   6 C        2.919    -0.030    28.759     8.794
    46   1 H        0.926     0.031     2.567     2.506
    47   1 H        0.926     0.033     2.547     2.496
    48   1 H        0.926     0.031     2.573     2.509
    49   1 H        0.926     0.030     2.592     2.518
    50   1 H        0.926     0.032     2.554     2.499
    51   1 H        0.926     0.031     2.571     2.507
    52   1 H        0.926     0.033     2.550     2.497
    53   1 H        0.926     0.031     2.576     2.510
    54   1 H        0.926     0.032     2.554     2.499
    55   1 H        0.926     0.028     2.615     2.529
    56   1 H        0.926     0.033     2.548     2.496
    57   1 H        0.926     0.032     2.559     2.501
    58   1 H        0.926     0.032     2.556     2.500
    59   1 H        0.926     0.032     2.558     2.501
    60   1 H        0.926     0.025     2.656     2.549
    61   1 H        0.926     0.024     2.669     2.555
    62   1 H        0.926     0.027     2.633     2.537
    63   1 H        0.926     0.030     2.586     2.515
    64   1 H        0.926     0.029     2.608     2.525
    65   1 H        0.926     0.041     2.435     2.440
    66   1 H        0.926     0.043     2.409     2.427
    67   1 H        0.926     0.043     2.413     2.429
    68   1 H        0.926     0.043     2.409     2.427
    69   1 H        0.926     0.041     2.439     2.442
    70   1 H        0.926     0.029     2.608     2.525
    71   1 H        0.926     0.030     2.586     2.515
    72   1 H        0.926     0.027     2.633     2.537
    73   1 H        0.926     0.024     2.669     2.555
    74   1 H        0.926     0.030     2.587     2.515
    75   1 H        0.926     0.033     2.550     2.497

molecular dipole:
                 x           y           z       tot (Debye)
 q only:       -0.882      -0.324       0.190
   full:       -0.852      -0.311       0.183       2.353

 projected vibrational frequencies (cm⁻¹)
eigval :       -0.00    -0.00    -0.00     0.00     0.00     0.00
eigval :        7.94    13.90    14.81    21.44    36.09    44.63
eigval :       46.35    52.28    57.35    58.47    70.25    73.23
eigval :       82.48    97.42   112.52   116.97   141.13   159.23
eigval :      172.10   198.39   198.75   222.46   234.30   244.87
eigval :      246.87   253.57   280.25   282.97   316.76   329.51
eigval :      348.73   374.10   378.13   380.47   383.12   387.29
eigval :      390.87   397.64   408.62   417.25   425.83   428.66
eigval :      444.63   462.83   470.79   479.01   490.82   501.60
eigval :      504.42   516.09   530.91   563.52   584.49   588.75
eigval :      591.55   592.01   594.02   596.21   598.13   609.53
eigval :      621.68   627.54   655.75   660.14   667.99   671.71
eigval :      674.49   683.05   691.97   702.89   727.03   728.90
eigval :      756.15   758.47   763.88   770.82   776.10   778.95
eigval :      786.40   825.55   864.09   864.53   874.30   874.42
eigval :      876.18   876.52   877.77   886.17   890.11   893.87
eigval :      894.97   905.33   908.57   909.26   909.90   910.03
eigval :      912.04   916.12   918.50   919.61   921.36   926.23
eigval :      927.08   928.91   929.13   929.74   931.98   934.38
eigval :      948.94   956.15   990.52   995.81  1003.93  1029.65
eigval :     1075.17  1077.36  1081.71  1082.98  1090.42  1105.70
eigval :     1107.14  1112.47  1120.58  1123.04  1124.97  1137.56
eigval :     1146.47  1173.74  1175.93  1178.63  1179.37  1179.83
eigval :     1180.89  1182.70  1184.28  1186.26  1194.20  1195.95
eigval :     1205.06  1213.31  1230.82  1233.29  1243.52  1248.34
eigval :     1265.63  1266.22  1272.18  1272.75  1277.18  1282.86
eigval :     1307.35  1311.78  1314.35  1316.93  1319.88  1325.28
eigval :     1325.86  1327.91  1334.31  1338.10  1362.04  1416.68
eigval :     1430.87  1433.23  1434.01  1436.42  1437.54  1442.07
eigval :     1463.91  1467.83  1468.90  1470.75  1474.32  1479.76
eigval :     1494.64  1570.57  1571.57  1576.60  1579.18  1582.15
eigval :     1585.84  1587.79  1590.63  1591.68  1592.51  1595.78
eigval :     1600.86  1602.61  1603.13  3068.53  3069.95  3070.55
eigval :     3070.99  3071.49  3071.86  3072.30  3072.52  3074.66
eigval :     3075.29  3075.33  3077.51  3078.36  3078.53  3080.54
eigval :     3081.22  3082.61  3083.66  3085.28  3085.44  3087.76
eigval :     3088.24  3088.82  3089.02  3089.51  3092.49  3093.31
eigval :     3097.16  3097.64  3098.78

   temp. (K)  partition function   enthalpy   heat capacity  entropy
                                   cal/mol     cal/K/mol   cal/K/mol   J/K/mol
 298.15  VIB  0.135E+17            20428.870    131.336    127.443
         ROT  0.584E+08              888.752      2.981     38.518
         INT  0.790E+24            21317.622    134.317    165.961
         TR   0.133E+29             1481.254      4.968     44.910
         TOT                       22798.8760   139.2853   210.8711   882.2848

       T/K    H(0)-H(T)+PV         H(T)/Eh          T*S/Eh         G(T)/Eh
   ------------------------------------------------------------------------
    298.15    0.363323E-01    0.620036E+00    0.100192E+00    0.519844E+00
   ------------------------------------------------------------------------

         :::::::::::::::::::::::::::::::::::::::::::::::::::::
         ::                  THERMODYNAMIC                  ::
         :::::::::::::::::::::::::::::::::::::::::::::::::::::
         :: total free energy        -112.786996421128 Eh   ::
         ::.................................................::
         :: total energy             -113.306840910132 Eh   ::
         :: zero point energy           0.583703840444 Eh   ::
         :: G(RRHO) w/o ZPVE           -0.063859351439 Eh   ::
         :: G(RRHO) contrib.            0.519844489004 Eh   ::
         :::::::::::::::::::::::::::::::::::::::::::::::::::::

           -------------------------------------------------
          | TOTAL ENERGY             -113.306840910132 Eh   |
          | TOTAL ENTHALPY           -112.686804748167 Eh   |
          | TOTAL FREE ENERGY        -112.786996421128 Eh   |
          | GRADIENT NORM               0.000037098832 Eh/α |
          | HOMO-LUMO GAP               2.580723781105 eV   |
           -------------------------------------------------

 * finished run on 2025/07/19 at 22:34:40.039
