   * xtb version 6.7.1 (edcfbbe) compiled by 'albert@albert-system' on 2024-07-22

   ID    Z sym.   atoms
    1    6 C      1-4, 6-30, 32-45
    2    7 N      5, 31
    3    1 H      46-75

          program call               : xtb data2507/toluene/SAFDPA/SAFDPA_toluene_S0_finalOpt.xtbopt.xyz --gfn 2 --uhf 2 --gbsa toluene --ohess vtight --parallel 40 --molden --ceasefiles --namespace data2507/toluene/SAFDPA/SAFDPA_toluene_T1_preOpt
      * Solvation model:               GBSA
        Solvent                        toluene
        Solvent mass                       9.2140E+01 g/mol
          :  Hamiltonian                  GFN2-xTB          :
 * total energy  :  -113.1988051 Eh     change       -0.2280916E-07 Eh
 * total energy  :  -113.2023213 Eh     change       -0.3516193E-02 Eh
 * total energy  :  -113.2041994 Eh     change       -0.1878127E-02 Eh
 * total energy  :  -113.2043915 Eh     change       -0.1921239E-03 Eh
 * total energy  :  -113.2044716 Eh     change       -0.8005357E-04 Eh
 * total energy  :  -113.2044882 Eh     change       -0.1659238E-04 Eh
 * total energy  :  -113.2045067 Eh     change       -0.1853209E-04 Eh
 * total energy  :  -113.2045166 Eh     change       -0.9902656E-05 Eh
 * total energy  :  -113.2045255 Eh     change       -0.8913928E-05 Eh
 * total energy  :  -113.2045314 Eh     change       -0.5853800E-05 Eh
 * total energy  :  -113.2045453 Eh     change       -0.4166697E-06 Eh
 * total energy  :  -113.2045458 Eh     change       -0.4603628E-06 Eh
 * total energy  :  -113.2045462 Eh     change       -0.4171010E-06 Eh
 * total energy  :  -113.2045465 Eh     change       -0.2971901E-06 Eh
 * total energy  :  -113.2045468 Eh     change       -0.2968401E-06 Eh
 * total energy  :  -113.2045471 Eh     change       -0.2809606E-06 Eh
 * total energy  :  -113.2045473 Eh     change       -0.2536295E-06 Eh
 * total energy  :  -113.2045475 Eh     change       -0.1498650E-06 Eh
 * total energy  :  -113.2045475 Eh     change       -0.7772466E-07 Eh
   *** GEOMETRY OPTIMIZATION CONVERGED AFTER 42 ITERATIONS ***

 final structure:
================
75
 xtb: 6.7.1 (edcfbbe)
C            5.47401197839330       -4.49062298502779       -0.15010549523409
C            6.10103834951015       -3.64886055901147        0.75981369380640
C            5.68404495912310       -2.34111944862437        0.90392035323296
C            4.63123117535404       -1.84968644666136        0.12732579277492
N            4.18954203049049       -0.53682558385707        0.27361262325147
C            5.09910474477779        0.48700202597439        0.54886309771599
C            4.74369987410760        1.53492238651349        1.40100808529735
C            5.64471205132265        2.54510612712493        1.67174030512888
C            6.90961644305114        2.53019421924849        1.10040985940013
C            7.26701350257054        1.49333917208740        0.25307762367268
C            6.37343401860271        0.47713880450480       -0.02495639146302
C            2.83527699486479       -0.24499865406805        0.10921975397550
C            1.87683156793022       -1.18752934389336        0.61480543698118
C            0.51121937319906       -0.92479958614361        0.48577637605250
C            0.10132212016687        0.22618339096795       -0.12230307333274
C            1.05996210906067        1.18917795966344       -0.64023156405172
C            2.43260392985097        0.92100662082696       -0.49866589863574
C            0.36184753169160        2.24310701804103       -1.24427597151141
C            0.80208174328026        3.41672875046766       -1.90361087352439
C           -0.12970572761693        4.29456039882833       -2.39644819752633
C           -1.50268377140782        4.05653211464994       -2.26667289947181
C           -1.95823588299909        2.89902415219141       -1.61821846947805
C           -1.04669087884887        2.01514413632871       -1.12056112931785
C           -1.31087435631177        0.70813998486759       -0.38287789471337
C           -2.05141841760088       -0.25853963617174       -1.27053599776100
C           -1.47705908784273       -0.63037861837293       -2.47733529988315
C           -2.11695089168384       -1.49983888561249       -3.34143529270710
C           -3.35880200025740       -2.01010451799119       -2.99597906246419
C           -3.94744940803607       -1.65492762290836       -1.80026035407364
C           -3.30483340403093       -0.77655366015609       -0.92058118570159
N           -3.90352459559421       -0.43019850125282        0.27741694229596
C           -5.18952385172132       -0.96375552598906        0.58749080841424
C           -5.29410855242852       -2.16886245123487        1.27103280011987
C           -6.54432261710823       -2.68186389135475        1.56982275765586
C           -7.68687381641563       -1.99666420255432        1.18875779192044
C           -7.58045384135313       -0.79493001397206        0.50719797769927
C           -6.33377319053904       -0.27537034073715        0.20462505491016
C           -3.29032141782564        0.41295828961957        1.18718852367257
C           -3.91901096770496        0.71616542659469        2.39997866917185
C           -3.31608295229482        1.55279477101868        3.31614680613988
C           -2.07361936404288        2.10438766741370        3.04546925483781
C           -1.44753525478394        1.80990986118540        1.84797515000035
C           -2.03644075302184        0.97264023756296        0.91208275367479
C            4.00557947624597       -2.70081322970352       -0.79174402406812
C            4.42610571752778       -4.01045964767676       -0.91931438548275
H            5.80267858997945       -5.51319446816826       -0.25737863596167
H            6.91309642436853       -4.01918983596070        1.36778474393660
H            6.15665604582461       -1.69355476043877        1.62786267743087
H            3.76204714971164        1.54006264053671        1.85135673346605
H            5.36151685623584        3.34646536761701        2.33799871799118
H            7.60985422353518        3.32355420853841        1.31349585063105
H            8.24644253346676        1.47925182470262       -0.20189885907928
H            6.64670760749323       -0.32199293908091       -0.69813160672778
H            2.22293281273917       -2.05470197464303        1.15238649109896
H           -0.20686910108547       -1.63215338532563        0.87811149715114
H            3.16271922632911        1.61775585222843       -0.88444394703952
H            1.86020423886802        3.60935215635702       -2.01070609025641
H            0.19755084640642        5.19489411546803       -2.90040497983830
H           -2.21299750629078        4.76532538433253       -2.66528200200969
H           -3.02097086893448        2.71938473709098       -1.51862907488009
H           -0.51158726911504       -0.22082865937564       -2.73717091897953
H           -1.65291447511697       -1.77453998434349       -4.27653903271504
H           -3.87244648230126       -2.68880870774874       -3.66071403501798
H           -4.91455153784365       -2.05709484763877       -1.54025703382141
H           -4.39596050215428       -2.69314048323396        1.56284887492637
H           -6.62558198091920       -3.61831684117954        2.10114258031670
H           -8.66078666175596       -2.39918774902003        1.42334937173576
H           -8.46959363819263       -0.25945651611156        0.20954565497588
H           -6.23782398087573        0.66050203202664       -0.32618308115499
H           -4.88671221897471        0.29206291504547        2.61980741362105
H           -3.81957312947191        1.77462472250776        4.24547368833905
H           -1.59834558719430        2.76031351561352        3.75895894418108
H           -0.48155495986562        2.23797518761256        1.62253473800612
H            3.20513262052951       -2.31820403596011       -1.40707898718844
H            3.93815805534963       -4.65761155133251       -1.63331012107644

          :  Hamiltonian                  GFN2-xTB          :
         :: gradient norm              0.000049453397 Eh/a0 ::
         :: HOMO-LUMO gap              0.249756131022 eV    ::
         :: SCC energy              -115.340339718744 Eh    ::
         :: -> dispersion             -0.111251382204 Eh    ::
         :: -> Gsolv                  -0.047065585407 Eh    ::
         :: repulsion energy           2.135792173885 Eh    ::

    * Orbital Energies and Occupations

         #    Occupation            Energy/Eh            Energy/eV
      -------------------------------------------------------------
         1        2.0000           -0.6750356             -18.3687
       ...           ...                  ...                  ...
        95        2.0000           -0.4113112             -11.1923
        96        2.0000           -0.4095451             -11.1443
        97        2.0000           -0.4087305             -11.1221
        98        2.0000           -0.4078632             -11.0985
        99        2.0000           -0.4063112             -11.0563
       100        2.0000           -0.4017613             -10.9325
       101        2.0000           -0.3966976             -10.7947
       102        2.0000           -0.3909401             -10.6380
       103        2.0000           -0.3830366             -10.4230
       104        2.0000           -0.3605563              -9.8112
       105        1.7970           -0.3508868              -9.5481
       106        1.2030           -0.3482883              -9.4774
       107        0.9895           -0.2471436              -6.7251 (HOMO)
       108        0.0059           -0.2379647              -6.4753 (LUMO)
       109        0.0035           -0.2374529              -6.4614
       110        0.0011           -0.2363446              -6.4313
       111        0.0000           -0.2322782              -6.3206
       112        0.0000           -0.2309597              -6.2847
       113                         -0.2274509              -6.1893
       114                         -0.2242801              -6.1030
       115                         -0.2241302              -6.0989
       116                         -0.2219330              -6.0391
       117                         -0.2006916              -5.4611
       118                         -0.1956759              -5.3246
       ...                                ...                  ...
       210                          0.7477568              20.3475
      -------------------------------------------------------------
                  HL-Gap            0.0091789 Eh            0.2498 eV

     #   Z          covCN         q      C6AA      α(0)
     1   6 C        2.918    -0.034    28.836     8.806
     2   6 C        2.918    -0.029    28.736     8.791
     3   6 C        2.920    -0.043    29.072     8.842
     4   6 C        2.927     0.065    26.541     8.449
     5   7 N        2.754    -0.037    21.956     6.959
     6   6 C        2.925     0.065    26.539     8.448
     7   6 C        2.921    -0.040    28.982     8.828
     8   6 C        2.918    -0.028    28.703     8.785
     9   6 C        2.919    -0.033    28.823     8.804
    10   6 C        2.918    -0.028    28.691     8.784
    11   6 C        2.921    -0.044    29.085     8.844
    12   6 C        2.921     0.054    26.784     8.487
    13   6 C        2.918    -0.070    29.752     8.945
    14   6 C        2.903    -0.040    28.992     8.829
    15   6 C        3.046    -0.007    28.149     8.702
    16   6 C        3.022    -0.024    28.579     8.769
    17   6 C        2.908    -0.065    29.627     8.925
    18   6 C        3.020    -0.018    28.443     8.748
    19   6 C        2.908    -0.052    29.297     8.875
    20   6 C        2.913    -0.039    28.962     8.825
    21   6 C        2.919    -0.059    29.458     8.900
    22   6 C        2.908    -0.042    29.043     8.837
    23   6 C        3.052    -0.013    28.295     8.724
    24   6 C        3.940     0.014    20.268     6.398
    25   6 C        2.982    -0.003    28.104     8.696
    26   6 C        2.925    -0.034    28.835     8.806
    27   6 C        2.917    -0.039    28.979     8.828
    28   6 C        2.919    -0.032    28.802     8.801
    29   6 C        2.922    -0.056    29.382     8.889
    30   6 C        2.926     0.061    26.637     8.464
    31   7 N        2.754    -0.054    22.279     7.010
    32   6 C        2.928     0.065    26.538     8.448
    33   6 C        2.921    -0.036    28.908     8.817
    34   6 C        2.920    -0.027    28.664     8.780
    35   6 C        2.919    -0.029    28.724     8.789
    36   6 C        2.920    -0.026    28.662     8.779
    37   6 C        2.921    -0.036    28.900     8.816
    38   6 C        2.926     0.061    26.641     8.464
    39   6 C        2.922    -0.055    29.378     8.889
    40   6 C        2.919    -0.032    28.807     8.801
    41   6 C        2.917    -0.039    28.977     8.827
    42   6 C        2.925    -0.034    28.841     8.807
    43   6 C        2.982    -0.004    28.106     8.696
    44   6 C        2.921    -0.042    29.043     8.838
    45   6 C        2.918    -0.028    28.691     8.784
    46   1 H        0.926     0.039     2.462     2.454
    47   1 H        0.926     0.040     2.446     2.446
    48   1 H        0.926     0.039     2.466     2.456
    49   1 H        0.926     0.039     2.456     2.451
    50   1 H        0.926     0.040     2.448     2.446
    51   1 H        0.926     0.040     2.451     2.448
    52   1 H        0.926     0.041     2.431     2.438
    53   1 H        0.926     0.039     2.456     2.451
    54   1 H        0.926     0.021     2.715     2.577
    55   1 H        0.925     0.015     2.816     2.624
    56   1 H        0.926     0.017     2.784     2.609
    57   1 H        0.926     0.009     2.912     2.668
    58   1 H        0.925     0.009     2.903     2.665
    59   1 H        0.926     0.007     2.947     2.685
    60   1 H        0.925     0.003     3.013     2.714
    61   1 H        0.926     0.031     2.578     2.511
    62   1 H        0.926     0.033     2.548     2.496
    63   1 H        0.926     0.036     2.503     2.474
    64   1 H        0.926     0.034     2.524     2.485
    65   1 H        0.926     0.043     2.408     2.427
    66   1 H        0.926     0.046     2.371     2.408
    67   1 H        0.926     0.045     2.381     2.413
    68   1 H        0.926     0.045     2.379     2.412
    69   1 H        0.926     0.042     2.428     2.437
    70   1 H        0.926     0.034     2.524     2.484
    71   1 H        0.926     0.036     2.504     2.475
    72   1 H        0.926     0.033     2.548     2.496
    73   1 H        0.926     0.031     2.572     2.508
    74   1 H        0.926     0.040     2.446     2.446
    75   1 H        0.926     0.039     2.456     2.451

molecular dipole:
                 x           y           z       tot (Debye)
 q only:       -0.013      -1.836       1.047
   full:       -0.041      -1.769       1.021       5.193

 projected vibrational frequencies (cm⁻¹)
eigval :       -0.00    -0.00    -0.00     0.00     0.00     0.00
eigval :        6.19    12.26    19.88    32.18    35.93    44.69
eigval :       47.23    51.86    56.31    59.34    68.81    72.89
eigval :       79.61    92.10   111.12   115.64   132.37   159.56
eigval :      172.42   188.22   198.04   222.57   232.22   238.36
eigval :      247.17   250.93   271.34   279.73   307.91   316.96
eigval :      337.58   347.92   374.49   375.81   381.06   382.69
eigval :      387.05   396.88   403.93   407.82   413.30   423.91
eigval :      440.17   443.64   460.44   472.02   487.95   496.63
eigval :      507.16   509.29   526.70   538.93   565.85   575.50
eigval :      582.89   586.28   591.19   592.19   594.09   599.57
eigval :      607.15   623.38   645.18   652.83   655.88   660.89
eigval :      663.77   673.74   680.56   684.43   695.18   696.34
eigval :      718.24   721.92   750.60   754.43   763.20   768.32
eigval :      771.21   774.65   801.01   821.65   858.76   863.16
eigval :      864.29   868.51   870.09   874.88   876.02   877.94
eigval :      887.64   890.71   892.09   895.40   901.16   903.47
eigval :      905.68   908.74   910.26   912.22   918.77   920.38
eigval :      921.02   923.79   925.21   927.54   927.70   928.34
eigval :      931.90   938.47   978.01   991.17   991.96   998.69
eigval :     1047.57  1071.89  1074.20  1077.03  1077.89  1092.84
eigval :     1102.15  1104.27  1112.36  1118.98  1119.94  1123.57
eigval :     1128.70  1150.08  1154.62  1165.17  1175.96  1176.67
eigval :     1176.85  1176.87  1180.07  1181.57  1182.54  1185.53
eigval :     1195.42  1197.20  1219.54  1224.97  1231.99  1244.34
eigval :     1259.37  1263.36  1270.39  1270.86  1272.16  1276.96
eigval :     1286.72  1303.60  1307.72  1312.19  1317.71  1320.98
eigval :     1325.64  1327.91  1328.03  1333.39  1338.69  1344.87
eigval :     1367.63  1405.63  1425.04  1425.71  1428.20  1432.92
eigval :     1434.75  1451.58  1453.21  1454.04  1460.15  1464.89
eigval :     1479.97  1481.63  1498.28  1529.51  1530.43  1538.51
eigval :     1544.59  1547.11  1555.20  1555.79  1566.48  1571.90
eigval :     1578.67  1580.12  1592.78  3044.84  3046.41  3056.67
eigval :     3063.77  3073.12  3076.72  3076.93  3077.21  3077.24
eigval :     3077.79  3078.95  3079.14  3079.68  3080.19  3081.34
eigval :     3081.45  3086.26  3087.09  3087.49  3089.94  3090.83
eigval :     3091.18  3091.59  3092.13  3097.21  3097.56  3099.06
eigval :     3099.91  3100.53  3104.36

   temp. (K)  partition function   enthalpy   heat capacity  entropy
                                   cal/mol     cal/K/mol   cal/K/mol   J/K/mol
 298.15  VIB  0.165E+17            20773.962    133.808    129.479
         ROT  0.583E+08              888.752      2.981     38.517
         INT  0.962E+24            21662.714    136.788    167.996
         TR   0.133E+29             1481.254      4.968     44.910
         TOT                       23143.9681   141.7565   212.9060   890.7986

       T/K    H(0)-H(T)+PV         H(T)/Eh          T*S/Eh         G(T)/Eh
   ------------------------------------------------------------------------
    298.15    0.368823E-01    0.615191E+00    0.101158E+00    0.514032E+00
   ------------------------------------------------------------------------

         :::::::::::::::::::::::::::::::::::::::::::::::::::::
         ::                  THERMODYNAMIC                  ::
         :::::::::::::::::::::::::::::::::::::::::::::::::::::
         :: total free energy        -112.690515519855 Eh   ::
         ::.................................................::
         :: total energy             -113.204547544718 Eh   ::
         :: zero point energy           0.578308261619 Eh   ::
         :: G(RRHO) w/o ZPVE           -0.064276236756 Eh   ::
         :: G(RRHO) contrib.            0.514032024863 Eh   ::
         :::::::::::::::::::::::::::::::::::::::::::::::::::::

           -------------------------------------------------
          | TOTAL ENERGY             -113.204547544718 Eh   |
          | TOTAL ENTHALPY           -112.589357022321 Eh   |
          | TOTAL FREE ENERGY        -112.690515519855 Eh   |
          | GRADIENT NORM               0.000050841069 Eh/α |
          | HOMO-LUMO GAP               0.249769521093 eV   |
           -------------------------------------------------

 * finished run on 2025/07/19 at 22:34:47.045
