   * xtb version 6.7.1 (edcfbbe) compiled by 'albert@albert-system' on 2024-07-22

   ID    Z sym.   atoms
    1    6 C      1-4, 6-30, 32-45
    2    7 N      5, 31
    3    1 H      46-75

          program call               : xtb data2507/toluene/SAFDPA/SAFDPA_toluene_T1_crest.xyz --gfn 2 --uhf 2 --gbsa toluene --ohess vtight --parallel 40 --molden --ceasefiles --namespace data2507/toluene/SAFDPA/SAFDPA_toluene_T1_finalOpt
      * Solvation model:               GBSA
        Solvent                        toluene
        Solvent mass                       9.2140E+01 g/mol
          :  Hamiltonian                  GFN2-xTB          :
 * total energy  :  -113.2042319 Eh     change       -0.3699134E-07 Eh
 * total energy  :  -113.2042737 Eh     change       -0.4177383E-04 Eh
 * total energy  :  -113.2042916 Eh     change       -0.1787454E-04 Eh
 * total energy  :  -113.2042971 Eh     change       -0.5503478E-05 Eh
 * total energy  :  -113.2043022 Eh     change       -0.5137218E-05 Eh
 * total energy  :  -113.2043066 Eh     change       -0.4353496E-05 Eh
 * total energy  :  -113.2043108 Eh     change       -0.4229478E-05 Eh
 * total energy  :  -113.2043147 Eh     change       -0.3881033E-05 Eh
 * total energy  :  -113.2043190 Eh     change       -0.4346339E-05 Eh
 * total energy  :  -113.2043247 Eh     change       -0.5676907E-05 Eh
 * total energy  :  -113.2046191 Eh     change       -0.1453291E-06 Eh
 * total energy  :  -113.2046192 Eh     change       -0.1186180E-06 Eh
 * total energy  :  -113.2046194 Eh     change       -0.1496753E-06 Eh
 * total energy  :  -113.2046196 Eh     change       -0.2044361E-06 Eh
 * total energy  :  -113.2046199 Eh     change       -0.2817279E-06 Eh
 * total energy  :  -113.2046201 Eh     change       -0.2918592E-06 Eh
 * total energy  :  -113.2046204 Eh     change       -0.2662436E-06 Eh
 * total energy  :  -113.2046204 Eh     change        0.1319052E-09 Eh
 * total energy  :  -113.2046204 Eh     change       -0.1471520E-08 Eh
   *** GEOMETRY OPTIMIZATION CONVERGED AFTER 123 ITERATIONS ***

 final structure:
================
75
 xtb: 6.7.1 (edcfbbe)
C            5.06814993466676       -4.64111717251213       -1.05375288101105
C            5.74813670291390       -4.02929620512230       -0.00808240312872
C            5.42448517803953       -2.74491441115937        0.37943337798377
C            4.41317641743102       -2.04434297723229       -0.28394209801141
N            4.06398131627650       -0.75424000785050        0.10841416863991
C            5.04261290127083        0.13043783689992        0.56911886983604
C            4.75897535034669        1.01400993267153        1.61282195376015
C            5.72800886159821        1.88658633016990        2.06580030071589
C            6.99068737503293        1.89507482727905        1.48935046158377
C            7.27694720332111        1.02114337049191        0.45247481780417
C            6.31484661177051        0.14368862073094       -0.00906896451609
C            2.73619200586575       -0.33935120213481        0.01290057448122
C            1.70622709132127       -1.29276730686586        0.32290293160017
C            0.36583515043503       -0.91218385356607        0.25339613591413
C            0.04502819938122        0.36507448244170       -0.10765729540568
C            1.07582899440193        1.34273858921408       -0.41681684607935
C            2.42285678507724        0.95189943710062       -0.34317497821770
C            0.46116396401873        2.55066905507923       -0.77605704891393
C            0.99188255089452        3.80342048754237       -1.16675208218472
C            0.13064493638780        4.83330751493465       -1.45220923446601
C           -1.25630638061790        4.67312460718122       -1.36917305583160
C           -1.80099704188377        3.43861951240313       -0.98483432663764
C           -0.96069957907009        2.40373469177802       -0.69573623921007
C           -1.32666737449417        0.99303877854329       -0.25791471826312
C           -2.10937356148731        0.27143747721360       -1.32484448257111
C           -1.62350986023938        0.26795984690862       -2.62422398742415
C           -2.28604090972944       -0.39851669971055       -3.63863215557494
C           -3.45874162142420       -1.08030711044346       -3.35171668014784
C           -3.95933439416196       -1.09029700652496       -2.06648570610129
C           -3.29509997611545       -0.41658222007144       -1.03553089915118
N           -3.80966973673588       -0.42961260082101        0.24866627336277
C           -5.00941525795004       -1.15717373910012        0.50601976370055
C           -4.93993248395245       -2.49694582675256        0.86640676990437
C           -6.10439032227009       -3.20105666970465        1.11956410321985
C           -7.33450169956186       -2.57218591167390        1.01446738405487
C           -7.40212696783348       -1.23600848278194        0.65331433424613
C           -6.24231880152085       -0.52536802629988        0.39800878292294
C           -3.21865938724660        0.27534101697881        1.28235404315859
C           -3.80029870264169        0.27871794701209        2.55500249349578
C           -3.22522921693842        0.98517435677680        3.59083859207626
C           -2.05810499202834        1.70368071163594        3.38192968987100
C           -1.47371635126071        1.69840224029216        2.12859985823808
C           -2.03436011538090        0.99390608851723        1.07340483068312
C            3.73462718607283       -2.66364501362304       -1.34101341280881
C            4.06157795153672       -3.95326201450438       -1.71258541377897
H            5.32403921565953       -5.64658314528700       -1.35154211629883
H            6.52843002675702       -4.56285969482623        0.51409364847033
H            5.93844600425450       -2.27881959877451        1.20726509716741
H            3.77846319929337        0.99930712947924        2.06560229964400
H            5.49968766354803        2.56022422970460        2.87843426188253
H            7.74474052366956        2.58014008153075        1.84604124770818
H            8.25451258588196        1.02788890690462       -0.00664212386011
H            6.53341122412069       -0.52604854849050       -0.82773873759970
H            1.98342466535443       -2.27284495266811        0.67409282181279
H           -0.40481147128067       -1.63120364499773        0.49626725184232
H            3.20436772056018        1.65829118929242       -0.58340281633358
H            2.06222405912901        3.93767046187836       -1.23468831635531
H            0.52763227306567        5.79522443572598       -1.75032675873279
H           -1.91003109749219        5.50059087603185       -1.60112722595811
H           -2.87480451056246        3.31881348547777       -0.92032732520014
H           -0.70883455205967        0.80304811670664       -2.83496909149223
H           -1.89153119422515       -0.38631755422774       -4.64334060123073
H           -3.98782427749041       -1.60583763594859       -4.13293232663728
H           -4.87473430899814       -1.62062382868871       -1.85346646378205
H           -3.97547400840516       -2.97653346751121        0.94617810479176
H           -6.04962831452717       -4.24214051424442        1.40063964878859
H           -8.24105344704160       -3.12354243948730        1.21382945698107
H           -8.35992773956421       -0.74452211327582        0.56995518735082
H           -6.28204755426202        0.51666460578320        0.11614723389970
H           -4.70930211864598       -0.27685030840994        2.72726785270029
H           -3.69148100749899        0.97480159648305        4.56494035938457
H           -1.60601938648597        2.26065024859191        4.18855146226601
H           -0.56175682763638        2.25078898826441        1.95399394024427
H            2.96765276617975       -2.11750347532972       -1.86930339604463
H            3.53336867448505       -4.41987288798011       -2.53107671853677

          :  Hamiltonian                  GFN2-xTB          :
         :: gradient norm              0.000060400849 Eh/a0 ::
         :: HOMO-LUMO gap              0.250637923913 eV    ::
         :: SCC energy              -115.340040450638 Eh    ::
         :: -> dispersion             -0.111175174489 Eh    ::
         :: -> Gsolv                  -0.047085823945 Eh    ::
         :: repulsion energy           2.135420033994 Eh    ::

    * Orbital Energies and Occupations

         #    Occupation            Energy/Eh            Energy/eV
      -------------------------------------------------------------
         1        2.0000           -0.6749355             -18.3659
       ...           ...                  ...                  ...
        95        2.0000           -0.4112698             -11.1912
        96        2.0000           -0.4087747             -11.1233
        97        2.0000           -0.4085224             -11.1165
        98        2.0000           -0.4083295             -11.1112
        99        2.0000           -0.4064504             -11.0601
       100        2.0000           -0.4009910             -10.9115
       101        2.0000           -0.3969745             -10.8022
       102        2.0000           -0.3911330             -10.6433
       103        2.0000           -0.3830206             -10.4225
       104        2.0000           -0.3608106              -9.8182
       105        1.7924           -0.3508439              -9.5469
       106        1.2076           -0.3482987              -9.4777
       107        0.9895           -0.2471910              -6.7264 (HOMO)
       108        0.0058           -0.2379791              -6.4757 (LUMO)
       109        0.0036           -0.2375289              -6.4635
       110        0.0010           -0.2363319              -6.4309
       111        0.0000           -0.2324115              -6.3242
       112        0.0000           -0.2308846              -6.2827
       113                         -0.2274635              -6.1896
       114                         -0.2242464              -6.1021
       115                         -0.2238926              -6.0924
       116                         -0.2214662              -6.0264
       117                         -0.2012696              -5.4768
       118                         -0.1956016              -5.3226
       ...                                ...                  ...
       210                          0.7474596              20.3394
      -------------------------------------------------------------
                  HL-Gap            0.0092119 Eh            0.2507 eV

     #   Z          covCN         q      C6AA      α(0)
     1   6 C        2.918    -0.034    28.840     8.806
     2   6 C        2.918    -0.030    28.738     8.791
     3   6 C        2.920    -0.043    29.072     8.842
     4   6 C        2.927     0.065    26.550     8.450
     5   7 N        2.754    -0.036    21.939     6.957
     6   6 C        2.925     0.065    26.543     8.449
     7   6 C        2.921    -0.039    28.978     8.828
     8   6 C        2.918    -0.028    28.702     8.785
     9   6 C        2.919    -0.033    28.820     8.803
    10   6 C        2.918    -0.028    28.690     8.784
    11   6 C        2.921    -0.043    29.080     8.843
    12   6 C        2.921     0.054    26.799     8.489
    13   6 C        2.918    -0.070    29.754     8.945
    14   6 C        2.903    -0.040    28.989     8.828
    15   6 C        3.048    -0.007    28.150     8.702
    16   6 C        3.022    -0.024    28.586     8.770
    17   6 C        2.908    -0.064    29.603     8.922
    18   6 C        3.021    -0.018    28.434     8.747
    19   6 C        2.908    -0.053    29.304     8.876
    20   6 C        2.913    -0.039    28.958     8.824
    21   6 C        2.919    -0.058    29.446     8.898
    22   6 C        2.908    -0.042    29.036     8.836
    23   6 C        3.051    -0.013    28.296     8.724
    24   6 C        3.940     0.015    20.265     6.397
    25   6 C        2.982    -0.004    28.113     8.697
    26   6 C        2.925    -0.034    28.840     8.807
    27   6 C        2.917    -0.039    28.980     8.828
    28   6 C        2.919    -0.033    28.811     8.802
    29   6 C        2.922    -0.056    29.380     8.889
    30   6 C        2.926     0.060    26.645     8.465
    31   7 N        2.753    -0.054    22.276     7.010
    32   6 C        2.928     0.065    26.538     8.448
    33   6 C        2.921    -0.036    28.904     8.816
    34   6 C        2.920    -0.026    28.663     8.780
    35   6 C        2.919    -0.029    28.724     8.789
    36   6 C        2.920    -0.026    28.664     8.780
    37   6 C        2.921    -0.036    28.904     8.816
    38   6 C        2.926     0.060    26.647     8.465
    39   6 C        2.922    -0.056    29.380     8.889
    40   6 C        2.919    -0.033    28.814     8.802
    41   6 C        2.917    -0.039    28.980     8.828
    42   6 C        2.925    -0.034    28.843     8.807
    43   6 C        2.982    -0.004    28.113     8.697
    44   6 C        2.921    -0.042    29.046     8.838
    45   6 C        2.918    -0.028    28.691     8.784
    46   1 H        0.926     0.039     2.464     2.454
    47   1 H        0.926     0.040     2.447     2.446
    48   1 H        0.926     0.039     2.467     2.456
    49   1 H        0.926     0.040     2.453     2.449
    50   1 H        0.926     0.040     2.446     2.446
    51   1 H        0.926     0.040     2.449     2.447
    52   1 H        0.926     0.042     2.429     2.437
    53   1 H        0.926     0.040     2.454     2.450
    54   1 H        0.926     0.022     2.709     2.574
    55   1 H        0.925     0.014     2.821     2.627
    56   1 H        0.926     0.017     2.774     2.604
    57   1 H        0.926     0.008     2.916     2.670
    58   1 H        0.925     0.009     2.904     2.665
    59   1 H        0.926     0.007     2.945     2.684
    60   1 H        0.925     0.003     3.001     2.709
    61   1 H        0.926     0.031     2.577     2.510
    62   1 H        0.926     0.032     2.553     2.499
    63   1 H        0.926     0.036     2.506     2.476
    64   1 H        0.926     0.034     2.526     2.485
    65   1 H        0.926     0.043     2.415     2.430
    66   1 H        0.926     0.046     2.372     2.408
    67   1 H        0.926     0.045     2.381     2.413
    68   1 H        0.926     0.045     2.378     2.411
    69   1 H        0.926     0.042     2.421     2.433
    70   1 H        0.926     0.034     2.525     2.485
    71   1 H        0.926     0.036     2.507     2.476
    72   1 H        0.926     0.032     2.553     2.499
    73   1 H        0.926     0.031     2.574     2.509
    74   1 H        0.926     0.040     2.445     2.445
    75   1 H        0.926     0.039     2.457     2.451

molecular dipole:
                 x           y           z       tot (Debye)
 q only:       -0.021      -2.186       0.684
   full:       -0.046      -2.115       0.676       5.644

 projected vibrational frequencies (cm⁻¹)
eigval :       -0.00     0.00     0.00     0.00     0.00     0.00
eigval :        9.37    12.79    20.06    25.10    35.47    44.22
eigval :       48.68    52.33    57.56    59.84    68.72    71.92
eigval :       79.99    94.41   112.69   118.12   132.70   160.98
eigval :      173.35   186.34   198.87   223.14   234.39   239.30
eigval :      244.66   247.74   270.78   282.90   307.60   317.36
eigval :      336.60   348.83   374.87   377.36   380.33   384.63
eigval :      387.87   397.15   403.16   407.84   412.28   424.01
eigval :      441.74   443.87   459.60   472.47   489.07   496.57
eigval :      505.45   509.81   527.55   538.38   566.28   575.98
eigval :      582.85   586.01   590.92   592.28   593.91   599.46
eigval :      605.26   625.01   643.86   653.31   656.18   663.40
eigval :      664.37   669.31   677.15   681.24   695.08   697.67
eigval :      717.89   721.51   750.11   755.55   762.10   767.40
eigval :      771.07   773.50   802.54   820.21   859.02   862.81
eigval :      864.86   865.60   871.69   872.42   874.92   877.32
eigval :      888.77   890.63   891.80   896.39   901.04   903.77
eigval :      905.55   908.63   910.87   912.72   918.83   920.02
eigval :      921.22   925.82   926.56   927.59   928.32   930.40
eigval :      930.88   936.83   977.86   990.24   991.74   997.51
eigval :     1049.17  1072.47  1074.68  1077.07  1078.46  1091.52
eigval :     1100.72  1103.12  1113.46  1118.73  1119.90  1123.12
eigval :     1128.98  1149.38  1158.29  1168.33  1175.21  1175.93
eigval :     1176.46  1176.58  1179.64  1181.52  1182.85  1185.44
eigval :     1195.35  1196.48  1219.93  1224.50  1230.81  1244.52
eigval :     1258.93  1263.60  1269.41  1271.65  1271.89  1277.69
eigval :     1285.84  1303.14  1307.95  1311.64  1316.76  1320.86
eigval :     1322.03  1327.91  1328.05  1333.70  1338.07  1346.42
eigval :     1369.38  1408.29  1424.53  1425.15  1428.25  1432.89
eigval :     1434.56  1450.06  1451.21  1452.93  1458.64  1465.01
eigval :     1479.17  1480.40  1496.35  1525.74  1531.98  1536.67
eigval :     1542.71  1547.99  1553.54  1554.04  1564.26  1568.69
eigval :     1576.13  1579.98  1589.97  3044.12  3046.01  3056.08
eigval :     3063.07  3072.42  3076.50  3076.86  3076.91  3077.58
eigval :     3078.27  3078.52  3078.97  3080.00  3080.47  3080.90
eigval :     3080.94  3086.33  3087.32  3087.62  3089.69  3090.83
eigval :     3091.79  3092.13  3092.29  3097.51  3097.80  3099.17
eigval :     3100.87  3101.37  3104.31

   temp. (K)  partition function   enthalpy   heat capacity  entropy
                                   cal/mol     cal/K/mol   cal/K/mol   J/K/mol
 298.15  VIB  0.121E+17            20766.268    133.788    128.993
         ROT  0.582E+08              888.752      2.981     38.513
         INT  0.703E+24            21655.021    136.769    167.506
         TR   0.133E+29             1481.254      4.968     44.910
         TOT                       23136.2747   141.7375   212.4164   888.7501

       T/K    H(0)-H(T)+PV         H(T)/Eh          T*S/Eh         G(T)/Eh
   ------------------------------------------------------------------------
    298.15    0.368700E-01    0.615110E+00    0.100926E+00    0.514185E+00
   ------------------------------------------------------------------------

         :::::::::::::::::::::::::::::::::::::::::::::::::::::
         ::                  THERMODYNAMIC                  ::
         :::::::::::::::::::::::::::::::::::::::::::::::::::::
         :: total free energy        -112.690435838867 Eh   ::
         ::.................................................::
         :: total energy             -113.204620419515 Eh   ::
         :: zero point energy           0.578240455670 Eh   ::
         :: G(RRHO) w/o ZPVE           -0.064055875021 Eh   ::
         :: G(RRHO) contrib.            0.514184580648 Eh   ::
         :::::::::::::::::::::::::::::::::::::::::::::::::::::

           -------------------------------------------------
          | TOTAL ENERGY             -113.204620419515 Eh   |
          | TOTAL ENTHALPY           -112.589509963297 Eh   |
          | TOTAL FREE ENERGY        -112.690435838867 Eh   |
          | GRADIENT NORM               0.000059024835 Eh/α |
          | HOMO-LUMO GAP               0.250669173648 eV   |
           -------------------------------------------------

 * finished run on 2025/07/19 at 22:42:06.791
