   * xtb version 6.7.1 (edcfbbe) compiled by 'albert@albert-system' on 2024-07-22

   ID    Z sym.   atoms
    1    8 O      1
    2    6 C      2-10, 12-31, 33-51, 53-58
    3    7 N      11, 32, 52, 59
    4    1 H      60-95

          program call               : xtb data2507/gas/3-DTPA-BBI/3-DTPA-BBI_gas_S0_finalOpt.xtbopt.xyz --gfn 2 --spinpol --tblite --uhf 2 --ohess vtight --parallel 40 --molden --ceasefiles --namespace data2507/gas/3-DTPA-BBI/3-DTPA-BBI_gas_T1_preOpt
 * total energy  :  -149.7778167 Eh     change        0.2941502E-07 Eh
 * total energy  :  -149.7819147 Eh     change       -0.4098092E-02 Eh
 * total energy  :  -149.7831451 Eh     change       -0.1230380E-02 Eh
 * total energy  :  -149.7832605 Eh     change       -0.1153631E-03 Eh
 * total energy  :  -149.7833494 Eh     change       -0.8889886E-04 Eh
 * total energy  :  -149.7833973 Eh     change       -0.4795153E-04 Eh
 * total energy  :  -149.7834465 Eh     change       -0.4918442E-04 Eh
 * total energy  :  -149.7834871 Eh     change       -0.4060570E-04 Eh
 * total energy  :  -149.7835136 Eh     change       -0.2645876E-04 Eh
 * total energy  :  -149.7835471 Eh     change       -0.3346512E-04 Eh
 * total energy  :  -149.7837955 Eh     change       -0.3730589E-06 Eh
 * total energy  :  -149.7837959 Eh     change       -0.4570416E-06 Eh
 * total energy  :  -149.7837962 Eh     change       -0.2363886E-06 Eh
 * total energy  :  -149.7837965 Eh     change       -0.3964331E-06 Eh
 * total energy  :  -149.7837967 Eh     change       -0.1611417E-06 Eh
 * total energy  :  -149.7837969 Eh     change       -0.1457972E-06 Eh
 * total energy  :  -149.7837970 Eh     change       -0.1055130E-06 Eh
 * total energy  :  -149.7837972 Eh     change       -0.2386564E-06 Eh
 * total energy  :  -149.7837973 Eh     change       -0.7933340E-07 Eh
   *** GEOMETRY OPTIMIZATION CONVERGED AFTER 47 ITERATIONS ***

 final structure:
================
95
 xtb: 6.7.1 (edcfbbe)
O           -6.94483352954593        2.45296629814711        1.03396236353959
C           -6.32229227574102        1.48595592699978        0.61908923941095
C           -4.87251254299110        1.39872225588598        0.54758955592803
C           -4.11661781183439        2.51413399751032        0.96173569955831
C           -2.75695955003607        2.51171154589919        0.81914509836725
C           -2.07028617268432        1.39466313405853        0.30663751169421
C           -0.66345201002783        1.56855599108023       -0.04416183910454
C           -0.18012691001505        1.16872817943153       -1.29387961404662
C            1.13291290530436        1.37117283764261       -1.65024402392783
C            2.02674515254208        1.97301836428311       -0.75930715582946
N            3.37292094712773        2.14160952477183       -1.08872049791330
C            4.07828814715616        3.23548927654303       -0.56412346168512
C            3.49443696395742        4.50123462886366       -0.53541618196198
C            4.18797110447067        5.57317221050404       -0.00798076992006
C            5.46869427226322        5.40165493574120        0.49239403502143
C            6.05336147306963        4.14574534299565        0.46343035331084
C            5.36665002683480        3.06653247407581       -0.05801314124012
C            4.05157864884992        1.20901532126667       -1.87752046612420
C            3.72596716962850       -0.14671800524744       -1.83080325024197
C            4.42055071241098       -1.05806152923875       -2.60137522538382
C            5.45145480787611       -0.64013592346941       -3.42662820263970
C            5.77529666642583        0.70595765738854       -3.48333566868324
C            5.08314634174223        1.62586081409796       -2.72106606542953
C            1.54314785311655        2.40187087747855        0.47953200012309
C            0.22297643955066        2.21228079218560        0.82141141689101
C           -2.78759053922907        0.20200098755840        0.04177606358389
C           -2.16097466069331       -1.04123490963809       -0.26573375069175
C           -0.77773561955009       -1.32725037274988        0.06392299404328
C           -0.23041989029797       -0.93413956959737        1.29424150838728
C            1.06347314622150       -1.24300955827929        1.63416427222555
C            1.88617218876306       -1.94863350517678        0.74678381135695
N            3.21329457288739       -2.22696835913397        1.05799371242971
C            3.82612711616773       -3.37195359558311        0.52406327690322
C            5.11471690451795       -3.29752423984117       -0.00333701267040
C            5.71249531288234       -4.42529119507134       -0.53145644055517
C            5.03803732925454       -5.63576300650444       -0.54399846763373
C            3.75725442187363       -5.71322794405076       -0.02077328467302
C            3.15160011756525       -4.59195978957691        0.51253488769975
C            3.97878658312241       -1.35958448870647        1.84429911593572
C            4.96469898041305       -1.87248161827835        2.68909059652561
C            5.74282449493786       -1.02091887103831        3.44803457718743
C            5.55126822398495        0.35004042731034        3.38439107561771
C            4.56749802097829        0.86359150705252        2.55535356627909
C            3.78713844753545        0.02077900006925        1.78875015609812
C            1.33981707584543       -2.36781296154550       -0.47183821006248
C            0.03655195471115       -2.07521688258015       -0.79578765771993
C           -2.94162583548716       -2.10130546235217       -0.78977849677667
C           -4.29884059690761       -2.02917101000347       -0.85702433496382
C           -4.96285064264307       -0.87221670587806       -0.37353751856740
C           -4.21145115406877        0.24751123101540        0.07694958923697
C           -6.36191469598345       -0.78840157508013       -0.33715475187597
N           -7.23574670063546       -1.71992236867791       -0.71928536498461
C           -8.45694942391965       -1.19632812050290       -0.48123888077731
C           -9.72485668953280       -1.74722363764733       -0.69605921002934
C          -10.81963422870969       -0.98443123607281       -0.36018370556195
C          -10.68583602935355        0.29955932781508        0.17954957130273
C           -9.44335074550057        0.87049643092350        0.40403560994015
C           -8.34004568252763        0.11365400123137        0.06968989648486
N           -6.98203747280081        0.35336758246111        0.15237792179063
H           -4.64767999095858        3.37097049769622        1.34545538929201
H           -2.18983335190866        3.40000791486689        1.05630984368400
H           -0.85977362480547        0.71662908704092       -2.00102022494166
H            1.47884008486238        1.07623665631795       -2.62993646577861
H            2.49878877115019        4.63464118002307       -0.93233961852800
H            3.72812184174216        6.55005469299937        0.00598567487579
H            6.00777504854430        6.24185282954493        0.90257347721317
H            7.04838179797886        4.00248074516220        0.85795416895798
H            5.81688594685652        2.08460132566670       -0.06876652788085
H            2.92591188651355       -0.48063588214018       -1.18924174893352
H            4.16232241844189       -2.10574973792041       -2.54858959446352
H            5.99506419947709       -1.35658287469308       -4.02319145188219
H            6.56924464823955        1.04433240147728       -4.13250913520566
H            5.33274748783365        2.67518932569970       -2.77742816002612
H            2.21543645076565        2.87557871202262        1.17998980632458
H           -0.11939592423361        2.52970790059449        1.79518449722714
H           -0.85527292441629       -0.41021478850012        2.00187640965716
H            1.45093871864363       -0.95668080519264        2.60070123449627
H            5.63382213349718       -2.35028029073223       -0.00500204902453
H            6.70810112074922       -4.35584014927540       -0.94361547082827
H            5.50792220904548       -6.51415664442449       -0.95912767851943
H            3.22852331746809       -6.65464428993362       -0.02152726210143
H            2.15653735208276       -4.65166727444578        0.92844077607580
H            5.11082094952017       -2.94097354942415        2.74907116041810
H            6.50010036852845       -1.43171609636811        4.09908501414011
H            6.16207517616174        1.01268988025802        3.97803326963645
H            4.41460521898983        1.93121870341931        2.49568905251650
H            3.02638818147890        0.42715185855601        1.14161226927761
H            1.95667629297488       -2.91108368424147       -1.17264311621870
H           -0.34623324888265       -2.38253607479457       -1.75740050245050
H           -2.43767908246726       -3.01212188989223       -1.07800203269729
H           -4.90342101743496       -2.83984401716728       -1.22845023185460
H           -9.82175688873595       -2.73733026514294       -1.11140179464235
H          -11.81219668828447       -1.38220717005476       -0.51445305790241
H          -11.57527662723850        0.85943303949849        0.42724344832460
H           -9.33140893351565        1.85883268231863        0.81925442172169

 projected vibrational frequencies (cm⁻¹)
eigval :       -0.00    -0.00    -0.00     0.00     0.00     0.00
eigval :       15.69    16.94    20.61    22.96    31.03    33.78
eigval :       43.33    50.68    52.54    60.09    61.03    66.41
eigval :       72.33    72.67    78.70    80.25    83.71    95.82
eigval :      110.01   114.81   123.75   127.20   131.60   157.74
eigval :      160.07   164.99   186.25   189.32   208.55   225.23
eigval :      230.10   238.40   240.21   256.24   270.85   287.40
eigval :      291.64   301.28   311.17   319.44   322.24   335.59
eigval :      344.50   353.09   355.69   378.37   380.39   382.62
eigval :      383.57   385.81   393.25   396.01   399.01   407.79
eigval :      414.02   417.51   430.77   445.83   456.55   471.13
eigval :      483.08   485.97   492.90   496.46   503.48   511.47
eigval :      525.00   529.59   540.81   551.41   577.27   581.47
eigval :      584.12   586.38   586.82   590.41   593.71   594.00
eigval :      605.31   611.70   615.44   617.47   620.27   642.07
eigval :      657.79   660.17   661.61   665.78   668.49   677.44
eigval :      682.68   683.67   697.71   707.34   711.20   731.11
eigval :      739.84   756.36   759.59   760.19   761.54   764.17
eigval :      776.81   785.71   801.94   813.30   821.84   828.68
eigval :      849.08   862.16   864.25   867.25   872.46   874.15
eigval :      875.19   876.22   878.03   893.30   895.81   897.07
eigval :      897.60   900.27   900.54   901.27   905.92   909.25
eigval :      910.00   914.14   917.90   919.25   921.51   926.65
eigval :      927.90   928.23   928.63   929.69   930.45   930.59
eigval :      930.79   933.06   934.61   937.59   977.23   984.90
eigval :      999.25  1005.01  1005.59  1011.82  1031.52  1048.62
eigval :     1059.86  1081.88  1082.33  1085.98  1087.49  1095.30
eigval :     1121.12  1121.64  1122.49  1124.53  1126.75  1127.63
eigval :     1142.42  1144.50  1145.46  1171.42  1172.79  1179.41
eigval :     1179.61  1180.11  1180.45  1181.98  1184.90  1190.70
eigval :     1192.62  1194.85  1195.61  1201.06  1214.45  1215.95
eigval :     1222.98  1237.53  1260.26  1268.61  1270.52  1274.15
eigval :     1276.94  1277.60  1279.96  1283.19  1284.15  1285.97
eigval :     1305.05  1308.63  1310.96  1315.57  1316.14  1317.81
eigval :     1321.53  1322.94  1325.78  1327.02  1328.39  1331.58
eigval :     1345.83  1365.35  1374.73  1380.07  1387.97  1403.20
eigval :     1415.34  1421.72  1433.09  1434.95  1436.65  1441.17
eigval :     1442.23  1460.27  1461.22  1466.00  1467.83  1468.76
eigval :     1471.11  1476.16  1483.33  1494.74  1512.34  1524.43
eigval :     1539.77  1559.16  1572.02  1574.09  1574.48  1576.45
eigval :     1578.50  1578.72  1585.17  1588.53  1590.14  1592.90
eigval :     1594.33  1596.51  1647.42  3076.29  3076.53  3077.30
eigval :     3078.20  3078.48  3078.82  3079.50  3079.69  3079.91
eigval :     3080.34  3080.82  3080.89  3081.26  3081.64  3082.24
eigval :     3087.82  3088.90  3089.59  3089.64  3090.16  3090.23
eigval :     3091.21  3091.79  3092.54  3093.13  3093.89  3098.18
eigval :     3099.30  3100.20  3101.18  3105.65  3107.25  3110.29
eigval :     3114.54  3115.16  3118.50

   temp. (K)  partition function   enthalpy   heat capacity  entropy
                                   cal/mol     cal/K/mol   cal/K/mol   J/K/mol
 298.15  VIB  0.176E+21            27277.723    175.106    168.730
         ROT  0.135E+09              888.752      2.981     40.181
         INT  0.238E+29            28166.475    178.087    208.912
         TR   0.201E+29             1481.254      4.968     45.731
         TOT                       29647.7288   183.0551   254.6420  1065.4223

       T/K    H(0)-H(T)+PV         H(T)/Eh          T*S/Eh         G(T)/Eh
   ------------------------------------------------------------------------
    298.15    0.472467E-01    0.772846E+00    0.120989E+00    0.651857E+00
   ------------------------------------------------------------------------

         :::::::::::::::::::::::::::::::::::::::::::::::::::::
         ::                  THERMODYNAMIC                  ::
         :::::::::::::::::::::::::::::::::::::::::::::::::::::
         :: total free energy        -149.131940204713 Eh   ::
         ::.................................................::
         :: total energy             -149.783797281321 Eh   ::
         :: zero point energy           0.725599066487 Eh   ::
         :: G(RRHO) w/o ZPVE           -0.073741989879 Eh   ::
         :: G(RRHO) contrib.            0.651857076608 Eh   ::
         :::::::::::::::::::::::::::::::::::::::::::::::::::::

           -------------------------------------------------
          | TOTAL ENERGY             -149.783797281321 Eh   |
          | TOTAL ENTHALPY           -149.010951551558 Eh   |
          | TOTAL FREE ENERGY        -149.131940204713 Eh   |
          | GRADIENT NORM               0.000106181772 Eh/α |
           -------------------------------------------------

 * finished run on 2025/07/20 at 00:43:35.071
