   * xtb version 6.7.1 (edcfbbe) compiled by 'albert@albert-system' on 2024-07-22

   ID    Z sym.   atoms
    1    8 O      1
    2    6 C      2-10, 12-31, 33-51, 53-58
    3    7 N      11, 32, 52, 59
    4    1 H      60-95

          program call               : xtb data2507/gas/3-DTPA-BBI/3-DTPA-BBI_gas_S0_crest.xyz --gfn 2 --ohess vtight --parallel 40 --molden --ceasefiles --namespace data2507/gas/3-DTPA-BBI/3-DTPA-BBI_gas_S0_finalOpt
          :  Hamiltonian                  GFN2-xTB          :
 * total energy  :  -149.8409241 Eh     change       -0.2950344E-08 Eh
 * total energy  :  -149.8409269 Eh     change       -0.2775065E-05 Eh
 * total energy  :  -149.8409285 Eh     change       -0.1546238E-05 Eh
 * total energy  :  -149.8409302 Eh     change       -0.1705384E-05 Eh
 * total energy  :  -149.8409298 Eh     change        0.3701055E-06 Eh
 * total energy  :  -149.8409308 Eh     change       -0.1060830E-05 Eh
 * total energy  :  -149.8409314 Eh     change       -0.5791921E-06 Eh
 * total energy  :  -149.8409323 Eh     change       -0.8391931E-06 Eh
 * total energy  :  -149.8409331 Eh     change       -0.8630455E-06 Eh
 * total energy  :  -149.8409338 Eh     change       -0.6927214E-06 Eh
 * total energy  :  -149.8409345 Eh     change       -0.1900424E-06 Eh
 * total energy  :  -149.8409348 Eh     change       -0.3400260E-06 Eh
 * total energy  :  -149.8409352 Eh     change       -0.3684131E-06 Eh
 * total energy  :  -149.8409355 Eh     change       -0.2735865E-06 Eh
 * total energy  :  -149.8409357 Eh     change       -0.1860153E-06 Eh
 * total energy  :  -149.8409359 Eh     change       -0.1808355E-06 Eh
 * total energy  :  -149.8409360 Eh     change       -0.1938654E-06 Eh
 * total energy  :  -149.8409362 Eh     change       -0.1435991E-06 Eh
 * total energy  :  -149.8409363 Eh     change       -0.9224817E-07 Eh
   *** GEOMETRY OPTIMIZATION CONVERGED AFTER 21 ITERATIONS ***

 final structure:
================
95
 xtb: 6.7.1 (edcfbbe)
O           -6.96755912770769        2.54863937904139        0.75884254161668
C           -6.36536066448219        1.54147671935252        0.45084603080578
C           -4.89808901226006        1.43754688229101        0.41105990285618
C           -4.15683624976041        2.56306187323706        0.71678161752877
C           -2.77432874429663        2.54286658450905        0.59830875772500
C           -2.09582005464656        1.39400123954758        0.23205916330906
C           -0.66671747871463        1.52692849094816       -0.07571731739730
C           -0.16656968053721        1.11404703141263       -1.31017015451407
C            1.15328811009025        1.31873065259292       -1.64600633963730
C            2.02992658426375        1.93311652782149       -0.74793769409358
N            3.37322845620430        2.11759413793391       -1.06335410823495
C            4.07923206925381        3.19875700310619       -0.50948739264407
C            3.50332042148203        4.46679878806364       -0.45862886560243
C            4.20163186293053        5.52462928803426        0.09123839464314
C            5.48043761615718        5.33657152943438        0.58982665867555
C            6.05830908349077        4.07857920156778        0.53612420455756
C            5.36574503944208        3.01338281900270       -0.00649193925667
C            4.06335677973343        1.21444117301664       -1.88248221206652
C            3.78109909447185       -0.14984424425267       -1.84526280123502
C            4.48415817422365       -1.02976724457266       -2.64479600599001
C            5.48235534517931       -0.56898931269595       -3.48691484890888
C            5.76594551601238        0.78632609999423       -3.52995008373642
C            5.06293618462570        1.67458994217624       -2.73965523835678
C            1.52556130838753        2.36111324195548        0.48378244203517
C            0.19919453171881        2.17277091207817        0.80350957643229
C           -2.81637216622953        0.17821507896626        0.05933117311339
C           -2.19315919765112       -1.08827255619248       -0.12914012056894
C           -0.77099984952611       -1.32737594956135        0.14826673307670
C           -0.21496380590802       -0.95717501326835        1.37212470189747
C            1.09410316542052       -1.25745877831446        1.67784305580240
C            1.90367649382597       -1.92968373566563        0.75890488752040
N            3.23774277785225       -2.21154305567774        1.04364487947439
C            3.84976455380478       -3.34086861615958        0.47491146144912
C            5.13538034768159       -3.25029765915660       -0.05586813161244
C            5.73546986492891       -4.36266731465678       -0.61368514710784
C            5.06512021242456       -5.57437682305103       -0.65548863956995
C            3.78684485282258       -5.66819343243828       -0.12963102353730
C            3.18066834656167       -4.56278960941738        0.43568459580528
C            4.00981738993949       -1.36093090123786        1.84513571580309
C            4.99476879765885       -1.89163442493145        2.67826147091193
C            5.77793085665272       -1.05643785711571        3.45079411859630
C            5.59031154333581        0.31564443203187        3.41404130399555
C            4.60693769996412        0.84693201613818        2.59637652324129
C            3.82409105277111        0.02005294315944        1.81462748712442
C            1.34261608866748       -2.31547156468170       -0.46190830402594
C            0.02647518982398       -2.03033226391932       -0.75148127310226
C           -2.96339849299648       -2.18296906889223       -0.48099474105244
C           -4.34582703263983       -2.10498840774645       -0.57622754969943
C           -4.98832530024546       -0.92376756576053       -0.25765153537306
C           -4.23798305175118        0.23182747800829        0.07194027932703
C           -6.41804178262306       -0.82638371565622       -0.24643670971846
N           -7.27109330223129       -1.76707061147232       -0.53346227022661
C           -8.51518937570419       -1.20788192943497       -0.38199540211492
C           -9.77238594489194       -1.77067373437856       -0.56204369917971
C          -10.87074363779434       -0.96561892836738       -0.33459748234772
C          -10.73508992939164        0.36464849896936        0.06114453749706
C           -9.49283996452599        0.94512809063480        0.24619928440443
C           -8.39146986343003        0.14246305899616        0.01987446168172
N           -7.02707246040997        0.37564058608552        0.10197761723806
H           -4.67803368247439        3.46649274975168        0.99572568068165
H           -2.21605669816724        3.45587887989404        0.74459477320723
H           -0.83288892701325        0.65332685354781       -2.02454934226725
H            1.51529054273440        1.01228477624495       -2.61592574682490
H            2.50912957890524        4.61424822114508       -0.85478051952554
H            3.74705793996971        6.50376459534880        0.12336183598724
H            6.02349105186825        6.16583918448513        1.01694299519659
H            7.05259621613420        3.92224018679250        0.92760639770497
H            5.81166709034987        2.03008434026595       -0.03878556593067
H            3.00777649163784       -0.51502745249372       -1.18851745812806
H            4.25930706872551       -2.08553384271183       -2.59968544347867
H            6.03346161696482       -1.26027544763483       -4.10606302057732
H            6.53665067271050        1.15711968129654       -4.18952944827807
H            5.28282545610256        2.73133821758178       -2.78171827846765
H            2.18358608869143        2.84185044261181        1.19244038316842
H           -0.16505835998221        2.49890499909776        1.76672874581736
H           -0.82996700433492       -0.45211761905213        2.10251210060100
H            1.49891598227776       -0.98159917273630        2.64004352334648
H            5.65352731673320       -2.30277227142277       -0.03291438606151
H            6.72999930229804       -4.27943993097980       -1.02640960793859
H            5.53607727531024       -6.44068928933369       -1.09450715564524
H            3.26041164640691       -6.61092568497584       -0.15246032678682
H            2.18692681579664       -4.63712943655811        0.85284633571813
H            5.14009530826499       -2.96136031901214        2.71568256582556
H            6.53610308012047       -1.48180055264602        4.09171922129688
H            6.20391399094682        0.96539092547447        4.01924335303633
H            4.45627977098559        1.91604965181021        2.55655034640390
H            3.06245501649240        0.43990633892584        1.17716239114034
H            1.94816860375644       -2.84024970911674       -1.18600610140252
H           -0.38212573511065       -2.32640904703581       -1.70659684448776
H           -2.47509945206994       -3.13361356885142       -0.63801138575959
H           -4.93979498048378       -2.96366406253875       -0.84517040756684
H           -9.87237494155750       -2.79941720057873       -0.86835226762226
H          -11.86251219940911       -1.37306017098378       -0.46574897800038
H          -11.62257551601165        0.95676207151484        0.22752693349879
H           -9.37940285021845        1.97230108513988        0.55218691748855

          :  Hamiltonian                  GFN2-xTB          :
         :: gradient norm              0.000043801616 Eh/a0 ::
         :: HOMO-LUMO gap              1.358156561367 eV    ::
         :: SCC energy              -152.599211540300 Eh    ::
         :: -> dispersion             -0.154474613692 Eh    ::
         :: repulsion energy           2.758275255015 Eh    ::

    * Orbital Energies and Occupations

         #    Occupation            Energy/Eh            Energy/eV
      -------------------------------------------------------------
         1        2.0000           -0.7086378             -19.2830
       ...           ...                  ...                  ...
       127        2.0000           -0.4131306             -11.2419
       128        2.0000           -0.4126551             -11.2289
       129        2.0000           -0.4102267             -11.1628
       130        2.0000           -0.4098939             -11.1538
       131        2.0000           -0.4090392             -11.1305
       132        2.0000           -0.4018053             -10.9337
       133        2.0000           -0.4000005             -10.8846
       134        2.0000           -0.3979560             -10.8289
       135        2.0000           -0.3892722             -10.5926
       136        2.0000           -0.3810755             -10.3696
       137        2.0000           -0.3757698             -10.2252
       138        2.0000           -0.3569907              -9.7142
       139        2.0000           -0.3542848              -9.6406 (HOMO)
       140                         -0.3043735              -8.2824 (LUMO)
       141                         -0.2546543              -6.9295
       142                         -0.2438164              -6.6346
       143                         -0.2431109              -6.6154
       144                         -0.2385383              -6.4910
       145                         -0.2372590              -6.4561
       146                         -0.2367420              -6.4421
       147                         -0.2328797              -6.3370
       148                         -0.2325417              -6.3278
       149                         -0.2299273              -6.2566
       150                         -0.2286928              -6.2230
       ...                                ...                  ...
       272                          0.7273088              19.7911
      -------------------------------------------------------------
                  HL-Gap            0.0499113 Eh            1.3582 eV

     #   Z          covCN         q      C6AA      α(0)
     1   8 O        0.858    -0.406    21.799     6.260
     2   6 C        2.765     0.273    22.391     7.749
     3   6 C        2.977    -0.032    28.783     8.800
     4   6 C        2.921    -0.015    28.398     8.739
     5   6 C        2.925    -0.036    28.905     8.817
     6   6 C        2.974     0.019    27.578     8.614
     7   6 C        2.980     0.003    27.952     8.672
     8   6 C        2.924    -0.029    28.737     8.791
     9   6 C        2.921    -0.050    29.243     8.868
    10   6 C        2.921     0.065    26.536     8.448
    11   7 N        2.752    -0.073    22.651     7.069
    12   6 C        2.927     0.065    26.539     8.448
    13   6 C        2.922    -0.045    29.130     8.851
    14   6 C        2.920    -0.029    28.724     8.789
    15   6 C        2.919    -0.036    28.904     8.816
    16   6 C        2.920    -0.028    28.712     8.787
    17   6 C        2.922    -0.044    29.083     8.844
    18   6 C        2.924     0.064    26.559     8.451
    19   6 C        2.923    -0.049    29.210     8.863
    20   6 C        2.920    -0.028    28.692     8.784
    21   6 C        2.919    -0.038    28.938     8.821
    22   6 C        2.920    -0.029    28.725     8.789
    23   6 C        2.923    -0.047    29.176     8.858
    24   6 C        2.921    -0.050    29.248     8.869
    25   6 C        2.923    -0.034    28.839     8.807
    26   6 C        2.982     0.006    27.876     8.661
    27   6 C        2.973     0.014    27.699     8.633
    28   6 C        2.979     0.003    27.950     8.672
    29   6 C        2.924    -0.030    28.754     8.794
    30   6 C        2.921    -0.050    29.246     8.868
    31   6 C        2.921     0.065    26.552     8.450
    32   7 N        2.752    -0.073    22.663     7.070
    33   6 C        2.927     0.065    26.538     8.448
    34   6 C        2.922    -0.044    29.089     8.845
    35   6 C        2.920    -0.029    28.715     8.787
    36   6 C        2.919    -0.037    28.908     8.817
    37   6 C        2.920    -0.029    28.725     8.789
    38   6 C        2.922    -0.046    29.132     8.851
    39   6 C        2.924     0.064    26.557     8.451
    40   6 C        2.923    -0.047    29.179     8.858
    41   6 C        2.920    -0.029    28.726     8.789
    42   6 C        2.919    -0.038    28.943     8.822
    43   6 C        2.920    -0.028    28.695     8.784
    44   6 C        2.923    -0.049    29.214     8.864
    45   6 C        2.921    -0.050    29.252     8.869
    46   6 C        2.924    -0.034    28.854     8.809
    47   6 C        2.926    -0.035    28.867     8.811
    48   6 C        2.918    -0.024    28.596     8.769
    49   6 C        2.979    -0.010    28.252     8.719
    50   6 C        2.994     0.005    27.906     8.665
    51   6 C        3.178     0.140    24.576     8.094
    52   7 N        1.878    -0.282    28.169     7.868
    53   6 C        3.193     0.069    25.971     8.311
    54   6 C        2.911    -0.041    29.014     8.833
    55   6 C        2.923    -0.036    28.889     8.814
    56   6 C        2.928    -0.034    28.853     8.809
    57   6 C        2.908    -0.042    29.041     8.836
    58   6 C        3.070     0.046    26.896     8.504
    59   7 N        2.821    -0.066    22.525     7.049
    60   1 H        0.926     0.064     2.151     2.294
    61   1 H        0.926     0.042     2.418     2.431
    62   1 H        0.926     0.033     2.547     2.496
    63   1 H        0.926     0.036     2.509     2.477
    64   1 H        0.926     0.034     2.535     2.490
    65   1 H        0.926     0.034     2.526     2.485
    66   1 H        0.926     0.033     2.542     2.493
    67   1 H        0.926     0.034     2.533     2.489
    68   1 H        0.926     0.033     2.544     2.494
    69   1 H        0.926     0.035     2.521     2.483
    70   1 H        0.926     0.030     2.592     2.518
    71   1 H        0.926     0.031     2.569     2.507
    72   1 H        0.926     0.033     2.547     2.496
    73   1 H        0.926     0.032     2.563     2.504
    74   1 H        0.926     0.035     2.519     2.482
    75   1 H        0.926     0.035     2.521     2.483
    76   1 H        0.926     0.032     2.562     2.503
    77   1 H        0.926     0.035     2.518     2.481
    78   1 H        0.926     0.033     2.548     2.496
    79   1 H        0.926     0.034     2.537     2.491
    80   1 H        0.926     0.033     2.546     2.495
    81   1 H        0.926     0.034     2.529     2.487
    82   1 H        0.926     0.034     2.535     2.490
    83   1 H        0.926     0.032     2.565     2.504
    84   1 H        0.926     0.033     2.550     2.497
    85   1 H        0.926     0.031     2.573     2.509
    86   1 H        0.926     0.029     2.599     2.521
    87   1 H        0.926     0.034     2.529     2.487
    88   1 H        0.926     0.034     2.528     2.486
    89   1 H        0.926     0.034     2.528     2.486
    90   1 H        0.926     0.042     2.423     2.434
    91   1 H        0.926     0.063     2.167     2.302
    92   1 H        0.926     0.046     2.370     2.407
    93   1 H        0.926     0.035     2.516     2.480
    94   1 H        0.926     0.037     2.490     2.468
    95   1 H        0.926     0.060     2.202     2.320

molecular dipole:
                 x           y           z       tot (Debye)
 q only:        2.778      -0.512      -0.186
   full:        2.783      -0.233      -0.105       7.103

 projected vibrational frequencies (cm⁻¹)
eigval :       -0.00    -0.00    -0.00     0.00     0.00     0.00
eigval :       16.01    17.04    20.96    22.02    31.87    32.89
eigval :       43.05    49.66    52.27    59.03    60.86    67.23
eigval :       70.61    72.95    77.31    78.70    84.76    91.60
eigval :      103.82   114.80   121.44   131.31   132.13   155.26
eigval :      158.90   162.77   185.71   188.26   205.53   227.71
eigval :      231.61   239.07   240.66   256.26   273.49   289.75
eigval :      296.84   301.89   312.64   322.42   326.94   345.56
eigval :      348.27   355.05   369.03   379.31   380.91   382.80
eigval :      383.41   383.97   394.00   396.53   400.22   406.28
eigval :      419.18   422.99   431.82   455.33   456.97   475.30
eigval :      484.90   491.78   493.08   499.21   504.84   515.46
eigval :      529.07   544.90   548.17   555.68   582.63   584.89
eigval :      587.16   587.70   592.10   594.55   598.59   603.93
eigval :      610.48   617.62   620.62   627.48   634.46   645.27
eigval :      660.95   661.22   666.86   668.93   679.11   682.07
eigval :      688.09   700.17   709.72   712.37   715.70   740.11
eigval :      750.24   757.19   760.07   761.22   762.16   778.57
eigval :      782.58   789.50   815.99   820.77   845.98   849.80
eigval :      856.71   869.73   871.43   874.10   874.29   876.67
eigval :      877.57   878.64   878.77   893.78   896.10   896.16
eigval :      896.69   904.37   905.17   909.63   910.14   916.32
eigval :      916.37   918.35   922.59   923.56   924.16   927.57
eigval :      928.05   928.59   929.17   929.81   930.68   931.19
eigval :      931.25   935.56   936.94   942.06   978.66   987.26
eigval :     1001.04  1005.98  1006.59  1018.02  1036.47  1056.30
eigval :     1073.70  1082.49  1082.57  1086.07  1087.37  1110.60
eigval :     1121.30  1121.66  1124.06  1126.47  1127.25  1142.79
eigval :     1144.50  1146.91  1151.98  1177.32  1180.32  1180.44
eigval :     1181.07  1181.30  1187.19  1188.14  1188.28  1193.88
eigval :     1196.60  1196.73  1198.19  1202.54  1215.34  1218.07
eigval :     1230.02  1255.98  1264.62  1271.70  1271.93  1278.33
eigval :     1279.10  1281.00  1281.66  1285.37  1293.15  1302.87
eigval :     1309.97  1312.20  1316.15  1316.23  1323.41  1325.24
eigval :     1326.50  1327.00  1329.13  1331.67  1332.30  1337.69
eigval :     1354.33  1362.68  1372.61  1398.14  1408.96  1414.09
eigval :     1414.63  1436.03  1436.64  1438.52  1442.93  1443.06
eigval :     1471.01  1471.51  1475.41  1476.27  1480.33  1488.02
eigval :     1493.34  1505.41  1537.70  1546.64  1550.31  1551.66
eigval :     1559.97  1565.70  1578.04  1578.18  1581.96  1582.19
eigval :     1591.22  1593.66  1593.84  1594.82  1595.90  1601.18
eigval :     1601.63  1616.32  1698.31  3075.90  3076.21  3077.31
eigval :     3077.56  3077.82  3078.13  3078.26  3078.81  3079.09
eigval :     3079.26  3079.38  3080.31  3081.50  3084.45  3084.84
eigval :     3087.03  3087.21  3088.23  3088.33  3090.75  3091.03
eigval :     3091.21  3091.57  3092.62  3094.09  3094.77  3097.04
eigval :     3097.32  3098.55  3098.98  3099.19  3108.79  3113.86
eigval :     3114.68  3115.93  3116.70

   temp. (K)  partition function   enthalpy   heat capacity  entropy
                                   cal/mol     cal/K/mol   cal/K/mol   J/K/mol
 298.15  VIB  0.178E+21            27131.523    173.809    168.126
         ROT  0.135E+09              888.752      2.981     40.186
         INT  0.240E+29            28020.275    176.790    208.312
         TR   0.201E+29             1481.254      4.968     45.731
         TOT                       29501.5291   181.7579   254.0427  1062.9146

       T/K    H(0)-H(T)+PV         H(T)/Eh          T*S/Eh         G(T)/Eh
   ------------------------------------------------------------------------
    298.15    0.470137E-01    0.775594E+00    0.120704E+00    0.654890E+00
   ------------------------------------------------------------------------

         :::::::::::::::::::::::::::::::::::::::::::::::::::::
         ::                  THERMODYNAMIC                  ::
         :::::::::::::::::::::::::::::::::::::::::::::::::::::
         :: total free energy        -149.186046599107 Eh   ::
         ::.................................................::
         :: total energy             -149.840936285280 Eh   ::
         :: zero point energy           0.728579890346 Eh   ::
         :: G(RRHO) w/o ZPVE           -0.073690204172 Eh   ::
         :: G(RRHO) contrib.            0.654889686173 Eh   ::
         :::::::::::::::::::::::::::::::::::::::::::::::::::::

           -------------------------------------------------
          | TOTAL ENERGY             -149.840936285280 Eh   |
          | TOTAL ENTHALPY           -149.065342715837 Eh   |
          | TOTAL FREE ENERGY        -149.186046599107 Eh   |
          | GRADIENT NORM               0.000043788679 Eh/α |
          | HOMO-LUMO GAP               1.358156772101 eV   |
           -------------------------------------------------

 * finished run on 2025/07/20 at 00:43:19.648
