   * xtb version 6.7.1 (edcfbbe) compiled by 'albert@albert-system' on 2024-07-22

   ID    Z sym.   atoms
    1    8 O      1
    2    6 C      2-10, 12-31, 33-51, 53-58
    3    7 N      11, 32, 52, 59
    4    1 H      60-95

          program call               : xtb data2507/gas/3-DTPA-BBI/3-DTPA-BBI_gas_T1_crest.xyz --gfn 2 --spinpol --tblite --uhf 2 --ohess vtight --parallel 40 --molden --ceasefiles --namespace data2507/gas/3-DTPA-BBI/3-DTPA-BBI_gas_T1_finalOpt
 * total energy  :  -149.7837679 Eh     change       -0.4508499E-07 Eh
 * total energy  :  -149.7837776 Eh     change       -0.9668676E-05 Eh
 * total energy  :  -149.7837811 Eh     change       -0.3505911E-05 Eh
 * total energy  :  -149.7837827 Eh     change       -0.1570779E-05 Eh
 * total energy  :  -149.7837851 Eh     change       -0.2435300E-05 Eh
 * total energy  :  -149.7837870 Eh     change       -0.1869881E-05 Eh
 * total energy  :  -149.7837887 Eh     change       -0.1739087E-05 Eh
 * total energy  :  -149.7837903 Eh     change       -0.1606433E-05 Eh
 * total energy  :  -149.7837918 Eh     change       -0.1453418E-05 Eh
 * total energy  :  -149.7837933 Eh     change       -0.1545188E-05 Eh
 * total energy  :  -149.7837944 Eh     change       -0.1115639E-05 Eh
 * total energy  :  -149.7837952 Eh     change       -0.7176090E-06 Eh
 * total energy  :  -149.7837955 Eh     change       -0.3641051E-06 Eh
 * total energy  :  -149.7837958 Eh     change       -0.2459119E-06 Eh
 * total energy  :  -149.7837960 Eh     change       -0.2660024E-06 Eh
 * total energy  :  -149.7837963 Eh     change       -0.2178824E-06 Eh
 * total energy  :  -149.7837965 Eh     change       -0.1962599E-06 Eh
 * total energy  :  -149.7837965 Eh     change       -0.2508173E-07 Eh
   *** GEOMETRY OPTIMIZATION CONVERGED AFTER 18 ITERATIONS ***

 final structure:
================
95
 xtb: 6.7.1 (edcfbbe)
O           -6.94067040758321        2.46189720024178        1.04195207270389
C           -6.32035769023143        1.49520966791988        0.62305521693622
C           -4.87085093665290        1.40400133130219        0.55284027811683
C           -4.11214923576806        2.51580065803280        0.97144320325080
C           -2.75251101753463        2.51044543116927        0.82885429666324
C           -2.06864752846160        1.39332436504660        0.31266345063389
C           -0.66206958426071        1.56523706465600       -0.03967533894491
C           -0.18108666303660        1.16473922770684       -1.29015640456204
C            1.13154328630466        1.36580107420426       -1.64859301035482
C            2.02695425774064        1.96772623380324       -0.75935392466501
N            3.37258739369029        2.13614497394938       -1.09086848830454
C            4.07563818393846        3.23420443994204       -0.57197126112694
C            3.48904530085294        4.49884572512721       -0.55161601713014
C            4.17995287867761        5.57556468133218       -0.03055012930616
C            5.46062788502622        5.40980547475380        0.47188667903920
C            6.04773084003971        4.15483703827581        0.45182535920432
C            5.36368351650715        3.07090277804274       -0.06327947685506
C            4.05202133632158        1.20028895016794       -1.87459565801735
C            3.72434823597732       -0.15489068345690       -1.82463300068462
C            4.42059491900454       -1.06973635344163       -2.58949772898133
C            5.45514068388966       -0.65608089931717       -3.41233073121062
C            5.78050036725363        0.68949496386157       -3.47297154479493
C            5.08671148999662        1.61288480097294       -2.71651899980234
C            1.54578586277067        2.39745710077190        0.48010335101597
C            0.22626176886744        2.20832360851791        0.82449791344259
C           -2.78898730239353        0.20311624028008        0.04459117609004
C           -2.16537113629113       -1.04108271103477       -0.26552466753253
C           -0.78316788498981       -1.33121545998001        0.06519942759711
C           -0.23570055957009       -0.93961298677081        1.29595349003152
C            1.05757414368525       -1.25062726272113        1.63621843206563
C            1.87941709229053       -1.95728438350510        0.74890528972518
N            3.20630262657143       -2.23715801273489        1.06020255286397
C            3.81628012691640       -3.38509105369962        0.52954837693232
C            5.10596574088922       -3.31617391201390        0.00397492679421
C            5.70096787556358       -4.44718345100147       -0.52032961911261
C            5.02265750731110       -5.65552738677209       -0.53099884671803
C            3.74069229470198       -5.72747390099547       -0.00990789586113
C            3.13779866891502       -4.60294536863362        0.51964233202565
C            3.97288270117181       -1.36929538858392        1.84479345075911
C            4.95985513882233       -1.88126164293845        2.68893586605362
C            5.73871007999935       -1.02895509949569        3.44629657373925
C            5.54683618954108        0.34191129852423        3.38189772526199
C            4.56205562573101        0.85458099968232        2.55352173538182
C            3.78102749588976        0.01105148605331        1.78843035252454
C            1.33268121772079       -2.37574361477471       -0.46973527373778
C            0.03005557779402       -2.08072312341737       -0.79418279794620
C           -2.94846718047906       -2.09724965888085       -0.79379943133084
C           -4.30537194243921       -2.02056651223927       -0.86334769937709
C           -4.96672912554319       -0.86327808586947       -0.37709359431110
C           -4.21267020443633        0.25250382268780        0.07869619524909
C           -6.36564714090977       -0.77472064816869       -0.34380381544902
N           -7.24184456089979       -1.70092860880846       -0.73314782536932
C           -8.46184379513075       -1.17368548088728       -0.49631711438063
C           -9.73122543073483       -1.71818012156028       -0.71833485648616
C          -10.82400125725893       -0.95262476685109       -0.38214569876477
C          -10.68680059154353        0.32789945532429        0.16490152464583
C           -9.44276528909104        0.89252512230384        0.39647724866235
C           -8.34147427259024        0.13293650722537        0.06164374891096
N           -6.98283712059619        0.36697688090973        0.14954708556805
H           -4.64087706427471        3.37280215324516        1.35799414525386
H           -2.18339317400711        3.39670867149519        1.06874903898371
H           -0.86242542088862        0.71329768051983       -1.99609129467305
H            1.47602308857697        1.07014634149811       -2.62858679436864
H            2.49337943452600        4.62753162354582       -0.95007919229066
H            3.71818453721746        6.55161987358542       -0.02330722727045
H            5.99780204912020        6.25375078380543        0.87684949375579
H            7.04262320108916        4.01617376376795        0.84830513120799
H            5.81567823008900        2.08971983263379       -0.06723954099534
H            2.92148788753124       -0.48577036891546       -1.18499516961379
H            4.16072465584272       -2.11689105730157       -2.53415585394475
H            6.00028915391198       -1.37536199869618       -4.00405510709092
H            6.57709561171581        1.02462503824921       -4.12059100014121
H            5.33746619690364        2.66176263888344       -2.77608955818048
H            2.21970157593519        2.87138343414787        1.17885892231948
H           -0.11421681029322        2.52574915258197        1.79892987456072
H           -0.85998685259975       -0.41492408352177        2.00352845159367
H            1.44521470250146       -0.96521939847654        2.60296188966809
H            5.62821257261787       -2.37066132948737        0.00086931467961
H            6.69759884472203       -4.38203596274270       -0.93073770260236
H            5.49043491081274       -6.53649729234130       -0.94304996509139
H            3.20876414925286       -6.66709012853305       -0.00950506103779
H            2.14184719560350       -4.65849911243327        0.93400743574092
H            5.10622598259903       -2.94966298977182        2.74981482188149
H            6.49685570943519       -1.43914164096703        4.09672254988151
H            6.15808033463331        1.00511344490776        3.97447821089740
H            4.40871367537596        1.92212525699304        2.49338270185310
H            3.01949731516813        0.41699471453050        1.14193260394612
H            1.94886137762023       -2.92006860994348       -1.17032511054280
H           -0.35283794998221       -2.38722733087684       -1.75600808425813
H           -2.44715152214674       -3.00887401528950       -1.08395028913237
H           -4.91156310188010       -2.82820411717740       -1.23871851885434
H           -9.83077777853127       -2.70561006469580       -1.13940291926159
H          -11.81767631082477       -1.34536927397611       -0.54201459754233
H          -11.57479051163828        0.89003414818785        0.41264832363060
H           -9.32798102448145        1.87815977813280        0.81730513727120

 projected vibrational frequencies (cm⁻¹)
eigval :       -0.00    -0.00     0.00     0.00     0.00     0.00
eigval :       15.65    17.01    20.62    22.94    30.98    33.75
eigval :       43.37    50.78    52.62    60.14    61.10    66.41
eigval :       72.14    72.59    78.85    80.45    83.64    96.11
eigval :      109.95   114.83   123.46   127.28   131.78   158.13
eigval :      160.12   165.06   186.33   189.71   208.58   225.32
eigval :      230.05   238.44   240.25   256.19   270.67   287.28
eigval :      291.31   301.36   310.95   319.62   322.35   335.60
eigval :      344.46   353.15   355.79   378.35   380.39   382.69
eigval :      383.66   385.89   393.25   395.88   399.13   407.91
eigval :      414.08   417.48   430.80   445.79   456.45   471.12
eigval :      483.07   486.00   492.90   496.41   503.49   511.42
eigval :      524.98   529.61   540.79   551.46   577.15   581.50
eigval :      584.16   586.41   586.84   590.49   593.73   594.02
eigval :      605.28   611.77   615.46   617.45   620.25   642.28
eigval :      657.76   660.12   661.60   665.77   668.49   677.44
eigval :      682.79   683.71   697.73   707.37   711.21   731.11
eigval :      739.70   756.37   759.69   760.28   761.60   764.22
eigval :      776.73   785.57   801.94   813.32   821.91   828.74
eigval :      849.06   862.37   864.36   867.46   872.54   874.54
eigval :      875.23   876.32   878.30   893.37   895.85   897.19
eigval :      897.71   900.29   900.59   901.21   905.89   909.27
eigval :      909.99   914.20   917.94   919.25   921.56   926.70
eigval :      928.00   928.32   928.72   929.80   930.58   930.65
eigval :      930.84   932.96   934.77   937.80   977.18   984.68
eigval :      999.19  1004.99  1005.55  1011.68  1031.28  1048.63
eigval :     1059.73  1081.85  1082.27  1085.99  1087.49  1095.28
eigval :     1121.14  1121.62  1122.34  1124.59  1126.70  1127.70
eigval :     1142.63  1144.59  1145.47  1171.34  1172.94  1179.56
eigval :     1179.76  1180.30  1180.59  1182.21  1185.48  1190.74
eigval :     1192.80  1194.94  1195.77  1201.17  1214.97  1216.11
eigval :     1223.08  1237.74  1260.42  1268.74  1270.63  1274.12
eigval :     1277.03  1277.71  1280.14  1283.27  1284.32  1286.05
eigval :     1305.13  1308.82  1310.81  1315.70  1316.23  1318.03
eigval :     1321.46  1322.64  1325.74  1327.04  1328.42  1331.70
eigval :     1345.94  1365.28  1374.62  1380.00  1387.90  1403.33
eigval :     1415.40  1421.65  1433.07  1435.00  1436.66  1441.10
eigval :     1442.32  1460.31  1461.21  1465.98  1467.90  1468.63
eigval :     1471.22  1476.09  1483.34  1494.76  1512.18  1524.46
eigval :     1539.72  1559.29  1571.75  1574.03  1574.42  1576.42
eigval :     1578.45  1578.67  1585.30  1588.54  1590.17  1592.85
eigval :     1594.36  1596.65  1647.22  3076.58  3076.80  3077.90
eigval :     3078.41  3078.77  3079.05  3079.74  3079.88  3080.13
eigval :     3080.51  3081.00  3081.08  3081.45  3081.82  3082.54
eigval :     3087.93  3089.07  3089.84  3089.89  3090.50  3090.68
eigval :     3091.54  3092.00  3092.72  3093.35  3094.07  3098.34
eigval :     3099.40  3100.37  3101.23  3106.06  3107.67  3110.28
eigval :     3114.49  3115.43  3118.71

   temp. (K)  partition function   enthalpy   heat capacity  entropy
                                   cal/mol     cal/K/mol   cal/K/mol   J/K/mol
 298.15  VIB  0.175E+21            27275.540    175.103    168.711
         ROT  0.135E+09              888.752      2.981     40.183
         INT  0.236E+29            28164.292    178.084    208.893
         TR   0.201E+29             1481.254      4.968     45.731
         TOT                       29645.5462   183.0521   254.6239  1065.3464

       T/K    H(0)-H(T)+PV         H(T)/Eh          T*S/Eh         G(T)/Eh
   ------------------------------------------------------------------------
    298.15    0.472432E-01    0.772879E+00    0.120980E+00    0.651899E+00
   ------------------------------------------------------------------------

         :::::::::::::::::::::::::::::::::::::::::::::::::::::
         ::                  THERMODYNAMIC                  ::
         :::::::::::::::::::::::::::::::::::::::::::::::::::::
         :: total free energy        -149.131897583600 Eh   ::
         ::.................................................::
         :: total energy             -149.783796539045 Eh   ::
         :: zero point energy           0.725635802075 Eh   ::
         :: G(RRHO) w/o ZPVE           -0.073736846630 Eh   ::
         :: G(RRHO) contrib.            0.651898955445 Eh   ::
         :::::::::::::::::::::::::::::::::::::::::::::::::::::

           -------------------------------------------------
          | TOTAL ENERGY             -149.783796539045 Eh   |
          | TOTAL ENTHALPY           -149.010917551864 Eh   |
          | TOTAL FREE ENERGY        -149.131897583600 Eh   |
          | GRADIENT NORM               0.000188660456 Eh/α |
           -------------------------------------------------

 * finished run on 2025/07/20 at 00:53:08.612
