   * xtb version 6.7.1 (edcfbbe) compiled by 'albert@albert-system' on 2024-07-22

   ID    Z sym.   atoms
    1    8 O      1
    2    6 C      2-10, 12-31, 33-51, 53-58
    3    7 N      11, 32, 52, 59
    4    1 H      60-95

          program call               : xtb data2507/gas/3-DTPA-BBI/3-DTPA-BBI.xyz --gfn 2 --ohess vtight --parallel 40 --molden --ceasefiles --namespace data2507/gas/3-DTPA-BBI/3-DTPA-BBI_gas_S0_preOpt
          :  Hamiltonian                  GFN2-xTB          :
 * total energy  :  -149.7968526 Eh     change       -0.3973184E-08 Eh
 * total energy  :  -149.8163487 Eh     change       -0.1949605E-01 Eh
 * total energy  :  -149.8240868 Eh     change       -0.7738127E-02 Eh
 * total energy  :  -149.8268480 Eh     change       -0.2761163E-02 Eh
 * total energy  :  -149.8285273 Eh     change       -0.1679316E-02 Eh
 * total energy  :  -149.8293178 Eh     change       -0.7904808E-03 Eh
 * total energy  :  -149.8298128 Eh     change       -0.4950016E-03 Eh
 * total energy  :  -149.8303065 Eh     change       -0.4936889E-03 Eh
 * total energy  :  -149.8308144 Eh     change       -0.5079087E-03 Eh
 * total energy  :  -149.8312247 Eh     change       -0.4103037E-03 Eh
 * total energy  :  -149.8348000 Eh     change       -0.4203875E-06 Eh
 * total energy  :  -149.8348003 Eh     change       -0.3424041E-06 Eh
 * total energy  :  -149.8348006 Eh     change       -0.2716299E-06 Eh
 * total energy  :  -149.8348009 Eh     change       -0.2832634E-06 Eh
 * total energy  :  -149.8348013 Eh     change       -0.3927171E-06 Eh
 * total energy  :  -149.8348018 Eh     change       -0.5083169E-06 Eh
 * total energy  :  -149.8348023 Eh     change       -0.5486186E-06 Eh
 * total energy  :  -149.8348028 Eh     change       -0.5283312E-06 Eh
 * total energy  :  -149.8348028 Eh     change       -0.3413163E-08 Eh
   *** GEOMETRY OPTIMIZATION CONVERGED AFTER 68 ITERATIONS ***

 final structure:
================
95
 xtb: 6.7.1 (edcfbbe)
O           -7.32262960135645        1.74507051532912        2.12482965781939
C           -6.69748047557729        1.18543601667665        1.24872250479361
C           -5.22891607725632        1.11874983022620        1.19492382917123
C           -4.49985950745843        1.75744455525043        2.18141705713693
C           -3.11329057079828        1.82269714497305        2.10257449404685
C           -2.42961233160757        1.19007499043168        1.08286455978933
C           -1.01718482187440        1.50784283246045        0.84255622587716
C           -0.66926850031878        2.03846490086775       -0.39978087571634
C            0.62405111598601        2.41981515744981       -0.67106455642973
C            1.62834100850089        2.23814396871050        0.28203857946240
N            2.95099684582048        2.57808737266723        0.00669634760488
C            3.76215034356880        3.05493911239203        1.05334128175785
C            3.26526590789722        4.00169951183247        1.94717773871666
C            4.05983554223604        4.47053610690414        2.97548662561055
C            5.35768256644924        4.00914094672980        3.12368284973006
C            5.85532862700364        3.06811140847260        2.23746413893274
C            5.06524638072138        2.58862007244485        1.21018814785129
C            3.47414182804043        2.49397561338616       -1.28787226519243
C            3.01419677297664        1.53258160472624       -2.18951208490460
C            3.55876430938894        1.44623445059911       -3.45541288247585
C            4.56950505054916        2.30761441795139       -3.84850672582282
C            5.02622787298536        3.26767774325345       -2.96096361942295
C            4.48365057549857        3.36741264022292       -1.69442840912496
C            1.27958236015126        1.71361387063150        1.52903263622653
C           -0.02830152864077        1.38118085478620        1.81189053584178
C           -3.13929584761610        0.37036085176806        0.16308367275686
C           -2.48478447584567       -0.49226034588267       -0.76083772245098
C           -1.10311013212805       -0.94084569247966       -0.53857672591678
C           -0.76701848753250       -1.45771923136812        0.71394835626044
C            0.45800978708515       -2.04322832172821        0.93613273693458
C            1.39733089358459       -2.13614926015106       -0.09335119731108
N            2.60209627148673       -2.80560544237558        0.11336442244449
C            2.64644429083210       -3.95880643896978        0.90709503470818
C            1.57812089288581       -4.85478223487069        0.93297921088720
C            1.64287947135706       -5.99146428332634        1.71504679137840
C            2.77063413778266       -6.25970947609480        2.47342379753739
C            3.83746551810623       -5.37663157810006        2.44544864572124
C            3.77900604145569       -4.23281432199838        1.67341866263814
C            3.76791769054828       -2.39783093989432       -0.55330392549306
C            4.59141184974366       -3.33897188963922       -1.16947289906938
C            5.74028129777009       -2.93473769194250       -1.82051905985224
C            6.07901883228081       -1.59228958583947       -1.87217737519385
C            5.26570903518521       -0.65548902968866       -1.25741451095374
C            4.11915893613020       -1.05081765546460       -0.59466558898987
C            1.08314913774535       -1.58013210087201       -1.33482080050628
C           -0.15268042700603       -1.00469472257106       -1.55363748446445
C           -3.21873693601191       -1.07217146486948       -1.77931342252178
C           -4.59742164245323       -0.91312192377481       -1.86210923180955
C           -5.27451382297658       -0.22651594815024       -0.87097730099779
C           -4.55581757941866        0.42049108297317        0.16387409900273
C           -6.70455757571253       -0.14016227759895       -0.84178222553553
N           -7.54147589064033       -0.64514482763827       -1.70124355394000
C           -8.79375004125262       -0.30601041972262       -1.25386578698967
C          -10.04039281150333       -0.59229183589537       -1.79573573859462
C          -11.15149404766658       -0.12168896610153       -1.12479697666504
C          -11.03820874370234        0.61513975952411        0.05368447473202
C           -9.80673885243254        0.91178778859616        0.61030313438262
C           -8.69247460727201        0.44218425926132       -0.05800993817918
N           -7.33300071011481        0.54406166193617        0.19654918607261
H           -5.03394386258545        2.25863038024819        2.97476417317469
H           -2.56372198843484        2.42220446851150        2.81341588620242
H           -1.43583115489845        2.17875186151918       -1.14804637925367
H            0.86528182801130        2.86864744735349       -1.62276947699911
H            2.25548016528360        4.36600030720875        1.82569251096255
H            3.66595373912297        5.20728425298435        3.65984601345993
H            5.97737224185486        4.38067500331517        3.92551159479005
H            6.86370208739684        2.69829492004192        2.35031971234401
H            5.45195236817526        1.84805023542101        0.52644448836564
H            2.23642553669471        0.84652133478559       -1.89098577804305
H            3.19640998606335        0.69087606318291       -4.13705204470287
H            4.99586783175140        2.23285044162598       -4.83708447776279
H            5.80802936298730        3.95126657223796       -3.25782731892987
H            4.83911779706583        4.12605125410927       -1.01269980872356
H            2.04487633454940        1.56921957618269        2.27746488622101
H           -0.27928048785096        0.97762268098696        2.78168707445131
H           -1.49275341118655       -1.42092872107783        1.51341308727642
H            0.69396239139615       -2.45303058568548        1.90699671979259
H            0.70238445675985       -4.65733180361386        0.33223765418185
H            0.80944220567785       -6.67839195226247        1.72356039300672
H            2.81832031203115       -7.15118722639500        3.07993242978880
H            4.72018258471900       -5.57591582264679        3.03504194337877
H            4.60958976220456       -3.54228688367917        1.65765864900963
H            4.32055856928759       -4.38417889149726       -1.13399925825152
H            6.36980964256730       -3.67087857966527       -2.29820991972180
H            6.97375230023073       -1.27705243849202       -2.38698357635511
H            5.53042633506580        0.39048753505273       -1.29805328424527
H            3.49028730546891       -0.32784207859906       -0.09667047210576
H            1.80497746414375       -1.63735825591158       -2.13705611928186
H           -0.38593680169649       -0.59754029214195       -2.52702018128469
H           -2.71416286449067       -1.70807474001518       -2.49201190122824
H           -5.16582854769596       -1.37239816102596       -2.65502230776753
H          -10.12281730856556       -1.16207796649144       -2.70715308375557
H          -12.13559531964706       -0.32740629497095       -1.51979875930898
H          -11.93486875597967        0.96295900988243        0.54453822988222
H           -9.71100525103467        1.48038321312517        1.52082815010065

          :  Hamiltonian                  GFN2-xTB          :
         :: gradient norm              0.000038044599 Eh/a0 ::
         :: HOMO-LUMO gap              1.344183117675 eV    ::
         :: SCC energy              -152.593786128031 Eh    ::
         :: -> dispersion             -0.150649487234 Eh    ::
         :: repulsion energy           2.758983288838 Eh    ::

    * Orbital Energies and Occupations

         #    Occupation            Energy/Eh            Energy/eV
      -------------------------------------------------------------
         1        2.0000           -0.7089895             -19.2926
       ...           ...                  ...                  ...
       127        2.0000           -0.4134013             -11.2492
       128        2.0000           -0.4122668             -11.2184
       129        2.0000           -0.4106022             -11.1731
       130        2.0000           -0.4089605             -11.1284
       131        2.0000           -0.4075122             -11.0890
       132        2.0000           -0.4023382             -10.9482
       133        2.0000           -0.4004600             -10.8971
       134        2.0000           -0.3979990             -10.8301
       135        2.0000           -0.3894360             -10.5971
       136        2.0000           -0.3814087             -10.3787
       137        2.0000           -0.3753920             -10.2149
       138        2.0000           -0.3568927              -9.7115
       139        2.0000           -0.3540631              -9.6345 (HOMO)
       140                         -0.3046652              -8.2904 (LUMO)
       141                         -0.2547289              -6.9315
       142                         -0.2445930              -6.6557
       143                         -0.2437281              -6.6322
       144                         -0.2382391              -6.4828
       145                         -0.2372331              -6.4554
       146                         -0.2356666              -6.4128
       147                         -0.2336531              -6.3580
       148                         -0.2323845              -6.3235
       149                         -0.2303019              -6.2668
       150                         -0.2272014              -6.1825
       ...                                ...                  ...
       272                          0.7277547              19.8032
      -------------------------------------------------------------
                  HL-Gap            0.0493978 Eh            1.3442 eV

     #   Z          covCN         q      C6AA      α(0)
     1   8 O        0.858    -0.405    21.790     6.259
     2   6 C        2.764     0.273    22.388     7.749
     3   6 C        2.976    -0.032    28.787     8.801
     4   6 C        2.921    -0.015    28.390     8.738
     5   6 C        2.920    -0.036    28.902     8.816
     6   6 C        2.978     0.020    27.562     8.612
     7   6 C        2.979     0.004    27.934     8.670
     8   6 C        2.928    -0.030    28.756     8.794
     9   6 C        2.921    -0.049    29.227     8.866
    10   6 C        2.924     0.065    26.544     8.449
    11   7 N        2.752    -0.074    22.672     7.072
    12   6 C        2.927     0.065    26.543     8.449
    13   6 C        2.922    -0.045    29.109     8.848
    14   6 C        2.920    -0.028    28.712     8.787
    15   6 C        2.919    -0.036    28.884     8.813
    16   6 C        2.920    -0.029    28.716     8.788
    17   6 C        2.922    -0.045    29.109     8.848
    18   6 C        2.921     0.065    26.550     8.450
    19   6 C        2.922    -0.049    29.204     8.862
    20   6 C        2.920    -0.028    28.700     8.785
    21   6 C        2.919    -0.038    28.954     8.824
    22   6 C        2.920    -0.029    28.733     8.790
    23   6 C        2.923    -0.050    29.233     8.866
    24   6 C        2.922    -0.050    29.235     8.867
    25   6 C        2.921    -0.032    28.805     8.801
    26   6 C        2.988     0.006    27.887     8.662
    27   6 C        2.975     0.014    27.690     8.632
    28   6 C        2.977     0.003    27.949     8.672
    29   6 C        2.927    -0.030    28.760     8.795
    30   6 C        2.921    -0.048    29.204     8.862
    31   6 C        2.922     0.065    26.543     8.449
    32   7 N        2.752    -0.076    22.714     7.078
    33   6 C        2.926     0.065    26.552     8.450
    34   6 C        2.922    -0.048    29.186     8.859
    35   6 C        2.920    -0.029    28.722     8.789
    36   6 C        2.919    -0.038    28.940     8.822
    37   6 C        2.920    -0.029    28.721     8.788
    38   6 C        2.923    -0.047    29.179     8.858
    39   6 C        2.926     0.065    26.545     8.449
    40   6 C        2.922    -0.045    29.130     8.851
    41   6 C        2.920    -0.029    28.715     8.787
    42   6 C        2.919    -0.036    28.908     8.817
    43   6 C        2.920    -0.027    28.675     8.781
    44   6 C        2.922    -0.045    29.107     8.847
    45   6 C        2.920    -0.050    29.232     8.866
    46   6 C        2.922    -0.034    28.840     8.807
    47   6 C        2.923    -0.035    28.864     8.810
    48   6 C        2.918    -0.024    28.592     8.769
    49   6 C        2.977    -0.010    28.254     8.719
    50   6 C        2.995     0.005    27.908     8.666
    51   6 C        3.177     0.140    24.578     8.095
    52   7 N        1.877    -0.282    28.157     7.866
    53   6 C        3.192     0.069    25.975     8.312
    54   6 C        2.911    -0.041    29.013     8.832
    55   6 C        2.923    -0.036    28.889     8.814
    56   6 C        2.928    -0.034    28.852     8.809
    57   6 C        2.908    -0.042    29.043     8.837
    58   6 C        3.070     0.046    26.893     8.503
    59   7 N        2.820    -0.067    22.538     7.051
    60   1 H        0.926     0.064     2.150     2.293
    61   1 H        0.926     0.042     2.419     2.432
    62   1 H        0.926     0.032     2.555     2.500
    63   1 H        0.926     0.038     2.475     2.460
    64   1 H        0.926     0.033     2.540     2.493
    65   1 H        0.926     0.035     2.521     2.483
    66   1 H        0.926     0.034     2.535     2.490
    67   1 H        0.926     0.034     2.524     2.484
    68   1 H        0.926     0.036     2.507     2.476
    69   1 H        0.926     0.035     2.517     2.481
    70   1 H        0.926     0.029     2.595     2.519
    71   1 H        0.926     0.030     2.580     2.512
    72   1 H        0.926     0.031     2.566     2.505
    73   1 H        0.926     0.030     2.586     2.514
    74   1 H        0.926     0.033     2.540     2.492
    75   1 H        0.926     0.035     2.518     2.481
    76   1 H        0.926     0.032     2.563     2.503
    77   1 H        0.926     0.035     2.510     2.478
    78   1 H        0.926     0.031     2.568     2.506
    79   1 H        0.926     0.033     2.546     2.495
    80   1 H        0.926     0.032     2.562     2.503
    81   1 H        0.926     0.033     2.550     2.497
    82   1 H        0.926     0.031     2.572     2.508
    83   1 H        0.926     0.033     2.538     2.492
    84   1 H        0.926     0.034     2.528     2.487
    85   1 H        0.926     0.032     2.554     2.499
    86   1 H        0.926     0.030     2.593     2.518
    87   1 H        0.926     0.033     2.549     2.497
    88   1 H        0.926     0.033     2.538     2.491
    89   1 H        0.926     0.034     2.532     2.488
    90   1 H        0.926     0.042     2.423     2.434
    91   1 H        0.926     0.063     2.168     2.303
    92   1 H        0.926     0.046     2.369     2.407
    93   1 H        0.926     0.035     2.515     2.480
    94   1 H        0.926     0.037     2.489     2.467
    95   1 H        0.926     0.060     2.199     2.319

molecular dipole:
                 x           y           z       tot (Debye)
 q only:        2.714      -0.308      -0.318
   full:        2.695      -0.143      -0.084       6.864

 projected vibrational frequencies (cm⁻¹)
eigval :       -0.00    -0.00     0.00     0.00     0.00     0.00
eigval :       10.97    14.68    19.58    22.59    25.20    31.33
eigval :       39.61    46.36    49.89    55.11    57.89    60.54
eigval :       66.84    68.53    74.58    76.44    77.98    94.84
eigval :      105.69   115.31   118.98   122.00   134.28   150.48
eigval :      159.75   169.21   179.89   188.67   206.69   215.69
eigval :      233.44   236.00   241.02   256.42   276.78   287.21
eigval :      296.72   302.57   311.27   321.07   329.97   334.74
eigval :      345.93   350.38   373.54   377.13   378.01   381.38
eigval :      381.86   384.40   389.75   395.42   403.24   405.16
eigval :      417.34   421.35   434.54   452.54   455.76   474.80
eigval :      484.20   491.31   492.76   499.48   502.98   515.43
eigval :      526.86   544.73   546.47   554.32   582.60   584.05
eigval :      586.60   587.86   591.70   592.87   598.76   604.44
eigval :      611.54   616.06   620.80   624.03   633.85   647.96
eigval :      660.02   661.63   667.43   667.97   679.49   683.14
eigval :      686.15   700.18   708.74   712.00   715.54   739.79
eigval :      749.01   757.80   757.88   761.33   762.48   778.57
eigval :      782.70   791.36   814.59   818.34   843.72   847.16
eigval :      856.92   867.81   872.53   873.61   874.09   874.13
eigval :      875.55   877.12   879.38   892.49   893.09   894.56
eigval :      899.83   904.42   905.54   909.61   909.91   914.62
eigval :      914.82   916.30   920.02   920.29   924.18   925.10
eigval :      927.44   927.75   928.65   928.81   929.36   930.29
eigval :      931.31   933.06   941.23   948.60   979.15   986.59
eigval :     1000.61  1004.85  1006.24  1018.81  1036.25  1056.42
eigval :     1071.88  1081.75  1083.88  1084.98  1087.48  1110.29
eigval :     1117.17  1121.74  1123.73  1124.60  1127.80  1140.33
eigval :     1142.59  1146.07  1150.85  1176.89  1179.33  1180.68
eigval :     1180.99  1181.54  1183.57  1185.57  1187.10  1192.84
eigval :     1194.49  1196.35  1197.82  1201.33  1215.32  1216.75
eigval :     1227.56  1254.89  1264.96  1271.38  1272.10  1277.82
eigval :     1278.38  1281.05  1281.58  1283.32  1290.96  1300.99
eigval :     1311.70  1312.92  1316.59  1317.02  1323.97  1324.41
eigval :     1326.13  1326.82  1331.17  1331.84  1333.83  1338.32
eigval :     1353.86  1360.68  1376.01  1397.00  1408.83  1411.88
eigval :     1414.68  1436.04  1436.45  1439.47  1442.93  1443.05
eigval :     1470.68  1471.42  1475.35  1476.11  1480.15  1487.41
eigval :     1492.54  1501.80  1538.89  1546.96  1552.75  1554.83
eigval :     1560.96  1566.69  1577.57  1578.15  1581.57  1582.15
eigval :     1592.35  1593.76  1594.28  1595.11  1596.12  1601.20
eigval :     1602.13  1616.46  1698.93  3073.76  3076.82  3077.18
eigval :     3077.34  3077.81  3078.08  3078.17  3078.46  3079.29
eigval :     3079.34  3080.40  3080.81  3081.49  3083.79  3084.03
eigval :     3085.86  3086.78  3088.16  3088.32  3089.30  3089.75
eigval :     3091.04  3091.29  3092.10  3092.90  3094.59  3095.49
eigval :     3097.08  3097.93  3098.66  3099.71  3100.69  3101.37
eigval :     3108.77  3112.73  3116.31

   temp. (K)  partition function   enthalpy   heat capacity  entropy
                                   cal/mol     cal/K/mol   cal/K/mol   J/K/mol
 298.15  VIB  0.790E+21            27257.149    173.379    169.653
         ROT  0.143E+09              888.752      2.981     40.297
         INT  0.113E+30            28145.901    176.360    209.950
         TR   0.201E+29             1481.254      4.968     45.731
         TOT                       29627.1554   181.3277   255.6808  1069.7684

       T/K    H(0)-H(T)+PV         H(T)/Eh          T*S/Eh         G(T)/Eh
   ------------------------------------------------------------------------
    298.15    0.472139E-01    0.775288E+00    0.121482E+00    0.653806E+00
   ------------------------------------------------------------------------

         :::::::::::::::::::::::::::::::::::::::::::::::::::::
         ::                  THERMODYNAMIC                  ::
         :::::::::::::::::::::::::::::::::::::::::::::::::::::
         :: total free energy        -149.180997193268 Eh   ::
         ::.................................................::
         :: total energy             -149.834802839189 Eh   ::
         :: zero point energy           0.728073957345 Eh   ::
         :: G(RRHO) w/o ZPVE           -0.074268311424 Eh   ::
         :: G(RRHO) contrib.            0.653805645921 Eh   ::
         :::::::::::::::::::::::::::::::::::::::::::::::::::::

           -------------------------------------------------
          | TOTAL ENERGY             -149.834802839189 Eh   |
          | TOTAL ENTHALPY           -149.059515004442 Eh   |
          | TOTAL FREE ENERGY        -149.180997193268 Eh   |
          | GRADIENT NORM               0.000038054939 Eh/α |
          | HOMO-LUMO GAP               1.344183012848 eV   |
           -------------------------------------------------

 * finished run on 2025/07/20 at 00:35:31.979
