   * xtb version 6.7.1 (edcfbbe) compiled by 'albert@albert-system' on 2024-07-22

   ID    Z sym.   atoms
    1   35 Br     1
    2    6 C      2-7, 9-13, 15, 16, 18-22
    3    7 N      8, 14, 17, 23, 24
    4    1 H      25-34

          program call               : xtb data2507/gas/bpipH/bpipH_gas_S0_finalOpt.xtbopt.xyz --gfn 2 --spinpol --tblite --uhf 2 --ohess vtight --parallel 40 --molden --ceasefiles --namespace data2507/gas/bpipH/bpipH_gas_T1_preOpt
 * total energy  :   -62.2969412 Eh     change        0.2303930E-07 Eh
 * total energy  :   -62.3005788 Eh     change       -0.3637606E-02 Eh
 * total energy  :   -62.3019821 Eh     change       -0.1403323E-02 Eh
 * total energy  :   -62.3020594 Eh     change       -0.7730273E-04 Eh
 * total energy  :   -62.3021183 Eh     change       -0.5890297E-04 Eh
 * total energy  :   -62.3021391 Eh     change       -0.2076953E-04 Eh
 * total energy  :   -62.3021665 Eh     change       -0.2741941E-04 Eh
 * total energy  :   -62.3021726 Eh     change       -0.6092637E-05 Eh
 * total energy  :   -62.3021746 Eh     change       -0.1963364E-05 Eh
 * total energy  :   -62.3021752 Eh     change       -0.5981364E-06 Eh
 * total energy  :   -62.3021754 Eh     change       -0.2099206E-06 Eh
 * total energy  :   -62.3021755 Eh     change       -0.9529045E-07 Eh
   *** GEOMETRY OPTIMIZATION CONVERGED AFTER 12 ITERATIONS ***

 final structure:
================
34
 xtb: 6.7.1 (edcfbbe)
Br           5.09757068301603        1.04539509968558        0.00980660327949
C            3.93666007063912       -0.46974411689723        0.00902810634361
C            4.47795449073240       -1.74429563426124        0.01023226905649
C            3.57369205597312       -2.80691293058103        0.00950758369135
C            2.22101796708974       -2.54866380137974        0.00757930413691
C            1.78906509315944       -1.21263463855726        0.00653712193357
C            0.40617726127290       -0.85960186967714        0.00465900359872
N           -0.62597284833454       -1.69157283397147        0.00216954749994
C           -1.72650507906157       -0.91444883000894        0.00041227534041
C           -3.09417168105460       -1.32367438135741       -0.00204327952243
C           -3.52646604385322       -2.63299169812756       -0.00435701248139
C           -4.89618765926682       -2.92013673031863       -0.00654070611721
C           -5.77808801132776       -1.85106015134122       -0.00654509616478
N           -5.37076895895101       -0.61027407196676       -0.00417170183409
C           -4.06811026784727       -0.26176023208763       -0.00188081472033
C           -3.69586608688160        1.08892076708565        0.00006761204535
N           -4.64914906182217        2.04692371704964       -0.00004459129062
C           -4.36056952858553        3.31016742177830        0.00217120269969
C           -3.04332410157777        3.78861749866779        0.00526989277161
C           -2.01729543865160        2.85726812247417        0.00459986896393
C           -2.30523959096928        1.49864440059050        0.00200019268346
C           -1.36393682811104        0.44734478115933        0.00209820309239
N           -0.00599087914942        0.45205266972597        0.00508355052009
N            2.66104059759162       -0.18712446622802        0.00733580124267
H            5.54419646267990       -1.89840797287168        0.01159442576481
H            3.94228988226191       -3.82181331796719        0.01043129498110
H            1.48063655624536       -3.33070324215382        0.00696746909004
H           -2.79064823390071       -3.42253290260032       -0.00465590832442
H           -5.26473189957810       -3.93182553664052       -0.00830936782342
H           -6.84888396975611       -2.00232549838646       -0.00843052653278
H           -5.19847206982063        3.99447883629118        0.00126868665188
H           -2.84911822459578        4.84766439932816        0.00725182443106
H           -0.98834474142924        3.18905846980115        0.00579982689949
H            0.62785054287130        1.23388617754997        0.00651907119825

 projected vibrational frequencies (cm⁻¹)
eigval :       -0.00     0.00     0.00     0.00     0.00     0.00
eigval :      -40.04    25.27    37.26    51.90    81.14   111.70
eigval :      127.16   132.69   155.49   180.89   191.71   209.60
eigval :      224.53   241.85   265.34   293.79   316.43   362.25
eigval :      387.73   395.90   400.76   453.97   456.67   470.51
eigval :      476.88   522.86   530.31   589.58   602.46   610.05
eigval :      624.33   639.02   649.24   649.65   655.61   681.08
eigval :      695.58   713.63   727.04   727.38   765.50   772.72
eigval :      820.33   828.45   845.86   862.27   865.03   874.76
eigval :      899.34   918.86   950.00  1006.13  1019.01  1031.18
eigval :     1065.20  1081.11  1088.03  1094.60  1114.17  1119.49
eigval :     1137.16  1153.93  1156.04  1185.30  1210.73  1247.98
eigval :     1264.97  1281.35  1291.34  1307.51  1320.21  1330.34
eigval :     1345.27  1354.01  1374.89  1385.90  1399.26  1424.41
eigval :     1432.73  1470.32  1485.99  1504.38  1514.79  1534.73
eigval :     1545.43  1556.37  3054.11  3056.36  3065.05  3084.39
eigval :     3089.56  3113.65  3114.25  3114.65  3123.48  3474.92

   temp. (K)  partition function   enthalpy   heat capacity  entropy
                                   cal/mol     cal/K/mol   cal/K/mol   J/K/mol
 298.15  VIB  0.301E+07             9878.877     65.482     59.047
         ROT  0.166E+08              888.752      2.981     36.022
         INT  0.500E+14            10767.629     68.463     95.069
         TR   0.706E+28             1481.254      4.968     43.648
         TOT                       12248.8830    73.4308   138.7165   580.3900

       T/K    H(0)-H(T)+PV         H(T)/Eh          T*S/Eh         G(T)/Eh
   ------------------------------------------------------------------------
    298.15    0.195198E-01    0.250064E+00    0.659087E-01    0.184155E+00
   ------------------------------------------------------------------------

         :::::::::::::::::::::::::::::::::::::::::::::::::::::
         ::                  THERMODYNAMIC                  ::
         :::::::::::::::::::::::::::::::::::::::::::::::::::::
         :: total free energy         -62.118020467134 Eh   ::
         ::.................................................::
         :: total energy              -62.302175454906 Eh   ::
         :: zero point energy           0.230543856663 Eh   ::
         :: G(RRHO) w/o ZPVE           -0.046388868891 Eh   ::
         :: G(RRHO) contrib.            0.184154987772 Eh   ::
         :::::::::::::::::::::::::::::::::::::::::::::::::::::

           -------------------------------------------------
          | TOTAL ENERGY              -62.302175454906 Eh   |
          | TOTAL ENTHALPY            -62.052111760662 Eh   |
          | TOTAL FREE ENERGY         -62.118020467134 Eh   |
          | GRADIENT NORM               0.000116774325 Eh/α |
           -------------------------------------------------

 * finished run on 2025/09/08 at 07:46:45.740
