   * xtb version 6.7.1 (edcfbbe) compiled by 'albert@albert-system' on 2024-07-22

   ID    Z sym.   atoms
    1   35 Br     1
    2    6 C      2-7, 9-13, 15, 16, 18-22
    3    7 N      8, 14, 17, 23, 24
    4    1 H      25-34

          program call               : xtb data2507/gas/bpipH/bpipH_gas_T1_crest.xyz --gfn 2 --spinpol --tblite --uhf 2 --ohess vtight --parallel 40 --molden --ceasefiles --namespace data2507/gas/bpipH/bpipH_gas_T1_finalOpt
 * total energy  :   -62.3017348 Eh     change       -0.1507938E-07 Eh
 * total energy  :   -62.3017962 Eh     change       -0.6144100E-04 Eh
 * total energy  :   -62.3019803 Eh     change       -0.1840968E-03 Eh
 * total energy  :   -62.3020347 Eh     change       -0.5441652E-04 Eh
 * total energy  :   -62.3021050 Eh     change       -0.7028428E-04 Eh
 * total energy  :   -62.3021348 Eh     change       -0.2974686E-04 Eh
 * total energy  :   -62.3021511 Eh     change       -0.1629285E-04 Eh
 * total energy  :   -62.3021610 Eh     change       -0.9933964E-05 Eh
 * total energy  :   -62.3021672 Eh     change       -0.6226885E-05 Eh
 * total energy  :   -62.3021699 Eh     change       -0.2671146E-05 Eh
 * total energy  :   -62.3021732 Eh     change       -0.1297926E-05 Eh
 * total energy  :   -62.3021741 Eh     change       -0.9424596E-06 Eh
 * total energy  :   -62.3021741 Eh     change       -0.4190213E-09 Eh
 * total energy  :   -62.3021749 Eh     change       -0.8027750E-06 Eh
 * total energy  :   -62.3021756 Eh     change       -0.6261415E-06 Eh
 * total energy  :   -62.3021759 Eh     change       -0.3278253E-06 Eh
 * total energy  :   -62.3021761 Eh     change       -0.2150108E-06 Eh
 * total energy  :   -62.3021762 Eh     change       -0.1255963E-06 Eh
 * total energy  :   -62.3021763 Eh     change       -0.7077619E-07 Eh
   *** GEOMETRY OPTIMIZATION CONVERGED AFTER 20 ITERATIONS ***

 final structure:
================
34
 xtb: 6.7.1 (edcfbbe)
Br           5.08686271270032        1.05796070264224       -0.01051125513048
C            3.93020766383853       -0.46049280329666       -0.01058112501516
C            4.47516378867677       -1.73354779053183       -0.01589138196675
C            3.57375943165293       -2.79879208654416       -0.01460551763802
C            2.22043136970788       -2.54451207312159       -0.00840925290900
C            1.78451646977355       -1.20955192243321       -0.00384345445437
C            0.40148659109313       -0.85902600446900       -0.00020632102064
N           -0.63071581166982       -1.69156153637922        0.00219255074251
C           -1.73119234678885       -0.91511871192411        0.01287927658559
C           -3.09897887651426       -1.32421624898152        0.00453132408081
C           -3.53092225791606       -2.63385536548304        0.00282206192340
C           -4.90053512919042       -2.92120172873398       -0.00846131008821
C           -5.78272415843857       -1.85246241375604       -0.01510906601440
N           -5.37580821726897       -0.61133011031175       -0.01382068543854
C           -4.07337366658118       -0.26317048350258       -0.00555715368636
C           -3.70141386578716        1.08829033367997        0.00139288798872
N           -4.65456483805946        2.04567005916043       -0.00302021479156
C           -4.36622500776590        3.30885423069291       -0.00644198373985
C           -3.04861007559514        3.78760335446167       -0.01663429584334
C           -2.02290279536198        2.85693293582277        0.00532388729069
C           -2.31063664782953        1.49781784509574        0.01546470319025
C           -1.36919393146515        0.44745454475890        0.01735643282774
N           -0.01140672688455        0.45273767171696        0.00147248238673
N            2.65398594565269       -0.18140745616969       -0.00451174943987
H            5.54182062514201       -1.88462515289573       -0.01990984373776
H            3.94530480181955       -3.81260789598780       -0.01835919598199
H            1.48245686299164       -3.32881949410125       -0.00829156380477
H           -2.79495111239333       -3.42319464850212        0.01162522806351
H           -5.26871011522429       -3.93303788157728       -0.01185854102878
H           -6.85347487192634       -2.00393251435960       -0.02303173273254
H           -5.20400988184841        3.99320925078970        0.00417468017775
H           -2.85468890542723        4.84668999791882       -0.02394846800356
H           -0.99405937323272        3.18868306967482        0.02132880586334
H            0.62249356612033        1.23449297794733        0.00374932784488

 projected vibrational frequencies (cm⁻¹)
eigval :       -0.00    -0.00     0.00     0.00     0.00     0.00
eigval :       24.89    37.04    37.68    77.21    84.51   111.82
eigval :      127.23   142.79   157.25   180.95   200.18   217.00
eigval :      227.83   242.51   265.63   293.53   322.74   362.55
eigval :      388.32   395.96   401.07   453.90   457.69   470.35
eigval :      477.98   522.41   530.92   588.23   602.39   609.64
eigval :      625.38   638.57   648.33   652.48   655.74   680.71
eigval :      696.48   713.83   727.61   728.40   766.06   772.18
eigval :      818.07   825.91   850.79   861.67   865.63   875.34
eigval :      899.67   918.58   949.34  1005.98  1019.39  1030.62
eigval :     1065.26  1080.95  1087.93  1094.58  1113.63  1119.23
eigval :     1137.33  1155.23  1156.19  1185.75  1210.54  1247.92
eigval :     1265.07  1281.91  1290.55  1307.47  1319.87  1329.92
eigval :     1345.32  1353.43  1373.92  1386.11  1399.29  1423.99
eigval :     1432.46  1469.76  1484.91  1504.08  1514.54  1534.95
eigval :     1545.76  1555.89  3054.11  3056.78  3065.29  3084.68
eigval :     3089.87  3114.10  3114.29  3114.63  3123.62  3475.23

   temp. (K)  partition function   enthalpy   heat capacity  entropy
                                   cal/mol     cal/K/mol   cal/K/mol   J/K/mol
 298.15  VIB  0.112E+08            10343.544     66.962     62.478
         ROT  0.166E+08              888.752      2.981     36.021
         INT  0.186E+15            11232.297     69.943     98.499
         TR   0.706E+28             1481.254      4.968     43.648
         TOT                       12713.5506    74.9111   142.1468   594.7421

       T/K    H(0)-H(T)+PV         H(T)/Eh          T*S/Eh         G(T)/Eh
   ------------------------------------------------------------------------
    298.15    0.202603E-01    0.251051E+00    0.675385E-01    0.183512E+00
   ------------------------------------------------------------------------

         :::::::::::::::::::::::::::::::::::::::::::::::::::::
         ::                  THERMODYNAMIC                  ::
         :::::::::::::::::::::::::::::::::::::::::::::::::::::
         :: total free energy         -62.118664004804 Eh   ::
         ::.................................................::
         :: total energy              -62.302176304296 Eh   ::
         :: zero point energy           0.230790481680 Eh   ::
         :: G(RRHO) w/o ZPVE           -0.047278182188 Eh   ::
         :: G(RRHO) contrib.            0.183512299492 Eh   ::
         :::::::::::::::::::::::::::::::::::::::::::::::::::::

           -------------------------------------------------
          | TOTAL ENERGY              -62.302176304296 Eh   |
          | TOTAL ENTHALPY            -62.051125490081 Eh   |
          | TOTAL FREE ENERGY         -62.118664004804 Eh   |
          | GRADIENT NORM               0.000052178439 Eh/α |
           -------------------------------------------------

 * finished run on 2025/09/08 at 07:48:32.141
