   * xtb version 6.7.1 (edcfbbe) compiled by 'albert@albert-system' on 2024-07-22

   ID    Z sym.   atoms
    1   35 Br     1
    2    6 C      2-7, 9-13, 15, 16, 18-22
    3    7 N      8, 14, 17, 23, 24
    4    1 H      25-34

          program call               : xtb data2507/gas/bpipH/bpipH_gas_S0_crest.xyz --gfn 2 --ohess vtight --parallel 40 --molden --ceasefiles --namespace data2507/gas/bpipH/bpipH_gas_S0_finalOpt
          :  Hamiltonian                  GFN2-xTB          :
 * total energy  :   -62.3853737 Eh     change       -0.1274600E-08 Eh
 * total energy  :   -62.3853744 Eh     change       -0.6979370E-06 Eh
 * total energy  :   -62.3853752 Eh     change       -0.8184927E-06 Eh
 * total energy  :   -62.3853757 Eh     change       -0.4920866E-06 Eh
 * total energy  :   -62.3853761 Eh     change       -0.3864172E-06 Eh
 * total energy  :   -62.3853765 Eh     change       -0.3890868E-06 Eh
 * total energy  :   -62.3853768 Eh     change       -0.3188303E-06 Eh
 * total energy  :   -62.3853770 Eh     change       -0.1531468E-06 Eh
 * total energy  :   -62.3853770 Eh     change       -0.6668334E-07 Eh
   *** GEOMETRY OPTIMIZATION CONVERGED AFTER 9 ITERATIONS ***

 final structure:
================
34
 xtb: 6.7.1 (edcfbbe)
Br           5.09893491173530        1.03998960476245        0.00318972715838
C            3.93962825452755       -0.47001018939984        0.00640153642888
C            4.47251876559691       -1.74946227637097        0.01033825551942
C            3.57043928162296       -2.80483542951034        0.01207404161926
C            2.21308962325687       -2.54090538445376        0.00977342101467
C            1.79425818693967       -1.20855290940064        0.00602016029412
C            0.39708288060825       -0.85081982478649        0.00386996612731
N           -0.61740464243454       -1.68860551908996        0.00191979960556
C           -1.72954104532745       -0.91302859761944        0.00057470679907
C           -3.09823202458541       -1.30849757751102       -0.00211039645218
C           -3.52160023478242       -2.64234036659896       -0.00437810444524
C           -4.87069405324214       -2.90881385674702       -0.00724252578643
C           -5.75913719695416       -1.82854647696417       -0.00777814563840
N           -5.38408144922118       -0.57400426974191       -0.00554442805429
C           -4.07997938375298       -0.28809217315541       -0.00270347897523
C           -3.69690778275736        1.11220612761405       -0.00003932550682
N           -4.66942474437569        2.02389207572786        0.00044315718611
C           -4.35543037810903        3.29505982932130        0.00332816324042
C           -3.04094667438479        3.77184967824341        0.00587406881273
C           -2.01578449161002        2.85543697109296        0.00518665124617
C           -2.32707616869140        1.48899936923314        0.00223317652948
C           -1.37140936177103        0.44161759698047        0.00199571110996
N           -0.01125736291045        0.45351414259188        0.00388730270010
N            2.66003094869310       -0.19127750658811        0.00447191627030
H            5.53887207075729       -1.90614324299802        0.01196329758851
H            3.93292243657909       -3.82186221573603        0.01535531774029
H            1.47057454397229       -3.32073070228259        0.01093371502517
H           -2.77811699613932       -3.42513957586619       -0.00391348973647
H           -5.24217098807540       -3.92198959117546       -0.00907721996093
H           -6.82892145633054       -1.99452216770171       -0.01000043295312
H           -5.19095813825036        3.98293959258704        0.00373600417920
H           -2.84206424559809        4.83226480328374        0.00840083065975
H           -0.98334871595295        3.17721701234387        0.00711451737479
H            0.61650149346748        1.24090771111584        0.00496013997946

          :  Hamiltonian                  GFN2-xTB          :
         :: gradient norm              0.000047656091 Eh/a0 ::
         :: HOMO-LUMO gap              1.787033537921 eV    ::
         :: SCC energy               -63.371172737931 Eh    ::
         :: -> dispersion             -0.044379551579 Eh    ::
         :: repulsion energy           0.985795695267 Eh    ::

    * Orbital Energies and Occupations

         #    Occupation            Energy/Eh            Energy/eV
      -------------------------------------------------------------
         1        2.0000           -0.8463015             -23.0290
       ...           ...                  ...                  ...
        45        2.0000           -0.4570918             -12.4381
        46        2.0000           -0.4509511             -12.2710
        47        2.0000           -0.4452269             -12.1152
        48        2.0000           -0.4386472             -11.9362
        49        2.0000           -0.4345163             -11.8238
        50        2.0000           -0.4232416             -11.5170
        51        2.0000           -0.4172299             -11.3534
        52        2.0000           -0.4088580             -11.1256
        53        2.0000           -0.4051694             -11.0252
        54        2.0000           -0.4004892             -10.8979
        55        2.0000           -0.3892289             -10.5915
        56        2.0000           -0.3674099              -9.9977
        57        2.0000           -0.3627649              -9.8713 (HOMO)
        58                         -0.2970926              -8.0843 (LUMO)
        59                         -0.2750742              -7.4852
        60                         -0.2742396              -7.4624
        61                         -0.2693488              -7.3294
        62                         -0.2337872              -6.3617
        63                         -0.2134366              -5.8079
        64                         -0.2102630              -5.7215
        65                         -0.1964803              -5.3465
        66                         -0.1640828              -4.4649
        67                         -0.1256848              -3.4201
        68                         -0.1174257              -3.1953
       ...                                ...                  ...
       111                          0.6947825              18.9060
      -------------------------------------------------------------
                  HL-Gap            0.0656723 Eh            1.7870 eV

     #   Z          covCN         q      C6AA      α(0)
     1  35 Br       1.111    -0.148   189.135    22.174
     2   6 C        2.910     0.171    24.333     8.089
     3   6 C        2.982    -0.046    29.132     8.854
     4   6 C        2.932    -0.008    28.220     8.712
     5   6 C        2.917    -0.040    29.001     8.831
     6   6 C        2.970     0.090    25.992     8.363
     7   6 C        3.214     0.129    24.564     8.064
     8   7 N        1.894    -0.277    28.048     7.852
     9   6 C        3.215     0.060    25.999     8.295
    10   6 C        2.978    -0.007    28.185     8.708
    11   6 C        2.925    -0.013    28.348     8.731
    12   6 C        2.913    -0.038    28.956     8.824
    13   6 C        2.905     0.060    26.653     8.465
    14   7 N        1.841    -0.200    26.168     7.581
    15   6 C        2.973     0.077    26.275     8.408
    16   6 C        2.974     0.082    26.171     8.391
    17   7 N        1.841    -0.195    26.064     7.566
    18   6 C        2.905     0.060    26.647     8.464
    19   6 C        2.912    -0.039    28.971     8.826
    20   6 C        2.924    -0.019    28.488     8.753
    21   6 C        2.975    -0.014    28.361     8.735
    22   6 C        3.087     0.033    27.156     8.542
    23   7 N        2.793    -0.097    23.143     7.145
    24   7 N        1.969    -0.247    27.267     7.744
    25   1 H        0.926     0.060     2.198     2.318
    26   1 H        0.926     0.054     2.269     2.355
    27   1 H        0.926     0.071     2.080     2.255
    28   1 H        0.926     0.053     2.284     2.363
    29   1 H        0.926     0.039     2.456     2.450
    30   1 H        0.925     0.045     2.390     2.417
    31   1 H        0.925     0.047     2.364     2.404
    32   1 H        0.926     0.040     2.452     2.449
    33   1 H        0.925     0.031     2.566     2.505
    34   1 H        0.860     0.189     1.167     1.692

molecular dipole:
                 x           y           z       tot (Debye)
 q only:        0.198      -0.521       0.004
   full:        0.762      -0.874       0.007       2.949

 projected vibrational frequencies (cm⁻¹)
eigval :       -0.00    -0.00    -0.00    -0.00    -0.00     0.00
eigval :       22.58    37.99    42.40    83.21    91.63   117.74
eigval :      128.39   154.71   177.27   191.87   223.42   246.69
eigval :      270.10   288.34   297.76   332.87   389.91   401.51
eigval :      401.73   417.94   445.62   460.89   479.75   506.89
eigval :      533.58   548.13   593.62   603.89   621.46   625.05
eigval :      661.11   673.97   676.01   690.60   702.05   707.40
eigval :      742.39   759.34   790.24   791.31   804.67   806.72
eigval :      886.40   908.70   913.94   917.86   925.16   930.39
eigval :      956.22   957.76  1009.18  1041.98  1051.86  1088.37
eigval :     1092.15  1097.10  1105.50  1127.20  1139.71  1154.44
eigval :     1157.43  1190.92  1213.82  1218.98  1258.98  1266.65
eigval :     1301.38  1303.33  1325.48  1328.18  1353.41  1379.23
eigval :     1384.30  1397.40  1404.52  1410.22  1427.12  1488.26
eigval :     1514.93  1532.99  1537.88  1554.71  1558.38  1571.20
eigval :     1574.97  1585.52  3052.94  3056.80  3061.62  3085.65
eigval :     3087.61  3095.09  3096.77  3112.58  3127.71  3468.49

   temp. (K)  partition function   enthalpy   heat capacity  entropy
                                   cal/mol     cal/K/mol   cal/K/mol   J/K/mol
 298.15  VIB  0.339E+07             9627.877     63.415     57.922
         ROT  0.166E+08              888.752      2.981     36.014
         INT  0.561E+14            10516.629     66.395     93.936
         TR   0.706E+28             1481.254      4.968     43.648
         TOT                       11997.8831    71.3636   137.5837   575.6500

       T/K    H(0)-H(T)+PV         H(T)/Eh          T*S/Eh         G(T)/Eh
   ------------------------------------------------------------------------
    298.15    0.191198E-01    0.256806E+00    0.653704E-01    0.191436E+00
   ------------------------------------------------------------------------

         :::::::::::::::::::::::::::::::::::::::::::::::::::::
         ::                  THERMODYNAMIC                  ::
         :::::::::::::::::::::::::::::::::::::::::::::::::::::
         :: total free energy         -62.193941509462 Eh   ::
         ::.................................................::
         :: total energy              -62.385377042667 Eh   ::
         :: zero point energy           0.237686123953 Eh   ::
         :: G(RRHO) w/o ZPVE           -0.046250590748 Eh   ::
         :: G(RRHO) contrib.            0.191435533205 Eh   ::
         :::::::::::::::::::::::::::::::::::::::::::::::::::::

           -------------------------------------------------
          | TOTAL ENERGY              -62.385377042667 Eh   |
          | TOTAL ENTHALPY            -62.128571074939 Eh   |
          | TOTAL FREE ENERGY         -62.193941509462 Eh   |
          | GRADIENT NORM               0.000047633202 Eh/α |
          | HOMO-LUMO GAP               1.787033001818 eV   |
           -------------------------------------------------

 * finished run on 2025/09/08 at 07:46:43.854
