   * xtb version 6.7.1 (edcfbbe) compiled by 'albert@albert-system' on 2024-07-22

   ID    Z sym.   atoms
    1   35 Br     1
    2    6 C      2-7, 9-13, 15, 16, 18-22
    3    7 N      8, 14, 17, 23, 24
    4    1 H      25-34

          program call               : xtb data2507/gas/bpipH/bpipH.xyz --gfn 2 --ohess vtight --parallel 40 --molden --ceasefiles --namespace data2507/gas/bpipH/bpipH_gas_S0_preOpt
          :  Hamiltonian                  GFN2-xTB          :
 * total energy  :   -62.3587732 Eh     change       -0.7900169E-09 Eh
 * total energy  :   -62.3701568 Eh     change       -0.1138365E-01 Eh
 * total energy  :   -62.3731135 Eh     change       -0.2956649E-02 Eh
 * total energy  :   -62.3734719 Eh     change       -0.3583961E-03 Eh
 * total energy  :   -62.3736233 Eh     change       -0.1514196E-03 Eh
 * total energy  :   -62.3736408 Eh     change       -0.1747322E-04 Eh
 * total energy  :   -62.3736464 Eh     change       -0.5674107E-05 Eh
 * total energy  :   -62.3736483 Eh     change       -0.1866797E-05 Eh
 * total energy  :   -62.3736495 Eh     change       -0.1250027E-05 Eh
 * total energy  :   -62.3736502 Eh     change       -0.6679299E-06 Eh
 * total energy  :   -62.3736507 Eh     change       -0.4973269E-06 Eh
 * total energy  :   -62.3736511 Eh     change       -0.4017463E-06 Eh
 * total energy  :   -62.3736514 Eh     change       -0.2568701E-06 Eh
 * total energy  :   -62.3736516 Eh     change       -0.1799182E-06 Eh
 * total energy  :   -62.3736517 Eh     change       -0.1255786E-06 Eh
 * total energy  :   -62.3736518 Eh     change       -0.9463704E-07 Eh
   *** GEOMETRY OPTIMIZATION CONVERGED AFTER 16 ITERATIONS ***

 final structure:
================
34
 xtb: 6.7.1 (edcfbbe)
Br           5.71583966102952        3.04517348506464       -0.00000843378729
C            4.97244408539610        1.29798191138655        0.00000096414392
C            5.81567615081609        0.19443065302828       -0.00000012060449
C            5.20395459236102       -1.04833815252565        0.00000160525431
C            3.82171200864016       -1.13199484229685       -0.00000108828184
C            3.07288395391579        0.05067179138741       -0.00000015710223
C            1.62557902401161        0.06681318878333       -0.00000742611342
N            0.89100426723502        1.15411119423109       -0.00000149747646
C           -0.39717419592986        0.74034427681719        0.00000224622730
C           -1.59004651001736        1.51948695431575        0.00000493762912
C           -1.60142778346906        2.91887457063377        0.00000646984173
C           -2.81367521057664        3.56827098748597        0.00000140429818
C           -3.98007234275636        2.79581914488322       -0.00000498566257
N           -3.99053087175103        1.48633804508614       -0.00000390484366
C           -2.82686235024178        0.83115706103384        0.00000120519253
C           -2.87005949764359       -0.61988065351917        0.00000126174229
N           -4.06619156932727       -1.20761306537783        0.00000064846842
C           -4.13907908181080       -2.51480506691791        0.00000037185661
C           -3.02213131134534       -3.35584032806348        0.00000198716109
C           -1.77392271351683       -2.77921663998066        0.00000282712312
C           -1.66967654654380       -1.38164051176861        0.00000165449285
C           -0.45135605191239       -0.65753934718518       -0.00000148012589
N            0.84919472565177       -1.06832778773839       -0.00000657783593
N            3.66896243353627        1.24171058973914        0.00000144993330
H            6.88715943795190        0.30884867582541        0.00000132199573
H            5.80406981425241       -1.94631472368635        0.00000631912492
H            3.34427611487275       -2.09934084668137        0.00000406688644
H           -0.65976060029765        3.44645351548985        0.00000917946674
H           -2.87245597395122        4.64569542641279        0.00000189284712
H           -4.95417640693851        3.26826768081041       -0.00000733163251
H           -5.13933535874380       -2.92788612560965        0.00000107847091
H           -3.14214957917191       -4.42811884222176        0.00000272503281
H           -0.88206518347486       -3.39192489421261        0.00000414489763
H            1.16939486974963       -2.02167032462927       -0.00001375862080

          :  Hamiltonian                  GFN2-xTB          :
         :: gradient norm              0.000032736657 Eh/a0 ::
         :: HOMO-LUMO gap              1.767519946101 eV    ::
         :: SCC energy               -63.359550076022 Eh    ::
         :: -> dispersion             -0.044355877061 Eh    ::
         :: repulsion energy           0.985898304474 Eh    ::

    * Orbital Energies and Occupations

         #    Occupation            Energy/Eh            Energy/eV
      -------------------------------------------------------------
         1        2.0000           -0.8399298             -22.8557
       ...           ...                  ...                  ...
        45        2.0000           -0.4575463             -12.4505
        46        2.0000           -0.4526396             -12.3169
        47        2.0000           -0.4459349             -12.1345
        48        2.0000           -0.4380901             -11.9210
        49        2.0000           -0.4337405             -11.8027
        50        2.0000           -0.4164872             -11.3332
        51        2.0000           -0.4130046             -11.2384
        52        2.0000           -0.4057036             -11.0398
        53        2.0000           -0.3983405             -10.8394
        54        2.0000           -0.3943248             -10.7301
        55        2.0000           -0.3903769             -10.6227
        56        2.0000           -0.3692009             -10.0465
        57        2.0000           -0.3622058              -9.8561 (HOMO)
        58                         -0.2972510              -8.0886 (LUMO)
        59                         -0.2764539              -7.5227
        60                         -0.2744575              -7.4684
        61                         -0.2689253              -7.3178
        62                         -0.2344075              -6.3786
        63                         -0.2108420              -5.7373
        64                         -0.2075863              -5.6487
        65                         -0.1980060              -5.3880
        66                         -0.1638212              -4.4578
        67                         -0.1262876              -3.4365
        68                         -0.1184231              -3.2225
       ...                                ...                  ...
       111                          0.6934983              18.8710
      -------------------------------------------------------------
                  HL-Gap            0.0649549 Eh            1.7675 eV

     #   Z          covCN         q      C6AA      α(0)
     1  35 Br       1.119    -0.133   188.730    22.151
     2   6 C        2.910     0.172    24.314     8.085
     3   6 C        2.986    -0.046    29.139     8.855
     4   6 C        2.932    -0.011    28.290     8.723
     5   6 C        2.916    -0.050    29.248     8.868
     6   6 C        2.964     0.089    26.014     8.366
     7   6 C        3.194     0.130    24.696     8.103
     8   7 N        1.898    -0.245    27.230     7.736
     9   6 C        3.208     0.060    26.072     8.314
    10   6 C        2.979    -0.005    28.147     8.703
    11   6 C        2.924    -0.012    28.323     8.727
    12   6 C        2.913    -0.037    28.927     8.819
    13   6 C        2.906     0.061    26.642     8.464
    14   7 N        1.841    -0.201    26.184     7.583
    15   6 C        2.973     0.077    26.282     8.409
    16   6 C        2.973     0.082    26.160     8.390
    17   7 N        1.841    -0.194    26.035     7.562
    18   6 C        2.905     0.060    26.653     8.465
    19   6 C        2.912    -0.040    28.991     8.829
    20   6 C        2.924    -0.020    28.504     8.755
    21   6 C        2.974    -0.015    28.389     8.740
    22   6 C        3.079     0.033    27.187     8.548
    23   7 N        2.793    -0.116    23.515     7.202
    24   7 N        1.974    -0.206    26.284     7.603
    25   1 H        0.926     0.062     2.171     2.304
    26   1 H        0.926     0.050     2.322     2.383
    27   1 H        0.926     0.034     2.523     2.484
    28   1 H        0.926     0.061     2.186     2.312
    29   1 H        0.926     0.042     2.425     2.435
    30   1 H        0.925     0.045     2.384     2.414
    31   1 H        0.925     0.047     2.362     2.403
    32   1 H        0.926     0.038     2.474     2.460
    33   1 H        0.925     0.024     2.675     2.557
    34   1 H        0.860     0.166     1.294     1.782

molecular dipole:
                 x           y           z       tot (Debye)
 q only:        0.327      -1.558       0.000
   full:        0.776      -3.001       0.000       7.878

 projected vibrational frequencies (cm⁻¹)
eigval :       -0.00    -0.00    -0.00     0.00     0.00     0.00
eigval :        8.65    42.07    43.13    84.54    91.33   115.67
eigval :      128.56   143.79   169.05   190.32   220.31   254.47
eigval :      271.90   286.85   300.77   331.56   389.37   400.66
eigval :      401.97   418.17   444.32   456.91   481.11   504.23
eigval :      533.04   545.16   556.03   593.47   603.37   624.70
eigval :      658.25   672.22   677.10   688.39   699.35   706.90
eigval :      740.12   758.81   777.57   789.04   804.72   808.25
eigval :      869.35   906.83   915.06   916.57   926.26   927.61
eigval :      954.49   954.89  1002.57  1041.43  1059.44  1085.76
eigval :     1089.86  1104.64  1121.82  1128.54  1141.19  1155.78
eigval :     1173.72  1192.31  1216.63  1224.00  1259.37  1265.17
eigval :     1298.97  1301.91  1325.68  1328.16  1339.84  1379.30
eigval :     1382.76  1387.17  1410.84  1417.35  1427.46  1488.18
eigval :     1506.71  1530.57  1537.98  1555.95  1558.85  1568.58
eigval :     1574.21  1585.44  3051.35  3052.70  3057.53  3080.72
eigval :     3088.86  3093.69  3094.06  3100.08  3114.57  3478.03

   temp. (K)  partition function   enthalpy   heat capacity  entropy
                                   cal/mol     cal/K/mol   cal/K/mol   J/K/mol
 298.15  VIB  0.854E+07             9694.338     63.706     59.181
         ROT  0.166E+08              888.752      2.981     36.025
         INT  0.142E+15            10583.091     66.687     95.206
         TR   0.706E+28             1481.254      4.968     43.648
         TOT                       12064.3446    71.6555   138.8533   580.9620

       T/K    H(0)-H(T)+PV         H(T)/Eh          T*S/Eh         G(T)/Eh
   ------------------------------------------------------------------------
    298.15    0.192258E-01    0.256536E+00    0.659737E-01    0.190562E+00
   ------------------------------------------------------------------------

         :::::::::::::::::::::::::::::::::::::::::::::::::::::
         ::                  THERMODYNAMIC                  ::
         :::::::::::::::::::::::::::::::::::::::::::::::::::::
         :: total free energy         -62.183089911605 Eh   ::
         ::.................................................::
         :: total energy              -62.373651771586 Eh   ::
         :: zero point energy           0.237309765924 Eh   ::
         :: G(RRHO) w/o ZPVE           -0.046747905944 Eh   ::
         :: G(RRHO) contrib.            0.190561859980 Eh   ::
         :::::::::::::::::::::::::::::::::::::::::::::::::::::

           -------------------------------------------------
          | TOTAL ENERGY              -62.373651771586 Eh   |
          | TOTAL ENTHALPY            -62.117116248704 Eh   |
          | TOTAL FREE ENERGY         -62.183089911605 Eh   |
          | GRADIENT NORM               0.000032814838 Eh/α |
          | HOMO-LUMO GAP               1.767511972076 eV   |
           -------------------------------------------------

 * finished run on 2025/09/08 at 07:45:33.999
