   * xtb version 6.7.1 (edcfbbe) compiled by 'albert@albert-system' on 2024-07-22

   ID    Z sym.   atoms
    1    6 C      1, 3-6, 8-11, 13-26, 28-35, 37-40, 42-48, 50-57, 59-62
    2    8 O      2, 12, 27, 41, 49, 58
    3    7 N      7, 36
    4    1 H      63-104

          program call               : xtb data2507/toluene/MPPA/MPPA_toluene_T1_crest.xyz --gfn 2 --uhf 2 --gbsa toluene --ohess vtight --parallel 40 --molden --ceasefiles --namespace data2507/toluene/MPPA/MPPA_toluene_T1_finalOpt
      * Solvation model:               GBSA
        Solvent                        toluene
        Solvent mass                       9.2140E+01 g/mol
          :  Hamiltonian                  GFN2-xTB          :
 * total energy  :  -167.3503966 Eh     change       -0.9728780E-08 Eh
 * total energy  :  -167.3507160 Eh     change       -0.3194171E-03 Eh
 * total energy  :  -167.3508102 Eh     change       -0.9422970E-04 Eh
 * total energy  :  -167.3508219 Eh     change       -0.1164467E-04 Eh
 * total energy  :  -167.3508308 Eh     change       -0.8932642E-05 Eh
 * total energy  :  -167.3508392 Eh     change       -0.8379546E-05 Eh
 * total energy  :  -167.3508446 Eh     change       -0.5472512E-05 Eh
 * total energy  :  -167.3508489 Eh     change       -0.4212666E-05 Eh
 * total energy  :  -167.3508522 Eh     change       -0.3317885E-05 Eh
 * total energy  :  -167.3508545 Eh     change       -0.2376570E-05 Eh
 * total energy  :  -167.3508779 Eh     change       -0.1509411E-06 Eh
 * total energy  :  -167.3508780 Eh     change       -0.1227652E-06 Eh
 * total energy  :  -167.3508781 Eh     change       -0.1374597E-06 Eh
 * total energy  :  -167.3508783 Eh     change       -0.1580641E-06 Eh
 * total energy  :  -167.3508785 Eh     change       -0.1870170E-06 Eh
 * total energy  :  -167.3508786 Eh     change       -0.1507073E-06 Eh
 * total energy  :  -167.3508787 Eh     change       -0.1065995E-06 Eh
 * total energy  :  -167.3508789 Eh     change       -0.1018310E-06 Eh
 * total energy  :  -167.3508789 Eh     change       -0.8389816E-07 Eh
   *** GEOMETRY OPTIMIZATION CONVERGED AFTER 40 ITERATIONS ***

 final structure:
================
104
 xtb: 6.7.1 (edcfbbe)
C           12.53575438455318       -5.46972365232799       -0.51817427868930
O           12.79892382177371       -4.24808209849233        0.14062386302050
C           11.89200330622580       -3.24392624812129        0.04859429726200
C           10.69804362486297       -3.30303463350178       -0.66859692435000
C            9.84788763617500       -2.21520860606574       -0.69332411680510
C           10.16006828387690       -1.04359515605043       -0.00314505940060
N            9.29370386320721        0.05146503786791       -0.02981369459132
C            9.81065568306322        1.34891586937682       -0.05196042136476
C            9.17365489220796        2.38058994694442        0.63838911585688
C            9.67621570035197        3.66651302729441        0.61733084567578
C           10.83871365566467        3.95348663417366       -0.09656436176888
O           11.41915343917776        5.17584006377853       -0.18602153594827
C           10.81141280550121        6.27134485774866        0.46685819118894
C           11.48179957743274        2.91882639100517       -0.78645366857846
C           10.97828791238124        1.64021617585446       -0.76650004408455
C            7.91324165608484       -0.14859029888633       -0.03416651611380
C            7.34272406798549       -1.20248809325655        0.68619282734566
C            5.97912093254078       -1.39494295062807        0.67884083214075
C            5.13144704630735       -0.54426144438147       -0.03686066598077
C            3.68160537321747       -0.74053919565985       -0.02757761335496
C            3.12382904618904       -2.03526585593213       -0.02779373991157
C            1.76576241628250       -2.20672800826200       -0.00824789044329
C            0.88555191527563       -1.11259974970269        0.01782056891719
C            1.43307582304051        0.19010543366547        0.02803703797031
C            2.82187645922916        0.34330063135424       -0.00310065119629
C            0.59485268762499        1.37741008652193        0.06948777909842
O            1.08217569276275        2.53328627772049        0.08170656993806
C           -0.83442581067699        1.14294548707516        0.08609230393403
C           -1.71421073908706        2.23740260981591        0.11052137734225
C           -3.07235714109420        2.06641574837255        0.12366900345548
C           -3.63061828907547        0.77188614878853        0.11822116920153
C           -5.08075215952013        0.57760272427087        0.11457009677763
C           -5.66813638446638       -0.47568900432649        0.82203656963283
C           -7.03139876557761       -0.66763810376756        0.81291395094457
C           -7.86322934052246        0.18778320758880        0.08318771937971
N           -9.24356205822057       -0.00935949596335        0.06240715720381
C          -10.10666255964040        1.08820428466670        0.01936399048307
C           -9.80349278896436        2.26168192297482        0.71933691274994
C          -10.65403946481832        3.34007091346747        0.67166862295203
C          -11.83784163836730        3.28739939290250       -0.07393348790974
O          -12.60237503845310        4.40741390338179       -0.05233815798634
C          -13.81534488795522        4.42154939170717       -0.77655804752001
C          -12.14450362387168        2.11880493221673       -0.76922430808443
C          -11.28734196717898        1.03706561071541       -0.72161051479952
C           -9.76564831249427       -1.30494915707547        0.08010519233391
C           -9.12618248638587       -2.33998507800045       -0.60271424435051
C           -9.63582542158495       -3.62331538137593       -0.58741455914735
C          -10.80789241790365       -3.90405917800129        0.11301226095250
O          -11.39652383359575       -5.12326489761377        0.19494807922185
C          -10.78789190773333       -6.22164561973165       -0.45219410971310
C          -11.45304964793968       -2.86616996341298        0.79598695594174
C          -10.94251215743311       -1.59021534888773        0.78172413101458
C           -7.28347107271785        1.24309686001536       -0.62777090055602
C           -5.91972476621525        1.43249273685731       -0.60640648565893
C           -2.77121332975370       -0.31235760526469        0.09850032404998
C           -1.38212729508970       -0.15965418434679        0.07406469657609
C           -0.54374245404947       -1.34705300154372        0.03589574241426
O           -1.03086839636948       -2.50308703407546        0.02568862355895
C            5.70965790853117        0.50808277549603       -0.75326630855873
C            7.07249222989175        0.70283907066382       -0.75824483051096
C           11.35955098842473       -0.98762092479910        0.71582962862670
C           12.20866610484376       -2.06801544648692        0.73913952145155
H           12.46263461958755       -5.33068789556511       -1.60067511443941
H           13.38596882807267       -6.11102999691956       -0.29242059091947
H           11.61951191439734       -5.93504530535774       -0.14349287827411
H           10.42481786703380       -4.18789542469791       -1.22015669458018
H            8.93357123305800       -2.26772181573670       -1.26499128077452
H            8.28048623331926        2.16886958538474        1.20683386742281
H            9.15837377065065        4.43489635180557        1.16814029879536
H           10.77806021141282        6.12123924093064        1.54984020974882
H            9.80070366915212        6.44999018535280        0.08882110604065
H           11.44006657742147        7.13063151338542        0.23980733562611
H           12.37568170126480        3.15326352592934       -1.34245163986205
H           11.47592332198798        0.85652833906075       -1.31683740627080
H            7.97780158709944       -1.85418323736941        1.26765125302836
H            5.55392423411172       -2.19644560454697        1.26375983907942
H            3.77409497462035       -2.89644663305489       -0.07267779889019
H            1.32511506350717       -3.19450071571748       -0.01905177589068
H            3.20099247079163        1.35580465798232        0.02491188889365
H           -1.27329156321908        3.22500340175894        0.12441611131975
H           -3.72248866292804        2.92776047664427        0.16712026511325
H           -5.04213430230390       -1.13261303542974        1.40703858262726
H           -7.46762130627735       -1.47219384179984        1.38614622507863
H           -8.90109654111748        2.31211951722686        1.30929158474312
H          -10.43055685590889        4.24515202090024        1.21399948841015
H          -14.24558940604154        5.40658169412794       -0.60400110591707
H          -13.64116632211503        4.28381055589060       -1.84762482809630
H          -14.50506401567103        3.65446439787869       -0.41303811525694
H          -13.04285343002499        2.04425750576269       -1.36014439431318
H          -11.52760039971475        0.14344610563679       -1.27750639188972
H           -8.22533294340690       -2.13289416727133       -1.16063033719066
H           -9.11555393067973       -4.39453110115415       -1.13194686659796
H          -10.74128152855763       -6.07049539338022       -1.53456712913654
H           -9.78266185848635       -6.40682312677927       -0.06290584178774
H          -11.42419881690034       -7.07741703409677       -0.23332741026350
H          -12.35400839626904       -3.09618177649795        1.34236807874457
H          -11.44127833792800       -0.80369133076337        1.32705142453885
H           -7.91109896684004        1.89922679008223       -1.21224035545064
H           -5.48747470249851        2.23528917466540       -1.18427763147792
H           -3.15063091729522       -1.32468576778376        0.06819240648252
H            5.07650159623082        1.16189360568950       -1.33402014749349
H            7.50149387374832        1.50657800234634       -1.33801533190882
H           11.60943419974222       -0.09389193817918        1.26664471847715
H           13.13054104814186       -2.03541648338900        1.29791075027209

          :  Hamiltonian                  GFN2-xTB          :
         :: gradient norm              0.000032432777 Eh/a0 ::
         :: HOMO-LUMO gap              1.056839035375 eV    ::
         :: SCC energy              -170.049312859653 Eh    ::
         :: -> dispersion             -0.134244697661 Eh    ::
         :: -> Gsolv                  -0.100970561806 Eh    ::
         :: repulsion energy           2.698433912903 Eh    ::

    * Orbital Energies and Occupations

         #    Occupation            Energy/Eh            Energy/eV
      -------------------------------------------------------------
         1        2.0000           -0.7271206             -19.7860
       ...           ...                  ...                  ...
       141        2.0000           -0.4099658             -11.1557
       142        2.0000           -0.4066975             -11.0668
       143        2.0000           -0.3989526             -10.8561
       144        2.0000           -0.3971903             -10.8081
       145        2.0000           -0.3947830             -10.7426
       146        2.0000           -0.3945438             -10.7361
       147        2.0000           -0.3890639             -10.5870
       148        2.0000           -0.3856653             -10.4945
       149        2.0000           -0.3708569             -10.0915
       150        1.9320           -0.3571235              -9.7178
       151        1.6281           -0.3551342              -9.6637
       152        1.4398           -0.3544063              -9.6439
       153        1.0000           -0.2980328              -8.1099 (HOMO)
       154                         -0.2591944              -7.0530 (LUMO)
       155                         -0.2442127              -6.6454
       156                         -0.2402788              -6.5383
       157                         -0.2402424              -6.5373
       158                         -0.2395973              -6.5198
       159                         -0.2373513              -6.4587
       160                         -0.2365220              -6.4361
       161                         -0.2353464              -6.4041
       162                         -0.2350353              -6.3956
       163                         -0.2299802              -6.2581
       164                         -0.2296406              -6.2488
       ...                                ...                  ...
       290                          0.7248928              19.7253
      -------------------------------------------------------------
                  HL-Gap            0.0388384 Eh            1.0568 eV

     #   Z          covCN         q      C6AA      α(0)
     1   6 C        3.643     0.029    20.426     6.497
     2   8 O        1.705    -0.270    18.473     5.803
     3   6 C        2.863     0.146    24.832     8.168
     4   6 C        2.915    -0.063    29.565     8.916
     5   6 C        2.922    -0.042    29.041     8.837
     6   6 C        2.924     0.053    26.804     8.490
     7   7 N        2.752    -0.026    21.755     6.927
     8   6 C        2.924     0.053    26.803     8.490
     9   6 C        2.922    -0.042    29.033     8.836
    10   6 C        2.915    -0.063    29.560     8.916
    11   6 C        2.863     0.146    24.830     8.168
    12   8 O        1.705    -0.269    18.464     5.802
    13   6 C        3.643     0.029    20.424     6.497
    14   6 C        2.918    -0.051    29.272     8.872
    15   6 C        2.920    -0.041    29.018     8.834
    16   6 C        2.925     0.060    26.664     8.468
    17   6 C        2.919    -0.043    29.072     8.842
    18   6 C        2.923    -0.031    28.784     8.798
    19   6 C        2.975     0.013    27.721     8.636
    20   6 C        2.973     0.003    27.963     8.674
    21   6 C        2.920    -0.042    29.039     8.837
    22   6 C        2.920    -0.025    28.635     8.775
    23   6 C        2.976    -0.034    28.843     8.809
    24   6 C        2.974    -0.033    28.809     8.804
    25   6 C        2.929    -0.028    28.696     8.785
    26   6 C        2.835     0.184    24.058     8.038
    27   8 O        0.857    -0.525    24.347     6.616
    28   6 C        2.976    -0.034    28.842     8.809
    29   6 C        2.920    -0.025    28.634     8.775
    30   6 C        2.920    -0.042    29.036     8.836
    31   6 C        2.973     0.003    27.960     8.673
    32   6 C        2.975     0.013    27.722     8.637
    33   6 C        2.923    -0.030    28.757     8.794
    34   6 C        2.919    -0.043    29.058     8.840
    35   6 C        2.925     0.060    26.660     8.467
    36   7 N        2.752    -0.027    21.764     6.929
    37   6 C        2.924     0.053    26.806     8.490
    38   6 C        2.920    -0.040    28.999     8.831
    39   6 C        2.919    -0.051    29.267     8.871
    40   6 C        2.863     0.146    24.832     8.168
    41   8 O        1.705    -0.271    18.488     5.805
    42   6 C        3.643     0.029    20.427     6.498
    43   6 C        2.915    -0.063    29.572     8.917
    44   6 C        2.922    -0.043    29.058     8.840
    45   6 C        2.924     0.053    26.803     8.490
    46   6 C        2.922    -0.042    29.035     8.836
    47   6 C        2.915    -0.063    29.561     8.916
    48   6 C        2.863     0.145    24.835     8.169
    49   8 O        1.705    -0.270    18.472     5.803
    50   6 C        3.643     0.029    20.422     6.497
    51   6 C        2.918    -0.051    29.276     8.873
    52   6 C        2.920    -0.041    29.021     8.834
    53   6 C        2.919    -0.043    29.074     8.842
    54   6 C        2.923    -0.031    28.781     8.798
    55   6 C        2.929    -0.028    28.697     8.785
    56   6 C        2.974    -0.033    28.809     8.804
    57   6 C        2.835     0.184    24.059     8.038
    58   8 O        0.857    -0.525    24.351     6.616
    59   6 C        2.923    -0.030    28.757     8.794
    60   6 C        2.919    -0.042    29.056     8.839
    61   6 C        2.920    -0.041    29.016     8.833
    62   6 C        2.919    -0.051    29.270     8.872
    63   1 H        0.924     0.053     2.283     2.363
    64   1 H        0.925     0.072     2.068     2.249
    65   1 H        0.924     0.053     2.288     2.365
    66   1 H        0.926     0.055     2.262     2.352
    67   1 H        0.926     0.050     2.314     2.379
    68   1 H        0.926     0.049     2.327     2.385
    69   1 H        0.926     0.054     2.274     2.358
    70   1 H        0.924     0.053     2.284     2.363
    71   1 H        0.924     0.052     2.294     2.369
    72   1 H        0.925     0.072     2.066     2.248
    73   1 H        0.926     0.059     2.207     2.323
    74   1 H        0.926     0.054     2.265     2.353
    75   1 H        0.926     0.047     2.356     2.400
    76   1 H        0.926     0.045     2.387     2.416
    77   1 H        0.926     0.037     2.488     2.466
    78   1 H        0.925     0.036     2.509     2.477
    79   1 H        0.925     0.039     2.456     2.451
    80   1 H        0.925     0.036     2.509     2.477
    81   1 H        0.926     0.037     2.486     2.466
    82   1 H        0.926     0.041     2.440     2.443
    83   1 H        0.926     0.045     2.379     2.412
    84   1 H        0.926     0.052     2.296     2.369
    85   1 H        0.926     0.057     2.230     2.335
    86   1 H        0.925     0.071     2.070     2.250
    87   1 H        0.924     0.053     2.282     2.362
    88   1 H        0.924     0.054     2.276     2.359
    89   1 H        0.926     0.056     2.247     2.344
    90   1 H        0.926     0.052     2.296     2.370
    91   1 H        0.926     0.049     2.328     2.386
    92   1 H        0.926     0.054     2.276     2.359
    93   1 H        0.924     0.053     2.285     2.364
    94   1 H        0.924     0.052     2.296     2.370
    95   1 H        0.925     0.072     2.067     2.248
    96   1 H        0.926     0.059     2.209     2.324
    97   1 H        0.926     0.054     2.268     2.355
    98   1 H        0.926     0.047     2.357     2.401
    99   1 H        0.926     0.045     2.387     2.416
   100   1 H        0.925     0.040     2.455     2.450
   101   1 H        0.926     0.041     2.440     2.443
   102   1 H        0.926     0.045     2.379     2.412
   103   1 H        0.926     0.054     2.274     2.358
   104   1 H        0.926     0.059     2.213     2.326

molecular dipole:
                 x           y           z       tot (Debye)
 q only:       -0.563      -0.492      -0.651
   full:       -0.710      -0.609      -0.785       3.104

 projected vibrational frequencies (cm⁻¹)
eigval :       -0.00    -0.00    -0.00     0.00     0.00     0.00
eigval :        5.70     8.52     9.78    12.17    15.97    24.70
eigval :       28.79    29.53    33.43    39.55    43.26    45.95
eigval :       50.67    58.83    59.16    63.31    65.07    82.18
eigval :       89.33    95.93   103.43   105.75   111.50   114.91
eigval :      118.93   131.81   138.42   149.22   158.85   160.23
eigval :      164.11   167.56   171.91   181.37   190.91   201.45
eigval :      208.82   216.12   221.24   228.15   229.95   232.01
eigval :      235.28   247.87   265.08   277.46   286.89   300.20
eigval :      304.50   313.57   322.19   334.21   337.77   345.69
eigval :      348.21   361.61   363.94   374.10   380.86   381.88
eigval :      387.19   388.32   391.41   393.62   394.70   402.40
eigval :      405.60   415.40   421.88   439.56   445.75   449.45
eigval :      456.20   467.34   467.49   473.17   475.83   497.11
eigval :      498.37   505.66   508.52   516.24   522.58   537.38
eigval :      540.77   551.53   563.02   572.08   589.53   601.00
eigval :      604.19   607.47   609.19   610.29   616.11   618.61
eigval :      629.21   636.21   644.78   654.21   668.91   671.13
eigval :      673.25   674.86   676.62   681.91   694.16   694.73
eigval :      704.79   731.41   739.00   779.52   780.91   803.76
eigval :      807.91   809.24   810.24   812.17   814.22   815.30
eigval :      816.09   831.96   833.81   846.21   856.80   857.26
eigval :      857.96   859.37   864.03   864.81   888.95   889.81
eigval :      903.58   904.84   906.04   907.53   909.05   915.79
eigval :      916.20   919.19   919.37   920.83   921.81   922.18
eigval :      922.50   924.21   927.22   927.37   929.12   929.60
eigval :      943.05   969.31   997.35   998.61  1014.17  1014.86
eigval :     1016.02  1018.39  1051.03  1051.18  1051.54  1051.60
eigval :     1073.10  1074.73  1097.00  1114.26  1114.50  1114.52
eigval :     1115.12  1126.15  1126.47  1127.62  1128.28  1136.53
eigval :     1140.09  1143.75  1151.75  1151.98  1152.49  1153.03
eigval :     1173.26  1175.47  1180.07  1180.59  1180.99  1182.56
eigval :     1184.18  1191.10  1200.23  1201.00  1220.11  1224.84
eigval :     1227.88  1227.96  1235.67  1242.71  1249.22  1262.91
eigval :     1263.07  1266.36  1266.72  1269.01  1269.23  1272.50
eigval :     1277.98  1292.74  1308.53  1308.98  1310.00  1313.89
eigval :     1316.47  1318.22  1329.61  1331.52  1333.54  1335.03
eigval :     1363.34  1367.25  1384.98  1393.76  1393.97  1394.13
eigval :     1394.45  1394.91  1409.82  1410.64  1420.64  1421.00
eigval :     1423.83  1424.19  1432.47  1445.59  1461.01  1461.33
eigval :     1461.39  1461.64  1461.92  1462.50  1464.56  1466.31
eigval :     1470.17  1472.41  1472.88  1473.60  1473.75  1481.32
eigval :     1481.53  1504.17  1507.51  1532.93  1537.39  1542.05
eigval :     1548.12  1548.49  1551.81  1552.14  1556.16  1559.80
eigval :     1580.52  1581.25  1581.34  1581.79  1586.35  1594.25
eigval :     2943.49  2943.53  2943.62  2944.26  2953.71  2954.08
eigval :     2954.30  2954.82  3028.08  3028.42  3028.75  3028.78
eigval :     3065.88  3066.06  3070.32  3070.41  3079.98  3080.24
eigval :     3082.77  3082.91  3084.11  3084.32  3091.41  3091.45
eigval :     3091.82  3092.25  3093.76  3094.00  3094.49  3094.57
eigval :     3095.34  3096.13  3096.54  3096.64  3108.94  3109.12
eigval :     3109.22  3109.74  3113.37  3113.56  3113.76  3114.11

   temp. (K)  partition function   enthalpy   heat capacity  entropy
                                   cal/mol     cal/K/mol   cal/K/mol   J/K/mol
 298.15  VIB  0.741E+27            32522.057    196.177    206.137
         ROT  0.402E+09              888.752      2.981     42.353
         INT  0.298E+36            33410.810    199.157    248.490
         TR   0.225E+29             1481.254      4.968     45.951
         TOT                       34892.0634   204.1256   294.4405  1231.9391

       T/K    H(0)-H(T)+PV         H(T)/Eh          T*S/Eh         G(T)/Eh
   ------------------------------------------------------------------------
    298.15    0.556040E-01    0.851778E+00    0.139898E+00    0.711879E+00
   ------------------------------------------------------------------------

         :::::::::::::::::::::::::::::::::::::::::::::::::::::
         ::                  THERMODYNAMIC                  ::
         :::::::::::::::::::::::::::::::::::::::::::::::::::::
         :: total free energy        -166.638999623379 Eh   ::
         ::.................................................::
         :: total energy             -167.350878947129 Eh   ::
         :: zero point energy           0.796173464472 Eh   ::
         :: G(RRHO) w/o ZPVE           -0.084294140722 Eh   ::
         :: G(RRHO) contrib.            0.711879323750 Eh   ::
         :::::::::::::::::::::::::::::::::::::::::::::::::::::

           -------------------------------------------------
          | TOTAL ENERGY             -167.350878947129 Eh   |
          | TOTAL ENTHALPY           -166.499101440233 Eh   |
          | TOTAL FREE ENERGY        -166.638999623379 Eh   |
          | GRADIENT NORM               0.000030610335 Eh/α |
          | HOMO-LUMO GAP               1.056845724773 eV   |
           -------------------------------------------------

 * finished run on 2025/07/17 at 05:02:39.544
