   * xtb version 6.7.1 (edcfbbe) compiled by 'albert@albert-system' on 2024-07-22

   ID    Z sym.   atoms
    1    6 C      1, 3-6, 8-11, 13-26, 28-35, 37-40, 42-48, 50-57, 59-62
    2    8 O      2, 12, 27, 41, 49, 58
    3    7 N      7, 36
    4    1 H      63-104

          program call               : xtb data2507/toluene/MPPA/MPPA_toluene_S0_finalOpt.xtbopt.xyz --gfn 2 --uhf 2 --gbsa toluene --ohess vtight --parallel 40 --molden --ceasefiles --namespace data2507/toluene/MPPA/MPPA_toluene_T1_preOpt
      * Solvation model:               GBSA
        Solvent                        toluene
        Solvent mass                       9.2140E+01 g/mol
          :  Hamiltonian                  GFN2-xTB          :
 * total energy  :  -167.3468465 Eh     change       -0.5063913E-07 Eh
 * total energy  :  -167.3497589 Eh     change       -0.2912479E-02 Eh
 * total energy  :  -167.3504605 Eh     change       -0.7015481E-03 Eh
 * total energy  :  -167.3505208 Eh     change       -0.6026931E-04 Eh
 * total energy  :  -167.3505652 Eh     change       -0.4441066E-04 Eh
 * total energy  :  -167.3506005 Eh     change       -0.3529531E-04 Eh
 * total energy  :  -167.3506425 Eh     change       -0.4208917E-04 Eh
 * total energy  :  -167.3506895 Eh     change       -0.4695641E-04 Eh
 * total energy  :  -167.3507225 Eh     change       -0.3304701E-04 Eh
 * total energy  :  -167.3507455 Eh     change       -0.2294681E-04 Eh
 * total energy  :  -167.3508580 Eh     change       -0.5702067E-06 Eh
 * total energy  :  -167.3508586 Eh     change       -0.6401758E-06 Eh
 * total energy  :  -167.3508593 Eh     change       -0.7234277E-06 Eh
 * total energy  :  -167.3508601 Eh     change       -0.7834352E-06 Eh
 * total energy  :  -167.3508609 Eh     change       -0.7657311E-06 Eh
 * total energy  :  -167.3508616 Eh     change       -0.7009512E-06 Eh
 * total energy  :  -167.3508622 Eh     change       -0.6343761E-06 Eh
 * total energy  :  -167.3508628 Eh     change       -0.5703529E-06 Eh
 * total energy  :  -167.3508628 Eh     change       -0.1687596E-08 Eh
   *** GEOMETRY OPTIMIZATION CONVERGED AFTER 44 ITERATIONS ***

 final structure:
================
104
 xtb: 6.7.1 (edcfbbe)
C           12.56198805802816       -5.45778081865320       -0.55798573460998
O           12.80068675400534       -4.25681174373921        0.14646987799479
C           11.89535083236567       -3.25111761751226        0.05558163556531
C           10.72383975361279       -3.29038666110713       -0.69898210858535
C            9.87248911910155       -2.20329045094565       -0.71702801967782
C           10.16236086881175       -1.05168302105722        0.01513093597866
N            9.29453308473198        0.04241907530494       -0.00471363468876
C            9.80914964528830        1.34059465570167        0.02432916880338
C            9.15327955053494        2.35086737189011        0.72844490166332
C            9.65393506626276        3.63739553327904        0.75758644982971
C           10.83287069867745        3.94648724200619        0.08085954420244
O           11.41362244403155        5.17135616271028        0.04223032984207
C           10.79090833292750        6.24546546064592        0.71617959330941
C           11.49456989153670        2.93327209719810       -0.62313146068932
C           10.99331934095361        1.65397379264131       -0.65268386991625
C            7.91505606330161       -0.15953520236365       -0.04713939618829
C            7.32983670491553       -1.23153965797130        0.63357627137824
C            5.96669629594074       -1.42269959726555        0.59334023343352
C            5.13362264704656       -0.55419686714359       -0.11849973994399
C            3.68368013351516       -0.74831567426552       -0.13858444529110
C            3.12375506645779       -2.04214747720010       -0.16002383772101
C            1.76542265089775       -2.21204525884242       -0.15515859997964
C            0.88618754764794       -1.11721540761030       -0.12481340219030
C            1.43534032336254        0.18466249578492       -0.10219267812434
C            2.82457493139877        0.33625965024390       -0.11631036678697
C            0.59816796079192        1.37276178225071       -0.06257944635601
O            1.08651673159236        2.52815940110902       -0.04942875107695
C           -0.83145136128671        1.13966314460478       -0.04530056947527
C           -1.70987061812042        2.23501983123209       -0.01402282361327
C           -3.06807220018791        2.06527444900849        0.01090327166139
C           -3.62696789747374        0.77121019741905        0.01238132101705
C           -5.07730380532467        0.57858689860159        0.03530426557286
C           -5.65195258691339       -0.46311831408806        0.76956931765504
C           -7.01563233177530       -0.65053362245384        0.79288487672764
C           -7.86048053982093        0.19648800643544        0.06817897435406
N           -9.24142862064717        0.00429242100039        0.08222700840791
C          -10.10297986175910        1.10313670346469        0.03832968407353
C           -9.78186916559464        2.28920442386773        0.70839413505903
C          -10.63329968515652        3.36700628274057        0.66233156587043
C          -11.83615027965611        3.30089928602891       -0.05104253791429
O          -12.60050125856591        4.42103916982733       -0.02958963996867
C          -13.83216106116741        4.42191622353924       -0.72171167348241
C          -12.15987721428540        2.12030771367332       -0.71776577789769
C          -11.30182601830021        1.03922229366476       -0.67189849528750
C           -9.76752808562718       -1.28861291481028        0.14092638492740
C           -9.15022806964306       -2.34087889559355       -0.53586451349704
C           -9.66343086275666       -3.62163200954609       -0.47799397024179
C          -10.81667203384767       -3.88228979967457        0.26040400994719
O          -11.40571398284491       -5.09742776220339        0.38739902363680
C          -10.81415890064801       -6.21402690019314       -0.24417902675404
C          -11.44048889459307       -2.82679989570898        0.93616401198817
C          -10.92632198136773       -1.55352019498311        0.87960316503418
C           -7.29298025934447        1.23851754640953       -0.67173439585958
C           -5.92856000220332        1.42482505435469       -0.68112305578747
C           -2.76933470365078       -0.31395267854883       -0.02033660487119
C           -1.38036672186157       -0.16239436695926       -0.05900527109676
C           -0.54330970009694       -1.35024311210488       -0.11085394101791
O           -1.03173250444508       -2.50559453548218       -0.13255509249584
C            5.72714790727185        0.51422137130711       -0.79793623495304
C            7.08965990382172        0.70924713825261       -0.76826387704626
C           11.34014060892129       -1.01494583787837        0.77024539559034
C           12.18981466046373       -2.09498099311651        0.78804457900277
H           12.52396463175091       -5.28528417654039       -1.63746669114770
H           13.40581838950406       -6.10470333668139       -0.32445861387805
H           11.63508895864693       -5.93577760914848       -0.22821793070144
H           10.46864671966925       -4.15926133753587       -1.28363675082396
H            8.97525036412753       -2.24023660399877       -1.31632771304946
H            8.24689423455908        2.12142852314487        1.26837449219792
H            9.12127175587776        4.38870996918589        1.31770933974741
H           10.73398089111597        6.06069274946903        1.79281601218690
H            9.78863834859990        6.43622747020436        0.32201171533398
H           11.42380409035923        7.11158397484830        0.53059840666147
H           12.40127466938324        3.18509441114101       -1.15000203484894
H           11.50599134056873        0.88705885298016       -1.21272996560797
H            7.95279864674526       -1.89795419814583        1.21146070643908
H            5.52979420733879       -2.23753507912401        1.15046020095230
H            3.77284443488438       -2.90401543152124       -0.20804549249579
H            1.32382617943311       -3.19916219392743       -0.17923779851685
H            3.20382352628313        1.34822506047494       -0.07500049615665
H           -1.26780496709981        3.22213342256801       -0.00255277181186
H           -3.71759621932680        2.92680684207242        0.05996042725123
H           -5.01491615947808       -1.11318662927649        1.35036129818180
H           -7.44172652125308       -1.44451028669040        1.38803958272797
H           -8.86479364717219        2.35000113338319        1.27422781501713
H          -10.39625218862451        4.28172081604545        1.18226929137675
H          -14.25952349619113        5.40895518053054       -0.55354066091684
H          -13.68595251079760        4.26739004968303       -1.79466336659143
H          -14.51071918188050        3.65979088654481       -0.32802952381838
H          -13.07288972041723        2.03539208880392       -1.28430265824228
H          -11.55608702417632        0.13558418669208       -1.20491690596517
H           -8.26399837282835       -2.14980233206134       -1.12223180512829
H           -9.16064365334947       -4.40688127370027       -1.01890256585481
H          -10.79469312444358       -6.09326321102494       -1.33116280680379
H           -9.79951367476397       -6.38937867464843        0.12474831953178
H          -11.44520320999288       -7.06257238034614        0.01443583006693
H          -12.32728757743211       -3.04106886889928        1.51135429204588
H          -11.40748223447920       -0.75302194456063        1.42040899189637
H           -7.93093856068995        1.88719866562873       -1.25331387927745
H           -5.50593216900131        2.21822126906462       -1.27885949652428
H           -3.15078769563015       -1.32562800578450       -0.04822070210707
H            5.10685580352427        1.18194470586555       -1.37669489763015
H            7.53081972564009        1.52724432307260       -1.31822796544602
H           11.57242500906689       -0.13677442067037        1.35286793776354
H           13.09473136495236       -2.07777660821818        1.37455078329499

          :  Hamiltonian                  GFN2-xTB          :
         :: gradient norm              0.000049540700 Eh/a0 ::
         :: HOMO-LUMO gap              1.057213695889 eV    ::
         :: SCC energy              -170.049257419093 Eh    ::
         :: -> dispersion             -0.134238535198 Eh    ::
         :: -> Gsolv                  -0.100968240268 Eh    ::
         :: repulsion energy           2.698394642197 Eh    ::

    * Orbital Energies and Occupations

         #    Occupation            Energy/Eh            Energy/eV
      -------------------------------------------------------------
         1        2.0000           -0.7271287             -19.7862
       ...           ...                  ...                  ...
       141        2.0000           -0.4099305             -11.1548
       142        2.0000           -0.4066849             -11.0665
       143        2.0000           -0.3989516             -10.8560
       144        2.0000           -0.3971909             -10.8081
       145        2.0000           -0.3947975             -10.7430
       146        2.0000           -0.3945293             -10.7357
       147        2.0000           -0.3890686             -10.5871
       148        2.0000           -0.3856728             -10.4947
       149        2.0000           -0.3708635             -10.0917
       150        1.9320           -0.3571325              -9.7181
       151        1.6282           -0.3551443              -9.6640
       152        1.4398           -0.3544158              -9.6441
       153        1.0000           -0.2980324              -8.1099 (HOMO)
       154                         -0.2591806              -7.0527 (LUMO)
       155                         -0.2441951              -6.6449
       156                         -0.2402991              -6.5389
       157                         -0.2402303              -6.5370
       158                         -0.2395939              -6.5197
       159                         -0.2373704              -6.4592
       160                         -0.2364909              -6.4352
       161                         -0.2353601              -6.4045
       162                         -0.2350376              -6.3957
       163                         -0.2299446              -6.2571
       164                         -0.2296727              -6.2497
       ...                                ...                  ...
       290                          0.7248565              19.7244
      -------------------------------------------------------------
                  HL-Gap            0.0388518 Eh            1.0572 eV

     #   Z          covCN         q      C6AA      α(0)
     1   6 C        3.643     0.029    20.426     6.497
     2   8 O        1.705    -0.270    18.473     5.803
     3   6 C        2.863     0.146    24.832     8.168
     4   6 C        2.915    -0.063    29.565     8.916
     5   6 C        2.922    -0.042    29.040     8.837
     6   6 C        2.924     0.053    26.804     8.490
     7   7 N        2.752    -0.026    21.757     6.928
     8   6 C        2.924     0.053    26.802     8.490
     9   6 C        2.922    -0.042    29.032     8.836
    10   6 C        2.915    -0.063    29.560     8.916
    11   6 C        2.863     0.146    24.830     8.168
    12   8 O        1.705    -0.269    18.464     5.802
    13   6 C        3.643     0.029    20.424     6.497
    14   6 C        2.918    -0.051    29.272     8.872
    15   6 C        2.920    -0.041    29.018     8.834
    16   6 C        2.925     0.060    26.664     8.468
    17   6 C        2.919    -0.043    29.073     8.842
    18   6 C        2.923    -0.031    28.785     8.798
    19   6 C        2.975     0.013    27.721     8.636
    20   6 C        2.973     0.003    27.964     8.674
    21   6 C        2.920    -0.042    29.040     8.837
    22   6 C        2.919    -0.025    28.636     8.775
    23   6 C        2.976    -0.034    28.843     8.809
    24   6 C        2.974    -0.033    28.811     8.804
    25   6 C        2.929    -0.028    28.696     8.785
    26   6 C        2.835     0.184    24.057     8.038
    27   8 O        0.857    -0.525    24.346     6.615
    28   6 C        2.976    -0.034    28.841     8.809
    29   6 C        2.920    -0.025    28.633     8.775
    30   6 C        2.920    -0.042    29.035     8.836
    31   6 C        2.973     0.003    27.958     8.673
    32   6 C        2.975     0.013    27.722     8.637
    33   6 C        2.923    -0.030    28.756     8.794
    34   6 C        2.919    -0.043    29.060     8.840
    35   6 C        2.925     0.060    26.658     8.467
    36   7 N        2.752    -0.027    21.764     6.929
    37   6 C        2.924     0.053    26.806     8.491
    38   6 C        2.920    -0.040    29.000     8.831
    39   6 C        2.919    -0.051    29.267     8.871
    40   6 C        2.863     0.146    24.832     8.168
    41   8 O        1.705    -0.271    18.488     5.805
    42   6 C        3.643     0.029    20.427     6.498
    43   6 C        2.915    -0.063    29.572     8.917
    44   6 C        2.922    -0.043    29.057     8.840
    45   6 C        2.924     0.053    26.804     8.490
    46   6 C        2.922    -0.042    29.034     8.836
    47   6 C        2.915    -0.063    29.561     8.916
    48   6 C        2.863     0.145    24.835     8.169
    49   8 O        1.705    -0.270    18.472     5.803
    50   6 C        3.643     0.029    20.423     6.497
    51   6 C        2.918    -0.051    29.276     8.873
    52   6 C        2.920    -0.041    29.020     8.834
    53   6 C        2.919    -0.043    29.074     8.842
    54   6 C        2.923    -0.031    28.779     8.797
    55   6 C        2.929    -0.028    28.697     8.785
    56   6 C        2.974    -0.033    28.808     8.804
    57   6 C        2.835     0.184    24.059     8.038
    58   8 O        0.857    -0.525    24.351     6.616
    59   6 C        2.923    -0.030    28.758     8.794
    60   6 C        2.919    -0.042    29.055     8.839
    61   6 C        2.920    -0.041    29.016     8.833
    62   6 C        2.919    -0.051    29.270     8.872
    63   1 H        0.924     0.053     2.283     2.363
    64   1 H        0.925     0.072     2.068     2.249
    65   1 H        0.924     0.053     2.288     2.365
    66   1 H        0.926     0.055     2.262     2.352
    67   1 H        0.926     0.050     2.314     2.379
    68   1 H        0.926     0.049     2.328     2.386
    69   1 H        0.926     0.054     2.274     2.358
    70   1 H        0.924     0.053     2.284     2.363
    71   1 H        0.924     0.052     2.294     2.368
    72   1 H        0.925     0.072     2.066     2.248
    73   1 H        0.926     0.059     2.207     2.323
    74   1 H        0.926     0.054     2.265     2.353
    75   1 H        0.926     0.047     2.357     2.401
    76   1 H        0.926     0.045     2.386     2.416
    77   1 H        0.926     0.037     2.487     2.466
    78   1 H        0.925     0.035     2.510     2.477
    79   1 H        0.925     0.040     2.455     2.450
    80   1 H        0.925     0.036     2.508     2.476
    81   1 H        0.926     0.037     2.487     2.466
    82   1 H        0.926     0.041     2.441     2.443
    83   1 H        0.926     0.045     2.379     2.412
    84   1 H        0.926     0.052     2.295     2.369
    85   1 H        0.926     0.057     2.230     2.335
    86   1 H        0.925     0.071     2.070     2.250
    87   1 H        0.924     0.053     2.282     2.362
    88   1 H        0.924     0.054     2.276     2.359
    89   1 H        0.926     0.056     2.247     2.344
    90   1 H        0.926     0.052     2.296     2.370
    91   1 H        0.926     0.049     2.327     2.386
    92   1 H        0.926     0.054     2.276     2.359
    93   1 H        0.924     0.053     2.285     2.364
    94   1 H        0.924     0.052     2.296     2.370
    95   1 H        0.925     0.072     2.067     2.248
    96   1 H        0.926     0.059     2.209     2.324
    97   1 H        0.926     0.054     2.269     2.356
    98   1 H        0.926     0.047     2.356     2.400
    99   1 H        0.926     0.045     2.388     2.417
   100   1 H        0.925     0.039     2.457     2.451
   101   1 H        0.926     0.041     2.439     2.442
   102   1 H        0.926     0.045     2.379     2.412
   103   1 H        0.926     0.054     2.275     2.359
   104   1 H        0.926     0.059     2.213     2.326

molecular dipole:
                 x           y           z       tot (Debye)
 q only:       -0.583      -0.494      -0.366
   full:       -0.733      -0.615      -0.504       2.749

 projected vibrational frequencies (cm⁻¹)
eigval :       -0.00    -0.00    -0.00     0.00     0.00     0.00
eigval :        2.93     6.87     9.37    11.67    15.54    23.31
eigval :       28.16    29.31    30.79    33.79    40.28    45.05
eigval :       48.12    49.81    59.87    62.06    64.02    80.74
eigval :       87.01    96.56   101.93   104.21   109.96   114.48
eigval :      118.30   131.39   138.03   148.64   158.31   158.92
eigval :      163.37   167.13   171.06   180.82   190.67   201.14
eigval :      208.94   214.62   220.69   227.32   228.63   230.43
eigval :      233.16   247.56   264.97   277.42   286.94   300.27
eigval :      304.25   313.60   321.91   334.00   337.19   345.60
eigval :      348.15   361.43   364.08   373.71   379.70   382.55
eigval :      386.32   387.56   391.22   392.94   394.07   402.20
eigval :      405.58   415.11   421.91   439.34   445.74   449.29
eigval :      455.82   467.18   467.32   473.20   475.69   495.33
eigval :      498.20   505.96   506.39   516.03   522.45   536.85
eigval :      540.61   551.34   562.91   571.89   589.46   601.00
eigval :      604.09   607.48   609.29   610.24   616.05   618.35
eigval :      629.23   636.10   644.63   654.07   668.25   668.54
eigval :      671.51   674.54   676.13   681.32   692.76   695.17
eigval :      704.72   731.35   738.97   779.46   780.69   803.57
eigval :      807.53   808.97   809.45   811.52   813.65   814.87
eigval :      815.28   831.87   833.80   846.19   856.01   856.11
eigval :      857.62   858.63   864.41   865.13   887.76   890.01
eigval :      903.11   904.32   905.50   906.61   908.51   915.85
eigval :      916.05   918.59   919.24   920.78   921.27   921.39
eigval :      921.69   924.18   927.12   927.24   929.00   929.76
eigval :      943.06   969.31   997.31   998.59  1014.20  1014.66
eigval :     1016.11  1018.46  1050.92  1051.11  1051.41  1051.53
eigval :     1073.23  1074.89  1097.01  1113.84  1113.92  1114.50
eigval :     1114.60  1125.59  1126.12  1127.30  1127.74  1136.73
eigval :     1140.40  1143.99  1150.90  1151.28  1151.91  1152.65
eigval :     1173.08  1175.60  1180.07  1180.46  1180.63  1182.56
eigval :     1184.02  1191.19  1200.19  1201.16  1220.07  1225.05
eigval :     1227.64  1227.86  1235.94  1242.71  1249.19  1262.71
eigval :     1262.82  1266.26  1266.41  1268.94  1269.71  1272.50
eigval :     1277.92  1292.86  1308.72  1308.83  1310.02  1314.09
eigval :     1316.56  1318.11  1329.62  1331.69  1333.57  1335.02
eigval :     1363.31  1367.25  1384.97  1392.68  1393.51  1393.87
eigval :     1394.05  1394.81  1409.77  1410.59  1420.61  1420.92
eigval :     1423.69  1424.14  1432.51  1445.64  1460.78  1460.92
eigval :     1461.33  1461.55  1461.57  1462.55  1464.41  1466.13
eigval :     1470.07  1472.34  1472.66  1473.12  1474.01  1481.28
eigval :     1481.56  1504.13  1507.53  1532.86  1537.38  1542.16
eigval :     1548.17  1548.52  1551.89  1552.22  1555.96  1559.77
eigval :     1580.57  1581.16  1581.21  1581.85  1586.30  1594.18
eigval :     2943.41  2943.70  2943.77  2943.98  2953.77  2954.34
eigval :     2954.40  2954.61  3028.11  3028.35  3028.56  3028.86
eigval :     3065.95  3066.22  3069.95  3070.93  3080.13  3080.35
eigval :     3082.80  3082.86  3084.08  3084.41  3091.25  3091.44
eigval :     3091.79  3092.06  3093.61  3094.06  3094.32  3094.65
eigval :     3095.22  3096.24  3096.42  3096.71  3108.93  3109.01
eigval :     3109.05  3109.89  3113.22  3113.34  3113.51  3113.84

   temp. (K)  partition function   enthalpy   heat capacity  entropy
                                   cal/mol     cal/K/mol   cal/K/mol   J/K/mol
 298.15  VIB  0.407E+28            32603.370    195.773    207.671
         ROT  0.402E+09              888.752      2.981     42.352
         INT  0.164E+37            33492.123    198.754    250.023
         TR   0.225E+29             1481.254      4.968     45.951
         TOT                       34973.3767   203.7218   295.9733  1238.3524

       T/K    H(0)-H(T)+PV         H(T)/Eh          T*S/Eh         G(T)/Eh
   ------------------------------------------------------------------------
    298.15    0.557336E-01    0.851672E+00    0.140626E+00    0.711046E+00
   ------------------------------------------------------------------------

         :::::::::::::::::::::::::::::::::::::::::::::::::::::
         ::                  THERMODYNAMIC                  ::
         :::::::::::::::::::::::::::::::::::::::::::::::::::::
         :: total free energy        -166.639816756956 Eh   ::
         ::.................................................::
         :: total energy             -167.350862778288 Eh   ::
         :: zero point energy           0.795938876506 Eh   ::
         :: G(RRHO) w/o ZPVE           -0.084892855175 Eh   ::
         :: G(RRHO) contrib.            0.711046021332 Eh   ::
         :::::::::::::::::::::::::::::::::::::::::::::::::::::

           -------------------------------------------------
          | TOTAL ENERGY             -167.350862778288 Eh   |
          | TOTAL ENTHALPY           -166.499190278460 Eh   |
          | TOTAL FREE ENERGY        -166.639816756956 Eh   |
          | GRADIENT NORM               0.000048197084 Eh/α |
          | HOMO-LUMO GAP               1.057212124868 eV   |
           -------------------------------------------------

 * finished run on 2025/07/17 at 04:34:05.480
