   * xtb version 6.7.1 (edcfbbe) compiled by 'albert@albert-system' on 2024-07-22

   ID    Z sym.   atoms
    1    6 C      1, 3-6, 8-11, 13-26, 28-35, 37-40, 42-48, 50-57, 59-62
    2    8 O      2, 12, 27, 41, 49, 58
    3    7 N      7, 36
    4    1 H      63-104

          program call               : xtb data2507/toluene/MPPA/MPPA.xyz --gfn 2 --gbsa toluene --ohess vtight --parallel 40 --molden --ceasefiles --namespace data2507/toluene/MPPA/MPPA_toluene_S0_preOpt
      * Solvation model:               GBSA
        Solvent                        toluene
        Solvent mass                       9.2140E+01 g/mol
          :  Hamiltonian                  GFN2-xTB          :
 * total energy  :  -167.3608093 Eh     change       -0.1031282E-08 Eh
 * total energy  :  -167.3757983 Eh     change       -0.1498900E-01 Eh
 * total energy  :  -167.3813361 Eh     change       -0.5537712E-02 Eh
 * total energy  :  -167.3832612 Eh     change       -0.1925112E-02 Eh
 * total energy  :  -167.3848212 Eh     change       -0.1560036E-02 Eh
 * total energy  :  -167.3857269 Eh     change       -0.9057036E-03 Eh
 * total energy  :  -167.3862150 Eh     change       -0.4881294E-03 Eh
 * total energy  :  -167.3864981 Eh     change       -0.2830416E-03 Eh
 * total energy  :  -167.3866829 Eh     change       -0.1847790E-03 Eh
 * total energy  :  -167.3868217 Eh     change       -0.1388397E-03 Eh
 * total energy  :  -167.3913728 Eh     change       -0.1002284E-05 Eh
 * total energy  :  -167.3913738 Eh     change       -0.9975170E-06 Eh
 * total energy  :  -167.3913748 Eh     change       -0.9932349E-06 Eh
 * total energy  :  -167.3913757 Eh     change       -0.9873525E-06 Eh
 * total energy  :  -167.3913767 Eh     change       -0.9828303E-06 Eh
 * total energy  :  -167.3913777 Eh     change       -0.9768387E-06 Eh
 * total energy  :  -167.3913787 Eh     change       -0.9727283E-06 Eh
 * total energy  :  -167.3913796 Eh     change       -0.9678204E-06 Eh
 * total energy  :  -167.3913796 Eh     change       -0.7757109E-08 Eh
   *** GEOMETRY OPTIMIZATION CONVERGED AFTER 420 ITERATIONS ***

 final structure:
================
104
 xtb: 6.7.1 (edcfbbe)
C           13.29242775221140       -2.53432693153537       -4.34085346951209
O           12.00926713643084       -2.91043821679090       -3.89077893658797
C           11.38619152084458       -2.12638995509177       -2.96215289548843
C           11.91168932798081       -0.96069284886293       -2.41560239265019
C           11.18674210351710       -0.24379877440914       -1.48021082576176
C            9.93265842953868       -0.67562836779998       -1.06053241764693
N            9.21434513951899        0.04342788593294       -0.09251342180294
C            9.90386796059920        0.61006036717441        0.99143098943914
C           10.95159928860316       -0.07106246407307        1.60243454222316
C           11.64936220690564        0.49169492696228        2.65644135659873
C           11.30274067868175        1.75267049035844        3.12927648699299
O           11.91938057594926        2.40310378742085        4.15970729845018
C           12.99766080838041        1.76737819947133        4.81066129380355
C           10.24694293514800        2.43618073843925        2.52200987098947
C            9.56183258928545        1.87770197405826        1.46670595120864
C            7.83567318179019        0.18352514499895       -0.19782748077774
C            7.22081047450546        0.29397366433907       -1.44895342741899
C            5.85527443853622        0.44435530862254       -1.54797352933211
C            5.04852821801455        0.46636883683777       -0.40879305697470
C            3.59581286770278        0.61152857940526       -0.51668392457824
C            3.02357232156908        1.48685521049306       -1.44521851989722
C            1.65478486011292        1.62400659823671       -1.53139268982235
C            0.80241520445234        0.88081424241829       -0.71335937785136
C            1.36414746140022       -0.01395137032354        0.21164348859816
C            2.74479438308453       -0.12596315101357        0.30534766460556
C            0.52256530939610       -0.85565834861020        1.08737472551145
O            1.01366879521454       -1.61153382728119        1.91946270539272
C           -0.92809083284213       -0.74106099402581        0.89811705247432
C           -1.78248865117327       -1.56225927632590        1.63576440535441
C           -3.14992330412337       -1.48633696194297        1.48718658957446
C           -3.72738744833524       -0.56865566909218        0.60060776174189
C           -5.17739642248113       -0.47184753741597        0.44561175211579
C           -5.75082630117306       -0.10150215210488       -0.77499798574262
C           -7.11575511606955       -0.01211811312363       -0.92545333384646
C           -7.97223548777805       -0.28828137409830        0.14578403717036
N           -9.34891202283216       -0.19558544154677       -0.00199107897744
C          -10.20058264687689       -1.06138919209770        0.70188465540917
C           -9.86757548837880       -2.40719430186990        0.86817166721363
C          -10.71074213713540       -3.25571218985392        1.54920967363381
C          -11.91804272170710       -2.79130369355104        2.07619312018121
O          -12.68106609786060       -3.71938343720006        2.72451427436142
C          -13.91823426185570       -3.31516882399744        3.26931457432845
C          -12.25590885866974       -1.45281911418142        1.90794398973838
C          -11.40116337947226       -0.60030103786950        1.23201595001424
C           -9.90793834551521        0.76889293406312       -0.85610696975756
C           -9.38246707727370        2.05593466545463       -0.91319338507583
C           -9.93251530000753        3.01426582891130       -1.74545066727453
C          -11.03557403998807        2.70407000285616       -2.53358691523192
O          -11.66281304113227        3.56992347829899       -3.38240526390654
C          -11.17664022079207        4.89099825399169       -3.47964660811982
C          -11.56823439207590        1.41415914291338       -2.47428276772364
C          -11.01187950058968        0.45994448238551       -1.65245817187487
C           -7.40478385764508       -0.65737966883448        1.37010381822322
C           -6.03887143564752       -0.74690081054939        1.51235648823553
C           -2.87065210410918        0.25330484093206       -0.13386246513881
C           -1.49102892028578        0.17419888764171       -0.00600449764811
C           -0.65032886275131        1.05786152761517       -0.83960075440055
O           -1.14131700861238        1.88305032609406       -1.60255689205034
C            5.66449965125709        0.34462137643181        0.83832780940089
C            7.03149764480821        0.21762883164032        0.94589414271863
C            9.41088937369019       -1.84927572332495       -1.60841302310967
C           10.12446029581577       -2.55878491044081       -2.54773376707751
H           13.27180385816378       -1.56064256839451       -4.83991203492923
H           14.01329337038075       -2.51019989485044       -3.51779915047542
H           13.58608207033918       -3.30098619240646       -5.05613173012790
H           12.88074463204848       -0.59369536094779       -2.71376449098972
H           11.60204048798666        0.66350636129405       -1.06702624995290
H           11.22561213373589       -1.05359998162978        1.24748887370083
H           12.45556668160413       -0.06800781061592        3.10298472764733
H           12.68440351136088        0.83032872108598        5.28107231266207
H           13.32620647871576        2.46529421770772        5.57917345144861
H           13.82320629080787        1.57320938780914        4.11899095996166
H            9.98858775953465        3.41573856608292        2.89322786707808
H            8.75481118195062        2.42259043341671        1.00016476511413
H            7.82755204206266        0.26909158506558       -2.34191618930743
H            5.40104948547514        0.52232222238681       -2.52461135653562
H            3.66271974357486        2.07858127169590       -2.08308456315067
H            1.20875491429601        2.31179785895324       -2.23550433269311
H            3.14596847689078       -0.82933611571611        1.02093276365913
H           -1.33775649044779       -2.26835947783351        2.32240021499476
H           -3.78078301481010       -2.15767187975950        2.04917250506012
H           -5.11734796340017        0.08367436738107       -1.62928094815001
H           -7.53661461582956        0.25941693998826       -1.88226754120590
H           -8.94388943801752       -2.78328319889242        0.45439779412140
H          -10.46089632329777       -4.29714379981855        1.67927635704088
H          -14.34425389379823       -4.21037799541416        3.71954295252462
H          -13.78478587622892       -2.54942663524336        4.03962285855357
H          -14.59350503954504       -2.94215657749697        2.49319467423967
H          -13.17772971608629       -1.05732135674242        2.30341433973073
H          -11.67167152272349        0.43829680028601        1.11207016867839
H           -8.53304156732763        2.31205297088303       -0.29729458886507
H           -9.49589304389423        4.00002228941574       -1.76101919155693
H          -11.23868201898533        5.41113128051938       -2.51882023638323
H          -10.14438121838430        4.91155339460678       -3.84233525381635
H          -11.82341799349206        5.38699164353083       -4.20159460326575
H          -12.42103720282460        1.18252308782217       -3.09317235373144
H          -11.42983255427191       -0.53503199386886       -1.62098763713779
H           -8.04996956073714       -0.85862852273597        2.21234543450199
H           -5.63002262999964       -0.99677832001450        2.47965857458645
H           -3.26459602573040        0.99231474992717       -0.81621415250646
H            5.06242433298176        0.36970478500710        1.73459364432356
H            7.49059899941299        0.13282379612699        1.91967261294405
H            8.44215954553784       -2.20272400515728       -1.28821610610149
H            9.72779906322025       -3.46738989868654       -2.97334536452561

          :  Hamiltonian                  GFN2-xTB          :
         :: gradient norm              0.000070955574 Eh/a0 ::
         :: HOMO-LUMO gap              0.626450057704 eV    ::
         :: SCC energy              -170.098529518951 Eh    ::
         :: -> dispersion             -0.134054268858 Eh    ::
         :: -> Gsolv                  -0.076408359821 Eh    ::
         :: repulsion energy           2.707149870611 Eh    ::

    * Orbital Energies and Occupations

         #    Occupation            Energy/Eh            Energy/eV
      -------------------------------------------------------------
         1        2.0000           -0.7182538             -19.5447
       ...           ...                  ...                  ...
       140        2.0000           -0.4122910             -11.2190
       141        2.0000           -0.4098580             -11.1528
       142        2.0000           -0.4094802             -11.1425
       143        2.0000           -0.4090341             -11.1304
       144        2.0000           -0.4089033             -11.1268
       145        2.0000           -0.4075858             -11.0910
       146        2.0000           -0.3931113             -10.6971
       147        2.0000           -0.3925722             -10.6824
       148        2.0000           -0.3890019             -10.5853
       149        2.0000           -0.3861592             -10.5079
       150        2.0000           -0.3860102             -10.5039
       151        2.0000           -0.3467079              -9.4344
       152        2.0000           -0.3457631              -9.4087 (HOMO)
       153        0.0000           -0.3227415              -8.7822 (LUMO)
       154                         -0.2778824              -7.5616
       155                         -0.2544709              -6.9245
       156                         -0.2483197              -6.7571
       157                         -0.2314635              -6.2984
       158                         -0.2311362              -6.2895
       159                         -0.2275986              -6.1933
       160                         -0.2269278              -6.1750
       161                         -0.2260896              -6.1522
       162                         -0.2254951              -6.1360
       163                         -0.2252387              -6.1291
       ...                                ...                  ...
       290                          0.7231739              19.6786
      -------------------------------------------------------------
                  HL-Gap            0.0230216 Eh            0.6265 eV

     #   Z          covCN         q      C6AA      α(0)
     1   6 C        3.642     0.035    20.329     6.482
     2   8 O        1.705    -0.290    18.814     5.856
     3   6 C        2.863     0.136    25.035     8.201
     4   6 C        2.917    -0.067    29.660     8.931
     5   6 C        2.923    -0.048    29.203     8.862
     6   6 C        2.923     0.053    26.800     8.490
     7   7 N        2.751    -0.067    22.530     7.050
     8   6 C        2.923     0.053    26.802     8.490
     9   6 C        2.923    -0.048    29.198     8.861
    10   6 C        2.917    -0.067    29.660     8.931
    11   6 C        2.863     0.136    25.033     8.201
    12   8 O        1.705    -0.289    18.810     5.856
    13   6 C        3.642     0.035    20.329     6.482
    14   6 C        2.919    -0.055    29.367     8.887
    15   6 C        2.922    -0.046    29.139     8.852
    16   6 C        2.922     0.067    26.507     8.443
    17   6 C        2.920    -0.049    29.220     8.864
    18   6 C        2.923    -0.032    28.797     8.800
    19   6 C        2.976     0.000    28.021     8.683
    20   6 C        2.974     0.025    27.443     8.593
    21   6 C        2.921    -0.028    28.713     8.787
    22   6 C        2.921    -0.016    28.414     8.741
    23   6 C        2.974    -0.022    28.549     8.764
    24   6 C        2.972    -0.017    28.419     8.744
    25   6 C        2.929    -0.022    28.546     8.762
    26   6 C        2.831     0.221    23.352     7.919
    27   8 O        0.858    -0.425    22.184     6.315
    28   6 C        2.974    -0.023    28.568     8.767
    29   6 C        2.920    -0.016    28.421     8.742
    30   6 C        2.922    -0.029    28.736     8.791
    31   6 C        2.972     0.024    27.460     8.596
    32   6 C        2.974    -0.000    28.026     8.684
    33   6 C        2.923    -0.031    28.776     8.797
    34   6 C        2.920    -0.049    29.212     8.863
    35   6 C        2.923     0.067    26.500     8.442
    36   7 N        2.751    -0.064    22.475     7.041
    37   6 C        2.923     0.053    26.809     8.491
    38   6 C        2.921    -0.046    29.133     8.851
    39   6 C        2.920    -0.055    29.362     8.886
    40   6 C        2.863     0.136    25.022     8.199
    41   8 O        1.705    -0.289    18.796     5.853
    42   6 C        3.642     0.035    20.333     6.483
    43   6 C        2.917    -0.066    29.653     8.930
    44   6 C        2.923    -0.048    29.191     8.860
    45   6 C        2.923     0.053    26.809     8.491
    46   6 C        2.923    -0.048    29.183     8.859
    47   6 C        2.916    -0.066    29.654     8.930
    48   6 C        2.863     0.136    25.019     8.199
    49   8 O        1.705    -0.288    18.790     5.853
    50   6 C        3.642     0.035    20.333     6.483
    51   6 C        2.920    -0.055    29.363     8.886
    52   6 C        2.921    -0.045    29.129     8.851
    53   6 C        2.920    -0.049    29.222     8.865
    54   6 C        2.923    -0.032    28.794     8.800
    55   6 C        2.929    -0.022    28.559     8.764
    56   6 C        2.972    -0.017    28.433     8.747
    57   6 C        2.831     0.221    23.342     7.917
    58   8 O        0.858    -0.424    22.158     6.311
    59   6 C        2.923    -0.031    28.776     8.797
    60   6 C        2.920    -0.049    29.208     8.863
    61   6 C        2.922    -0.046    29.142     8.853
    62   6 C        2.919    -0.055    29.365     8.886
    63   1 H        0.924     0.046     2.364     2.405
    64   1 H        0.924     0.047     2.364     2.404
    65   1 H        0.925     0.066     2.129     2.282
    66   1 H        0.926     0.045     2.388     2.416
    67   1 H        0.926     0.040     2.446     2.446
    68   1 H        0.926     0.040     2.448     2.447
    69   1 H        0.926     0.045     2.388     2.417
    70   1 H        0.924     0.046     2.366     2.405
    71   1 H        0.925     0.066     2.128     2.281
    72   1 H        0.924     0.047     2.362     2.404
    73   1 H        0.926     0.048     2.348     2.396
    74   1 H        0.926     0.043     2.413     2.429
    75   1 H        0.926     0.039     2.465     2.455
    76   1 H        0.926     0.041     2.431     2.438
    77   1 H        0.926     0.056     2.241     2.341
    78   1 H        0.926     0.058     2.217     2.328
    79   1 H        0.926     0.060     2.195     2.317
    80   1 H        0.926     0.058     2.228     2.334
    81   1 H        0.926     0.057     2.240     2.340
    82   1 H        0.926     0.040     2.449     2.447
    83   1 H        0.926     0.038     2.479     2.462
    84   1 H        0.926     0.043     2.404     2.424
    85   1 H        0.926     0.048     2.340     2.392
    86   1 H        0.925     0.066     2.126     2.280
    87   1 H        0.924     0.047     2.362     2.403
    88   1 H        0.924     0.047     2.360     2.402
    89   1 H        0.926     0.045     2.382     2.414
    90   1 H        0.926     0.040     2.442     2.444
    91   1 H        0.926     0.041     2.435     2.440
    92   1 H        0.926     0.045     2.383     2.414
    93   1 H        0.924     0.047     2.361     2.403
    94   1 H        0.924     0.047     2.363     2.404
    95   1 H        0.925     0.066     2.125     2.280
    96   1 H        0.926     0.048     2.339     2.392
    97   1 H        0.926     0.043     2.411     2.428
    98   1 H        0.926     0.039     2.460     2.453
    99   1 H        0.926     0.043     2.413     2.429
   100   1 H        0.926     0.061     2.187     2.312
   101   1 H        0.926     0.039     2.466     2.455
   102   1 H        0.926     0.037     2.482     2.464
   103   1 H        0.926     0.042     2.419     2.432
   104   1 H        0.926     0.047     2.351     2.398

molecular dipole:
                 x           y           z       tot (Debye)
 q only:        0.325       0.437       0.085
   full:        0.500       0.589       0.154       2.004

 projected vibrational frequencies (cm⁻¹)
eigval :       -0.00    -0.00    -0.00     0.00     0.00     0.00
eigval :        4.63     5.57    10.30    13.97    18.94    23.79
eigval :       25.78    28.01    32.84    38.34    42.07    43.09
eigval :       48.53    49.02    54.08    57.79    61.56    85.01
eigval :       86.88    91.25    92.37    99.95   103.33   110.08
eigval :      116.80   122.58   134.46   146.36   151.68   155.38
eigval :      156.97   159.60   168.23   173.84   200.99   204.52
eigval :      212.89   218.40   222.34   227.34   229.69   236.00
eigval :      238.14   240.81   259.21   262.63   281.81   301.93
eigval :      305.31   322.12   327.07   333.75   342.59   343.74
eigval :      346.98   364.02   368.71   377.63   380.18   384.90
eigval :      385.99   386.99   390.68   391.60   392.46   400.70
eigval :      403.31   409.53   425.03   434.00   437.55   449.81
eigval :      452.86   459.44   468.06   470.00   481.70   495.52
eigval :      498.47   504.52   506.64   510.26   521.66   535.27
eigval :      546.80   556.42   565.89   571.81   593.41   604.25
eigval :      604.53   606.61   609.00   613.78   614.75   621.75
eigval :      640.31   646.80   658.27   666.15   666.80   670.33
eigval :      672.95   674.51   678.93   682.11   692.75   706.10
eigval :      709.90   742.83   767.44   775.16   777.11   800.99
eigval :      804.41   804.80   805.17   810.78   812.50   813.22
eigval :      816.21   841.67   845.11   849.34   859.57   860.84
eigval :      861.39   861.96   864.68   868.10   893.52   897.14
eigval :      900.46   901.62   902.22   904.65   908.40   916.64
eigval :      917.30   919.17   920.77   921.02   922.32   925.32
eigval :      925.89   926.50   927.59   927.93   930.72   932.66
eigval :      944.66   975.33   999.57  1001.84  1017.46  1017.64
eigval :     1018.97  1021.35  1054.58  1054.76  1055.04  1055.29
eigval :     1075.17  1078.80  1093.38  1117.27  1117.47  1117.82
eigval :     1118.38  1127.27  1127.92  1128.30  1128.92  1131.63
eigval :     1142.18  1144.55  1154.95  1155.01  1155.23  1155.89
eigval :     1175.19  1182.75  1182.82  1185.28  1185.41  1188.09
eigval :     1188.56  1188.98  1198.83  1201.71  1218.16  1218.20
eigval :     1227.34  1237.52  1244.70  1247.01  1252.58  1259.87
eigval :     1265.76  1266.21  1269.00  1269.32  1271.29  1274.24
eigval :     1296.95  1303.59  1310.01  1314.09  1317.56  1324.58
eigval :     1326.80  1328.36  1334.68  1336.02  1338.60  1339.58
eigval :     1341.34  1345.38  1395.08  1395.17  1395.64  1396.12
eigval :     1397.19  1397.98  1410.28  1411.24  1420.74  1420.84
eigval :     1421.89  1424.01  1456.74  1459.05  1464.14  1464.58
eigval :     1464.88  1466.50  1470.02  1470.41  1472.17  1472.91
eigval :     1478.63  1479.06  1479.34  1479.77  1496.30  1497.43
eigval :     1534.78  1539.94  1546.52  1548.31  1551.11  1558.27
eigval :     1564.57  1565.07  1568.30  1568.43  1594.26  1594.56
eigval :     1602.44  1603.45  1603.66  1604.31  1615.42  1635.79
eigval :     2933.94  2934.30  2934.40  2934.59  2946.53  2946.84
eigval :     2947.01  2947.20  3023.47  3024.70  3024.79  3025.13
eigval :     3078.98  3080.68  3081.13  3082.09  3082.17  3083.46
eigval :     3084.55  3085.62  3086.27  3086.47  3086.50  3087.67
eigval :     3087.69  3088.95  3089.08  3089.59  3091.30  3092.98
eigval :     3093.17  3094.26  3095.14  3098.09  3102.71  3102.75
eigval :     3102.99  3103.75  3107.27  3107.58  3107.62  3108.00

   temp. (K)  partition function   enthalpy   heat capacity  entropy
                                   cal/mol     cal/K/mol   cal/K/mol   J/K/mol
 298.15  VIB  0.317E+28            32624.708    195.112    207.823
         ROT  0.403E+09              888.752      2.981     42.356
         INT  0.128E+37            33513.461    198.093    250.180
         TR   0.225E+29             1481.254      4.968     45.951
         TOT                       34994.7146   203.0611   296.1302  1239.0087

       T/K    H(0)-H(T)+PV         H(T)/Eh          T*S/Eh         G(T)/Eh
   ------------------------------------------------------------------------
    298.15    0.557676E-01    0.853560E+00    0.140701E+00    0.712859E+00
   ------------------------------------------------------------------------

         :::::::::::::::::::::::::::::::::::::::::::::::::::::
         ::                  THERMODYNAMIC                  ::
         :::::::::::::::::::::::::::::::::::::::::::::::::::::
         :: total free energy        -166.678520155378 Eh   ::
         ::.................................................::
         :: total energy             -167.391379647053 Eh   ::
         :: zero point energy           0.797792866297 Eh   ::
         :: G(RRHO) w/o ZPVE           -0.084933374622 Eh   ::
         :: G(RRHO) contrib.            0.712859491676 Eh   ::
         :::::::::::::::::::::::::::::::::::::::::::::::::::::

           -------------------------------------------------
          | TOTAL ENERGY             -167.391379647053 Eh   |
          | TOTAL ENTHALPY           -166.537819153355 Eh   |
          | TOTAL FREE ENERGY        -166.678520155378 Eh   |
          | GRADIENT NORM               0.000070956419 Eh/α |
          | HOMO-LUMO GAP               0.626450109661 eV   |
           -------------------------------------------------

 * finished run on 2025/07/17 at 04:11:14.882
