   * xtb version 6.7.1 (edcfbbe) compiled by 'albert@albert-system' on 2024-07-22

   ID    Z sym.   atoms
    1    6 C      1, 3-6, 8-11, 13-26, 28-35, 37-40, 42-48, 50-57, 59-62
    2    8 O      2, 12, 27, 41, 49, 58
    3    7 N      7, 36
    4    1 H      63-104

          program call               : xtb data2507/toluene/MPPA/MPPA_toluene_S0_crest.xyz --gfn 2 --gbsa toluene --ohess vtight --parallel 40 --molden --ceasefiles --namespace data2507/toluene/MPPA/MPPA_toluene_S0_finalOpt
      * Solvation model:               GBSA
        Solvent                        toluene
        Solvent mass                       9.2140E+01 g/mol
          :  Hamiltonian                  GFN2-xTB          :
 * total energy  :  -167.3918184 Eh     change       -0.4012264E-08 Eh
 * total energy  :  -167.3919598 Eh     change       -0.1413744E-03 Eh
 * total energy  :  -167.3920053 Eh     change       -0.4543358E-04 Eh
 * total energy  :  -167.3920126 Eh     change       -0.7358069E-05 Eh
 * total energy  :  -167.3920205 Eh     change       -0.7900796E-05 Eh
 * total energy  :  -167.3920270 Eh     change       -0.6517695E-05 Eh
 * total energy  :  -167.3920310 Eh     change       -0.3932507E-05 Eh
 * total energy  :  -167.3920350 Eh     change       -0.3993522E-05 Eh
 * total energy  :  -167.3920399 Eh     change       -0.4932748E-05 Eh
 * total energy  :  -167.3920459 Eh     change       -0.6040564E-05 Eh
 * total energy  :  -167.3920948 Eh     change       -0.4750011E-06 Eh
 * total energy  :  -167.3920953 Eh     change       -0.4051845E-06 Eh
 * total energy  :  -167.3920956 Eh     change       -0.3758178E-06 Eh
 * total energy  :  -167.3920959 Eh     change       -0.2768535E-06 Eh
 * total energy  :  -167.3920959 Eh     change       -0.2141832E-08 Eh
 * total energy  :  -167.3920962 Eh     change       -0.2515489E-06 Eh
 * total energy  :  -167.3920964 Eh     change       -0.2100284E-06 Eh
 * total energy  :  -167.3920965 Eh     change       -0.1673914E-06 Eh
 * total energy  :  -167.3920966 Eh     change       -0.1813257E-07 Eh
   *** GEOMETRY OPTIMIZATION CONVERGED AFTER 37 ITERATIONS ***

 final structure:
================
104
 xtb: 6.7.1 (edcfbbe)
C           12.70364327781399       -5.37956504592580       -0.58342946099143
O           12.87492715091166       -4.21494226558732        0.19454655891711
C           11.95293429753500       -3.21435973858005        0.08495781558448
C           10.83482711666703       -3.24293187055182       -0.74164035796211
C            9.96716955341495       -2.16584263874832       -0.77326387992832
C           10.18586783145472       -1.04593498108413        0.02265623519639
N            9.30302624023901        0.04620038197183       -0.01563341954914
C            9.83164195012784        1.34682062532338        0.01815291928601
C            9.21537197081008        2.34863730174798        0.76152026150644
C            9.73456998104464        3.63032962237353        0.79896334279225
C           10.89768356912658        3.93328005071833        0.09930296211242
O           11.49996227608544        5.15800650149221        0.06903557799370
C           10.91507850004937        6.21593593057767        0.79679149536271
C           11.52420661536810        2.92679529997886       -0.63912828476380
C           10.99836360268632        1.65527729655133       -0.68345161144521
C            7.93221822526507       -0.15807865710903       -0.07253815981535
C            7.34748493827319       -1.27533960690709        0.53392990472540
C            5.98637686750215       -1.47205314962365        0.47994009395469
C            5.14739040142341       -0.55979428972187       -0.16613398399959
C            3.69977261544883       -0.75879946913841       -0.19441047173017
C            3.14263803949339       -2.04068560453416       -0.27140008908028
C            1.77630613466542       -2.21692462784306       -0.27409091259206
C            0.90664586068931       -1.12748393779333       -0.19770419461743
C            1.45141355532873        0.16505964059388       -0.12931123909937
C            2.82939324568327        0.32988693068662       -0.13029085966331
C            0.59428043395606        1.36578873118117       -0.04989977322959
O            1.07127258347590        2.49529227303651       -0.00485090246264
C           -0.85404474772240        1.13007921827764       -0.02874438026913
C           -1.72228299533468        2.22016046386563        0.05385567977827
C           -3.08824236333027        2.04332822522154        0.07869326710626
C           -3.64484767050829        0.76019926737484        0.02741994266229
C           -5.09298224891234        0.56342677918826        0.05071022461399
C           -5.66282437465653       -0.52336713117151        0.71910199981689
C           -7.02671347447922       -0.70534061650307        0.75005902963779
C           -7.88213248361355        0.18486632953210        0.09077044420876
N           -9.25592824776479       -0.00115937445615        0.10945078593558
C          -10.12755885551243        1.09869807525300        0.03576109003943
C           -9.86160832107702        2.27035554156762        0.74677840886640
C          -10.72206868590101        3.34224331561436        0.67196656170421
C          -11.88023095235734        3.27526354523587       -0.10609630145872
O          -12.66307769427290        4.39341274630000       -0.10631791149527
C          -13.84592917225062        4.38969750564926       -0.87559651735328
C          -12.15449247081821        2.10557025382440       -0.80655129395250
C          -11.28216707261473        1.03395569119204       -0.73698753107359
C           -9.80593554696178       -1.29091011527925        0.19699492858051
C           -9.25472574784661       -2.35377631454085       -0.51165693693378
C           -9.79682396080230       -3.62392500221425       -0.42750462545493
C          -10.91751563823695       -3.85373482660737        0.36327983531168
O          -11.53590322722404       -5.06081353700195        0.51838993485868
C          -11.00773982192948       -6.18217207172702       -0.15586643283708
C          -11.47989311064488       -2.78592866132200        1.06648774664865
C          -10.93097265009598       -1.52585257613343        0.98928756098698
C           -7.31416139122643        1.26856392911564       -0.58866784519560
C           -5.95075932041225        1.45619247896147       -0.59714283760875
C           -2.77655546510422       -0.32882174900539       -0.05270363043680
C           -1.39881978314062       -0.16312768084583       -0.08570278377190
C           -0.54199278846013       -1.36257935655726       -0.18724928524759
O           -1.01916874537946       -2.49091457523618       -0.25494625065395
C            5.73580688977761        0.55424958319200       -0.77143515655868
C            7.09759669055106        0.74956019763252       -0.73433767669888
C           11.30906035033098       -1.02112960286901        0.85094095179184
C           12.17976662199901       -2.08709198163436        0.87794490797004
H           12.73238911368967       -5.15311901477755       -1.65367515771596
H           13.54170197028290       -6.02606040056030       -0.32809500569758
H           11.76561485622386       -5.88801526691512       -0.34038247952125
H           10.63077365393945       -4.09244578132792       -1.37355391907957
H            9.10790552888174       -2.19475263308581       -1.42690761513190
H            8.31846259918849        2.12354265170742        1.31951571304820
H            9.22610750318625        4.37871260413776        1.38549614425848
H           10.88861060064605        5.99672307175304        1.86862983822037
H            9.90333665790470        6.43410549648740        0.44147362640715
H           11.55428373734013        7.07949158653841        0.61997615298552
H           12.42487605650039        3.17233767111002       -1.17984975043993
H           11.49006036424672        0.88888064668872       -1.26350082355281
H            7.97392534230373       -1.97862436997448        1.06215151631879
H            5.55843138447648       -2.32467141029452        0.98560752140155
H            3.79035231767842       -2.90066612704382       -0.34837297636794
H            1.34431542512469       -3.20552441691830       -0.33644481127201
H            3.21237842897854        1.33715179010303       -0.05264010677273
H           -1.28941883429278        3.20913210058068        0.10241776542893
H           -3.73607412562221        2.90281433854618        0.16080514315659
H           -5.02674445279293       -1.21239779107968        1.25463222553246
H           -7.44650755706903       -1.53615888901411        1.29732877874272
H           -8.97572420889491        2.33249743613607        1.36088749192419
H          -10.52325778148044        4.25076252687202        1.21879262473640
H          -14.29616165964856        5.36912785699414       -0.72198698094825
H          -13.63001737533911        4.25183864545320       -1.93951714803364
H          -14.53975109303333        3.61379219267660       -0.53796963086597
H          -13.03876607809906        2.01637882500846       -1.41698683503192
H          -11.50204685429559        0.13261171525967       -1.28971614023553
H           -8.39073424475642       -2.18615283297538       -1.13771116834767
H           -9.33922765838492       -4.42152205025649       -0.99066873763790
H          -11.04052661431332       -6.04816680909190       -1.24146283478757
H           -9.97997880133391       -6.38925454270145        0.15758541968287
H          -11.64682897372791       -7.01785106203194        0.12465277660176
H          -12.34821001591497       -2.97519331328966        1.67814516909576
H          -11.37055557167275       -0.71092986522808        1.54463805445018
H           -7.95548133141134        1.95621760723582       -1.11943407697266
H           -5.53718887333610        2.28553959304755       -1.15128903460344
H           -3.16238761728398       -1.33608354543459       -0.11657332930063
H            5.11756809752633        1.25768221224476       -1.30895291205989
H            7.53298134030086        1.60613709012137       -1.22718579159477
H           11.49339790238691       -0.15824033943539        1.47306102556803
H           13.04921787811197       -2.07577016173848        1.51655458058845

          :  Hamiltonian                  GFN2-xTB          :
         :: gradient norm              0.000103465705 Eh/a0 ::
         :: HOMO-LUMO gap              0.648392336901 eV    ::
         :: SCC energy              -170.099568222826 Eh    ::
         :: -> dispersion             -0.134168549613 Eh    ::
         :: -> Gsolv                  -0.076392170668 Eh    ::
         :: repulsion energy           2.707471670638 Eh    ::

    * Orbital Energies and Occupations

         #    Occupation            Energy/Eh            Energy/eV
      -------------------------------------------------------------
         1        2.0000           -0.7184269             -19.5494
       ...           ...                  ...                  ...
       140        2.0000           -0.4125713             -11.2266
       141        2.0000           -0.4100640             -11.1584
       142        2.0000           -0.4095960             -11.1457
       143        2.0000           -0.4092822             -11.1371
       144        2.0000           -0.4091117             -11.1325
       145        2.0000           -0.4074633             -11.0876
       146        2.0000           -0.3931713             -10.6987
       147        2.0000           -0.3926361             -10.6842
       148        2.0000           -0.3889059             -10.5827
       149        2.0000           -0.3864548             -10.5160
       150        2.0000           -0.3859848             -10.5032
       151        2.0000           -0.3469059              -9.4398
       152        2.0000           -0.3465314              -9.4296 (HOMO)
       153        0.0000           -0.3227033              -8.7812 (LUMO)
       154                         -0.2777808              -7.5588
       155                         -0.2542142              -6.9175
       156                         -0.2483710              -6.7585
       157                         -0.2316374              -6.3032
       158                         -0.2315895              -6.3019
       159                         -0.2277591              -6.1976
       160                         -0.2272437              -6.1836
       161                         -0.2262468              -6.1565
       162                         -0.2254604              -6.1351
       163                         -0.2252008              -6.1280
       ...                                ...                  ...
       290                          0.7229765              19.6732
      -------------------------------------------------------------
                  HL-Gap            0.0238281 Eh            0.6484 eV

     #   Z          covCN         q      C6AA      α(0)
     1   6 C        3.642     0.035    20.335     6.483
     2   8 O        1.705    -0.288    18.790     5.853
     3   6 C        2.863     0.137    25.016     8.198
     4   6 C        2.916    -0.067    29.658     8.930
     5   6 C        2.923    -0.048    29.181     8.859
     6   6 C        2.923     0.053    26.810     8.491
     7   7 N        2.751    -0.064    22.474     7.041
     8   6 C        2.923     0.053    26.809     8.491
     9   6 C        2.923    -0.048    29.186     8.859
    10   6 C        2.917    -0.067    29.656     8.930
    11   6 C        2.863     0.136    25.021     8.199
    12   8 O        1.705    -0.288    18.792     5.853
    13   6 C        3.642     0.035    20.332     6.483
    14   6 C        2.920    -0.055    29.362     8.886
    15   6 C        2.922    -0.046    29.132     8.851
    16   6 C        2.922     0.067    26.502     8.442
    17   6 C        2.920    -0.050    29.239     8.867
    18   6 C        2.923    -0.032    28.798     8.800
    19   6 C        2.975    -0.001    28.039     8.686
    20   6 C        2.973     0.024    27.461     8.596
    21   6 C        2.922    -0.030    28.737     8.791
    22   6 C        2.921    -0.017    28.423     8.743
    23   6 C        2.974    -0.023    28.571     8.768
    24   6 C        2.972    -0.017    28.432     8.746
    25   6 C        2.929    -0.022    28.559     8.764
    26   6 C        2.831     0.221    23.355     7.919
    27   8 O        0.858    -0.426    22.203     6.318
    28   6 C        2.974    -0.023    28.571     8.768
    29   6 C        2.921    -0.016    28.421     8.742
    30   6 C        2.922    -0.029    28.733     8.790
    31   6 C        2.973     0.024    27.458     8.595
    32   6 C        2.975    -0.001    28.046     8.687
    33   6 C        2.923    -0.031    28.779     8.797
    34   6 C        2.920    -0.050    29.239     8.867
    35   6 C        2.921     0.067    26.502     8.442
    36   7 N        2.751    -0.064    22.474     7.041
    37   6 C        2.924     0.053    26.811     8.491
    38   6 C        2.921    -0.045    29.120     8.849
    39   6 C        2.920    -0.055    29.365     8.886
    40   6 C        2.863     0.137    25.014     8.198
    41   8 O        1.705    -0.288    18.787     5.852
    42   6 C        3.642     0.035    20.336     6.483
    43   6 C        2.917    -0.066    29.653     8.930
    44   6 C        2.923    -0.047    29.178     8.858
    45   6 C        2.923     0.053    26.810     8.491
    46   6 C        2.923    -0.048    29.181     8.859
    47   6 C        2.916    -0.067    29.657     8.930
    48   6 C        2.863     0.136    25.019     8.199
    49   8 O        1.705    -0.288    18.791     5.853
    50   6 C        3.642     0.035    20.333     6.483
    51   6 C        2.919    -0.055    29.363     8.886
    52   6 C        2.922    -0.045    29.129     8.851
    53   6 C        2.920    -0.050    29.249     8.869
    54   6 C        2.923    -0.032    28.797     8.800
    55   6 C        2.929    -0.022    28.556     8.764
    56   6 C        2.972    -0.017    28.432     8.746
    57   6 C        2.831     0.221    23.356     7.919
    58   8 O        0.858    -0.426    22.205     6.318
    59   6 C        2.923    -0.031    28.778     8.797
    60   6 C        2.920    -0.049    29.225     8.865
    61   6 C        2.922    -0.045    29.122     8.850
    62   6 C        2.920    -0.055    29.359     8.885
    63   1 H        0.924     0.047     2.360     2.402
    64   1 H        0.925     0.066     2.125     2.280
    65   1 H        0.924     0.047     2.359     2.402
    66   1 H        0.926     0.046     2.375     2.410
    67   1 H        0.926     0.042     2.422     2.434
    68   1 H        0.926     0.041     2.434     2.439
    69   1 H        0.926     0.045     2.385     2.415
    70   1 H        0.924     0.047     2.362     2.403
    71   1 H        0.924     0.047     2.363     2.404
    72   1 H        0.925     0.066     2.125     2.280
    73   1 H        0.926     0.048     2.340     2.392
    74   1 H        0.926     0.043     2.413     2.429
    75   1 H        0.926     0.039     2.467     2.456
    76   1 H        0.926     0.042     2.427     2.436
    77   1 H        0.926     0.056     2.247     2.344
    78   1 H        0.926     0.057     2.229     2.335
    79   1 H        0.926     0.060     2.195     2.317
    80   1 H        0.926     0.058     2.228     2.334
    81   1 H        0.926     0.056     2.247     2.344
    82   1 H        0.926     0.038     2.469     2.457
    83   1 H        0.926     0.038     2.481     2.463
    84   1 H        0.926     0.044     2.395     2.420
    85   1 H        0.926     0.049     2.335     2.390
    86   1 H        0.925     0.067     2.124     2.279
    87   1 H        0.924     0.047     2.360     2.403
    88   1 H        0.924     0.047     2.358     2.402
    89   1 H        0.926     0.045     2.379     2.412
    90   1 H        0.926     0.041     2.442     2.444
    91   1 H        0.926     0.042     2.428     2.437
    92   1 H        0.926     0.045     2.383     2.414
    93   1 H        0.924     0.047     2.361     2.403
    94   1 H        0.924     0.047     2.363     2.404
    95   1 H        0.925     0.066     2.125     2.279
    96   1 H        0.926     0.048     2.340     2.392
    97   1 H        0.926     0.043     2.414     2.430
    98   1 H        0.926     0.039     2.467     2.456
    99   1 H        0.926     0.041     2.433     2.439
   100   1 H        0.926     0.060     2.198     2.318
   101   1 H        0.926     0.039     2.461     2.453
   102   1 H        0.926     0.038     2.479     2.462
   103   1 H        0.926     0.042     2.416     2.431
   104   1 H        0.926     0.048     2.340     2.392

molecular dipole:
                 x           y           z       tot (Debye)
 q only:       -0.564      -0.484      -0.500
   full:       -0.713      -0.610      -0.656       2.911

 projected vibrational frequencies (cm⁻¹)
eigval :       -0.00    -0.00     0.00     0.00     0.00     0.00
eigval :        5.22     8.03     9.07    14.65    19.84    25.09
eigval :       27.67    28.68    30.81    34.54    40.36    44.04
eigval :       48.83    53.56    56.26    59.10    61.63    76.88
eigval :       86.91    91.64    96.10   102.60   105.00   109.30
eigval :      113.69   124.93   134.89   144.67   154.66   156.65
eigval :      160.35   161.32   169.69   180.60   188.99   200.61
eigval :      209.97   215.04   222.66   227.68   233.06   236.07
eigval :      237.92   246.31   262.62   276.58   285.65   297.46
eigval :      305.32   314.11   322.36   333.98   338.99   346.15
eigval :      346.60   366.50   370.53   379.40   384.38   386.35
eigval :      387.77   388.89   392.66   393.50   395.13   402.30
eigval :      407.10   410.15   423.38   432.37   437.30   447.34
eigval :      455.31   464.29   465.99   470.42   482.34   496.14
eigval :      497.98   505.07   506.91   509.19   521.74   537.63
eigval :      542.92   551.59   566.52   572.58   590.69   604.33
eigval :      605.86   609.24   611.11   612.32   617.55   621.76
eigval :      639.44   646.63   657.18   667.45   668.53   671.67
eigval :      674.38   675.11   679.53   681.97   693.08   704.95
eigval :      710.17   741.98   767.63   777.18   778.21   800.05
eigval :      803.88   804.58   804.95   810.94   811.51   813.04
eigval :      814.65   840.47   845.08   847.36   859.09   859.94
eigval :      860.23   860.75   862.97   863.24   893.30   895.90
eigval :      900.74   901.80   903.28   904.20   908.16   915.08
eigval :      915.42   917.86   918.82   919.36   921.27   924.36
eigval :      924.68   925.32   927.71   927.89   929.29   931.23
eigval :      944.48   975.21   999.43  1001.46  1017.59  1018.20
eigval :     1018.38  1020.74  1054.32  1054.52  1054.94  1055.00
eigval :     1075.48  1078.25  1093.92  1116.91  1117.08  1117.10
eigval :     1118.67  1125.55  1126.09  1127.21  1128.16  1131.59
eigval :     1144.27  1145.81  1152.91  1153.15  1154.38  1154.71
eigval :     1174.74  1182.90  1183.07  1184.33  1184.47  1187.21
eigval :     1187.38  1188.25  1201.38  1201.87  1217.43  1217.49
eigval :     1226.90  1236.33  1245.37  1247.09  1252.58  1260.13
eigval :     1264.80  1265.18  1268.06  1268.73  1273.14  1273.97
eigval :     1298.16  1304.20  1311.28  1314.03  1316.17  1320.77
eigval :     1326.98  1329.08  1335.94  1338.41  1338.99  1339.48
eigval :     1341.54  1346.25  1393.99  1394.57  1394.85  1395.04
eigval :     1396.73  1398.51  1410.94  1411.07  1420.74  1420.83
eigval :     1423.89  1424.24  1457.06  1459.46  1463.00  1464.79
eigval :     1464.88  1464.92  1469.60  1470.09  1472.22  1472.86
eigval :     1478.68  1479.02  1479.18  1480.05  1497.13  1498.24
eigval :     1534.67  1538.98  1547.02  1547.75  1548.11  1557.13
eigval :     1563.95  1564.68  1568.33  1568.90  1594.43  1594.65
eigval :     1602.23  1602.97  1603.60  1603.63  1614.02  1634.58
eigval :     2934.46  2934.95  2934.98  2935.07  2947.06  2947.56
eigval :     2947.67  2947.69  3023.90  3024.51  3024.93  3025.29
eigval :     3079.41  3079.77  3081.13  3081.33  3082.56  3082.57
eigval :     3084.61  3085.07  3085.67  3085.85  3086.74  3087.64
eigval :     3088.14  3088.53  3088.83  3090.11  3091.62  3091.68
eigval :     3093.69  3093.76  3095.37  3095.83  3102.83  3103.37
eigval :     3103.37  3104.15  3107.22  3107.87  3108.16  3108.41

   temp. (K)  partition function   enthalpy   heat capacity  entropy
                                   cal/mol     cal/K/mol   cal/K/mol   J/K/mol
 298.15  VIB  0.178E+28            32593.500    195.149    207.125
         ROT  0.404E+09              888.752      2.981     42.364
         INT  0.720E+36            33482.252    198.130    249.489
         TR   0.225E+29             1481.254      4.968     45.951
         TOT                       34963.5058   203.0984   295.4396  1236.1192

       T/K    H(0)-H(T)+PV         H(T)/Eh          T*S/Eh         G(T)/Eh
   ------------------------------------------------------------------------
    298.15    0.557179E-01    0.853492E+00    0.140373E+00    0.713120E+00
   ------------------------------------------------------------------------

         :::::::::::::::::::::::::::::::::::::::::::::::::::::
         ::                  THERMODYNAMIC                  ::
         :::::::::::::::::::::::::::::::::::::::::::::::::::::
         :: total free energy        -166.678977017255 Eh   ::
         ::.................................................::
         :: total energy             -167.392096549960 Eh   ::
         :: zero point energy           0.797774517117 Eh   ::
         :: G(RRHO) w/o ZPVE           -0.084654984412 Eh   ::
         :: G(RRHO) contrib.            0.713119532705 Eh   ::
         :::::::::::::::::::::::::::::::::::::::::::::::::::::

           -------------------------------------------------
          | TOTAL ENERGY             -167.392096549960 Eh   |
          | TOTAL ENTHALPY           -166.538604139710 Eh   |
          | TOTAL FREE ENERGY        -166.678977017255 Eh   |
          | GRADIENT NORM               0.000103444572 Eh/α |
          | HOMO-LUMO GAP               0.648395006259 eV   |
           -------------------------------------------------

 * finished run on 2025/07/17 at 04:33:52.095
