   * xtb version 6.7.1 (edcfbbe) compiled by 'albert@albert-system' on 2024-07-22

   ID    Z sym.   atoms
    1    8 O      1
    2    6 C      2-19, 21-28
    3   35 Br     20
    4    1 H      29-45

          program call               : xtb data2507/toluene/DphAn-Br/DphAn-Br.xyz --gfn 2 --gbsa toluene --ohess vtight --parallel 40 --molden --ceasefiles --namespace data2507/toluene/DphAn-Br/DphAn-Br_toluene_S0_preOpt
      * Solvation model:               GBSA
        Solvent                        toluene
        Solvent mass                       9.2140E+01 g/mol
          :  Hamiltonian                  GFN2-xTB          :
 * total energy  :   -72.4954061 Eh     change       -0.1144244E-08 Eh
 * total energy  :   -72.5062899 Eh     change       -0.1088382E-01 Eh
 * total energy  :   -72.5099835 Eh     change       -0.3693622E-02 Eh
 * total energy  :   -72.5104965 Eh     change       -0.5130082E-03 Eh
 * total energy  :   -72.5106088 Eh     change       -0.1122513E-03 Eh
 * total energy  :   -72.5106268 Eh     change       -0.1805108E-04 Eh
 * total energy  :   -72.5106324 Eh     change       -0.5567793E-05 Eh
 * total energy  :   -72.5106355 Eh     change       -0.3116082E-05 Eh
 * total energy  :   -72.5106388 Eh     change       -0.3221414E-05 Eh
 * total energy  :   -72.5106385 Eh     change        0.2823677E-06 Eh
 * total energy  :   -72.5113980 Eh     change       -0.1275806E-05 Eh
 * total energy  :   -72.5113994 Eh     change       -0.1428003E-05 Eh
 * total energy  :   -72.5114007 Eh     change       -0.1261683E-05 Eh
 * total energy  :   -72.5114016 Eh     change       -0.8930719E-06 Eh
 * total energy  :   -72.5114022 Eh     change       -0.6353194E-06 Eh
 * total energy  :   -72.5114026 Eh     change       -0.3791125E-06 Eh
 * total energy  :   -72.5114026 Eh     change       -0.2500704E-07 Eh
 * total energy  :   -72.5114027 Eh     change       -0.1407546E-06 Eh
 * total energy  :   -72.5114028 Eh     change       -0.9232627E-07 Eh
   *** GEOMETRY OPTIMIZATION CONVERGED AFTER 123 ITERATIONS ***

 final structure:
================
45
 xtb: 6.7.1 (edcfbbe)
O            3.10121814078432        2.20952857024574        1.31979644360400
C            2.36132834223011        1.40937848060221        0.76303821318675
C            2.13111349484980        0.05039511754279        1.28529412822745
C            3.04977257104462       -0.48458203116464        2.18911758136326
C            2.88205381371968       -1.75975608225959        2.68773570044236
C            1.77962944934434       -2.50408663222431        2.29416530735757
C            0.85719130291406       -1.97555431495146        1.40770224622423
C            1.02405888102451       -0.70085231120307        0.87955279334931
C           -0.01201321822896       -0.10196022780815       -0.05072407180004
C           -0.63628685005104       -1.22893969619728       -0.86339859115056
C            0.15266218823501       -1.86126918292369       -1.82070654121479
C           -0.34926128288533       -2.91057531240284       -2.56744127279494
C           -1.64692730216306       -3.35134752469657       -2.36215378838278
C           -2.43069663946888       -2.74109316696643       -1.39925926580399
C           -1.92839143292705       -1.68842667898501       -0.65062218610034
C           -1.05307262576614        0.67461082254084        0.76088954100215
C           -0.99604187579131        0.76281143947421        2.14616192759519
C           -1.93598218047482        1.49338965500392        2.85422844436806
C           -2.94578140851310        2.14148424904646        2.16923119049462
Br          -4.25125156479363        3.15350015373185        3.14091681039926
C           -3.02857849312756        2.06878974924109        0.78961851303330
C           -2.08116206955063        1.33971133394200        0.09695750957527
C            0.62070507065126        0.93072370931560       -0.96807591543691
C            0.09547354006289        1.19859023364325       -2.22675778728006
C            0.61757537602930        2.20852866328366       -3.01609725009602
C            1.66963736988713        2.98679804461944       -2.55691258650511
C            2.20657177693881        2.72864618626301       -1.31330237020935
C            1.69672934575893        1.70092187930429       -0.51865037232244
H            3.89106700022969        0.12756991727311        2.48083200035952
H            3.59960824974196       -2.17055033951186        3.38183115719445
H            1.63385182595970       -3.50089212436743        2.68303236082479
H           -0.00302116716470       -2.56226384145142        1.12334389366933
H            1.16703679094494       -1.52331770652774       -1.97944691095160
H            0.27438271186294       -3.38672883556375       -3.30979941070293
H           -2.04147837050510       -4.17001864151620       -2.94571737410358
H           -3.43970841374811       -3.08491753099586       -1.22365663417554
H           -2.55023342609589       -1.23186874603629        0.10492515307702
H           -0.21724834238360        0.26070311658227        2.69803316016112
H           -1.87747484418677        1.55354512709664        3.93018322291339
H           -3.82136990293594        2.57656507424429        0.26222688789366
H           -2.15231263448090        1.28842556602218       -0.97741093506908
H           -0.71769394410750        0.59913714554808       -2.60802811050729
H            0.19896332236726        2.38964353225750       -3.99498698926615
H            2.06938080867251        3.78168966336109       -3.16809555920301
H            3.03597561609505        3.30391349756902       -0.92757126323804

          :  Hamiltonian                  GFN2-xTB          :
         :: gradient norm              0.000065990937 Eh/a0 ::
         :: HOMO-LUMO gap              2.568718741382 eV    ::
         :: SCC energy               -73.774541078638 Eh    ::
         :: -> dispersion             -0.066040296248 Eh    ::
         :: -> Gsolv                  -0.034314949853 Eh    ::
         :: repulsion energy           1.263138238207 Eh    ::

    * Orbital Energies and Occupations

         #    Occupation            Energy/Eh            Energy/eV
      -------------------------------------------------------------
         1        2.0000           -0.8412979             -22.8929
       ...           ...                  ...                  ...
        55        2.0000           -0.4350000             -11.8370
        56        2.0000           -0.4299423             -11.6993
        57        2.0000           -0.4270428             -11.6204
        58        2.0000           -0.4233192             -11.5191
        59        2.0000           -0.4213452             -11.4654
        60        2.0000           -0.4202483             -11.4355
        61        2.0000           -0.4172646             -11.3543
        62        2.0000           -0.4139366             -11.2638
        63        2.0000           -0.4115692             -11.1994
        64        2.0000           -0.4103748             -11.1669
        65        2.0000           -0.4041172             -10.9966
        66        2.0000           -0.4002053             -10.8901
        67        2.0000           -0.3923151             -10.6754 (HOMO)
        68                         -0.2979164              -8.1067 (LUMO)
        69                         -0.2531764              -6.8893
        70                         -0.2465647              -6.7094
        71                         -0.2402406              -6.5373
        72                         -0.2379899              -6.4760
        73                         -0.2346595              -6.3854
        74                         -0.2308779              -6.2825
        75                         -0.2281035              -6.2070
        76                         -0.2086534              -5.6777
        77                         -0.1880574              -5.1173
        78                         -0.1235681              -3.3625
       ...                                ...                  ...
       134                          0.6875253              18.7085
      -------------------------------------------------------------
                  HL-Gap            0.0943986 Eh            2.5687 eV

     #   Z          covCN         q      C6AA      α(0)
     1   8 O        0.857    -0.433    22.348     6.338
     2   6 C        2.833     0.227    23.244     7.900
     3   6 C        2.979    -0.022    28.548     8.764
     4   6 C        2.924    -0.018    28.466     8.750
     5   6 C        2.916    -0.028    28.709     8.786
     6   6 C        2.920    -0.021    28.540     8.761
     7   6 C        2.922    -0.033    28.812     8.802
     8   6 C        2.982     0.017    27.622     8.621
     9   6 C        3.920     0.009    20.370     6.415
    10   6 C        2.978     0.014    27.693     8.632
    11   6 C        2.925    -0.032    28.802     8.801
    12   6 C        2.919    -0.029    28.715     8.787
    13   6 C        2.919    -0.030    28.759     8.794
    14   6 C        2.920    -0.029    28.732     8.790
    15   6 C        2.922    -0.036    28.890     8.814
    16   6 C        2.981     0.020    27.565     8.612
    17   6 C        2.926    -0.033    28.832     8.806
    18   6 C        2.984    -0.033    28.821     8.806
    19   6 C        2.917     0.082    26.162     8.388
    20  35 Br       1.053    -0.194   190.447    22.251
    21   6 C        2.983    -0.034    28.831     8.808
    22   6 C        2.928    -0.032    28.794     8.800
    23   6 C        2.987     0.017    27.615     8.620
    24   6 C        2.922    -0.032    28.808     8.802
    25   6 C        2.920    -0.022    28.544     8.761
    26   6 C        2.916    -0.029    28.714     8.787
    27   6 C        2.925    -0.018    28.461     8.749
    28   6 C        2.980    -0.024    28.588     8.771
    29   1 H        0.926     0.048     2.342     2.393
    30   1 H        0.926     0.047     2.363     2.404
    31   1 H        0.926     0.049     2.327     2.385
    32   1 H        0.926     0.047     2.357     2.401
    33   1 H        0.926     0.030     2.590     2.517
    34   1 H        0.926     0.036     2.503     2.474
    35   1 H        0.926     0.036     2.504     2.474
    36   1 H        0.926     0.036     2.504     2.475
    37   1 H        0.926     0.034     2.537     2.491
    38   1 H        0.926     0.047     2.358     2.401
    39   1 H        0.926     0.055     2.260     2.351
    40   1 H        0.926     0.059     2.209     2.324
    41   1 H        0.926     0.060     2.199     2.319
    42   1 H        0.926     0.048     2.340     2.392
    43   1 H        0.926     0.050     2.316     2.380
    44   1 H        0.926     0.047     2.362     2.403
    45   1 H        0.926     0.048     2.343     2.394

molecular dipole:
                 x           y           z       tot (Debye)
 q only:       -0.397      -1.904      -1.575
   full:       -0.082      -2.077      -1.726       6.867

 projected vibrational frequencies (cm⁻¹)
eigval :       -0.00    -0.00    -0.00    -0.00     0.00     0.00
eigval :       15.13    22.83    36.37    52.15    57.74    63.26
eigval :       70.41   113.14   121.62   131.69   169.81   187.92
eigval :      201.16   237.44   244.43   254.77   291.36   299.38
eigval :      316.74   325.62   352.65   365.15   367.83   373.53
eigval :      396.91   407.10   435.76   471.91   472.81   495.00
eigval :      510.13   551.33   588.18   595.58   602.75   613.77
eigval :      624.05   630.13   655.03   671.26   676.30   684.48
eigval :      697.66   739.00   745.99   757.45   779.04   799.11
eigval :      804.38   864.01   879.22   885.34   893.92   895.43
eigval :      903.68   907.88   909.83   914.69   922.44   922.99
eigval :      928.83   930.18   933.06   933.86   936.73   951.13
eigval :      985.74   999.13  1086.42  1093.40  1094.88  1098.61
eigval :     1102.02  1113.98  1125.23  1147.26  1172.77  1177.03
eigval :     1179.35  1183.07  1190.92  1201.29  1206.71  1210.45
eigval :     1220.76  1234.06  1252.49  1257.82  1270.68  1273.36
eigval :     1286.41  1313.50  1318.06  1322.13  1329.41  1394.56
eigval :     1422.94  1425.11  1431.40  1451.17  1456.20  1464.36
eigval :     1472.59  1566.47  1573.21  1576.03  1578.66  1584.35
eigval :     1587.02  1587.91  1598.61  1652.48  3070.47  3073.02
eigval :     3079.28  3079.93  3080.10  3082.12  3083.55  3087.77
eigval :     3089.34  3093.44  3094.19  3095.58  3097.26  3097.82
eigval :     3100.15  3109.76  3116.76

   temp. (K)  partition function   enthalpy   heat capacity  entropy
                                   cal/mol     cal/K/mol   cal/K/mol   J/K/mol
 298.15  VIB  0.136E+10            12445.717     80.341     76.413
         ROT  0.191E+08              888.752      2.981     36.294
         INT  0.260E+17            13334.469     83.322    112.707
         TR   0.849E+28             1481.254      4.968     44.013
         TOT                       14815.7233    88.2898   156.7205   655.7186

       T/K    H(0)-H(T)+PV         H(T)/Eh          T*S/Eh         G(T)/Eh
   ------------------------------------------------------------------------
    298.15    0.236104E-01    0.361670E+00    0.744630E-01    0.287207E+00
   ------------------------------------------------------------------------

         :::::::::::::::::::::::::::::::::::::::::::::::::::::
         ::                  THERMODYNAMIC                  ::
         :::::::::::::::::::::::::::::::::::::::::::::::::::::
         :: total free energy         -72.224195772447 Eh   ::
         ::.................................................::
         :: total energy              -72.511402840363 Eh   ::
         :: zero point energy           0.338059680500 Eh   ::
         :: G(RRHO) w/o ZPVE           -0.050852612584 Eh   ::
         :: G(RRHO) contrib.            0.287207067916 Eh   ::
         :::::::::::::::::::::::::::::::::::::::::::::::::::::

           -------------------------------------------------
          | TOTAL ENERGY              -72.511402840363 Eh   |
          | TOTAL ENTHALPY            -72.149732801987 Eh   |
          | TOTAL FREE ENERGY         -72.224195772447 Eh   |
          | GRADIENT NORM               0.000065933769 Eh/α |
          | HOMO-LUMO GAP               2.568717845936 eV   |
           -------------------------------------------------

 * finished run on 2025/09/04 at 14:46:43.643
