   * xtb version 6.7.1 (edcfbbe) compiled by 'albert@albert-system' on 2024-07-22

   ID    Z sym.   atoms
    1    8 O      1
    2    6 C      2-19, 21-28
    3   35 Br     20
    4    1 H      29-45

          program call               : xtb data2507/toluene/DphAn-Br/DphAn-Br_toluene_T1_crest.xyz --gfn 2 --uhf 2 --gbsa toluene --ohess vtight --parallel 40 --molden --ceasefiles --namespace data2507/toluene/DphAn-Br/DphAn-Br_toluene_T1_finalOpt
      * Solvation model:               GBSA
        Solvent                        toluene
        Solvent mass                       9.2140E+01 g/mol
          :  Hamiltonian                  GFN2-xTB          :
 * total energy  :   -72.4184139 Eh     change       -0.1874611E-08 Eh
 * total energy  :   -72.4185004 Eh     change       -0.8651187E-04 Eh
 * total energy  :   -72.4185204 Eh     change       -0.2005506E-04 Eh
 * total energy  :   -72.4185241 Eh     change       -0.3690492E-05 Eh
 * total energy  :   -72.4185229 Eh     change        0.1278550E-05 Eh
 * total energy  :   -72.4185260 Eh     change       -0.3120341E-05 Eh
 * total energy  :   -72.4185271 Eh     change       -0.1099331E-05 Eh
 * total energy  :   -72.4185281 Eh     change       -0.1073363E-05 Eh
 * total energy  :   -72.4185289 Eh     change       -0.7166163E-06 Eh
 * total energy  :   -72.4185293 Eh     change       -0.4508970E-06 Eh
 * total energy  :   -72.4185296 Eh     change       -0.2801962E-06 Eh
 * total energy  :   -72.4185297 Eh     change       -0.1472715E-06 Eh
 * total energy  :   -72.4185298 Eh     change       -0.1057880E-06 Eh
 * total energy  :   -72.4185300 Eh     change       -0.1110937E-06 Eh
 * total energy  :   -72.4185301 Eh     change       -0.1474160E-06 Eh
 * total energy  :   -72.4185303 Eh     change       -0.1570892E-06 Eh
 * total energy  :   -72.4185304 Eh     change       -0.1219632E-06 Eh
 * total energy  :   -72.4185305 Eh     change       -0.8976174E-07 Eh
   *** GEOMETRY OPTIMIZATION CONVERGED AFTER 18 ITERATIONS ***

 final structure:
================
45
 xtb: 6.7.1 (edcfbbe)
O            1.71464585050628        3.82865770239910       -0.10420991528476
C            1.74630639130743        2.56818100618304       -0.08490696708989
C            1.88179498491310        1.81325522979548        1.14305022294931
C            2.20061436125535        2.52005351312903        2.31916338145906
C            2.48391933165465        1.83579370772559        3.47717395087178
C            2.41840441134623        0.44734402892170        3.50601902858460
C            2.05169264572357       -0.25094260728859        2.36620769588973
C            1.75594987474338        0.41492134987484        1.18546891799042
C            1.17134463709369       -0.34123368395036        0.00578293447713
C            1.66574158115748       -1.77181498442803        0.02073996545288
C            3.03583617683510       -1.99635525587953       -0.13096702221066
C            3.54543718885271       -3.27941183113887       -0.10902438772635
C            2.69585970680591       -4.36155967908702        0.07042069519601
C            1.33662774959901       -4.14738594275298        0.23272532912124
C            0.82316502175659       -2.86179142944049        0.21025307912981
C           -0.35670614726232       -0.25693954752665        0.04499392958744
C           -1.03861682524484        0.14480381525170        1.18733427722795
C           -2.42014441740522        0.23168693051663        1.20015719249985
C           -3.12829545998399       -0.09013071481686        0.05737665874997
Br          -5.04018976717276        0.03697313844368        0.06220824699453
C           -2.47562749800432       -0.50366650105787       -1.09129622453034
C           -1.09616555312142       -0.58300060753003       -1.08898903315662
C            1.61664929819656        0.36949986042269       -1.26459296226582
C            1.79261362260668       -0.33963570596414       -2.44359708430244
C            1.99972092296663        0.31853028210457       -3.64599871169566
C            2.02211814282462        1.70777932498074       -3.68094387571743
C            1.86980080955965        2.43343783083679       -2.52412035073850
C            1.71908119081185        1.76877235567587       -1.29088914530360
H            2.25898046859422        3.59658345122089        2.26583691556438
H            2.77327825152313        2.38763297416508        4.35966162071585
H            2.63081981307081       -0.09192845012999        4.41629977097063
H            1.94810659583791       -1.32503889650137        2.40544095719654
H            3.69653619506011       -1.15253821026593       -0.26880761921177
H            4.60662942209378       -3.43792315554919       -0.23061263225968
H            3.09279018403082       -5.36562489539897        0.08758546194033
H            0.67060957865019       -4.98458387052040        0.38081472182622
H           -0.23658611654929       -2.70858001541592        0.34628581148373
H           -0.49655885480198        0.39143685446294        2.08672061130618
H           -2.93642705115610        0.54763746615817        2.09365729840461
H           -3.03658014988746       -0.75753195190894       -1.97747485752489
H           -0.59146249398319       -0.90113839653459       -1.98769852472014
H            1.73837516936733       -1.41837970648830       -2.42693675417753
H            2.12237228394983       -0.25391535919767       -4.55261614704237
H            2.18132146651808        2.22824228506517       -4.61417611494759
H            1.90883339425995        3.51221324423961       -2.51839930338427

          :  Hamiltonian                  GFN2-xTB          :
         :: gradient norm              0.000044098093 Eh/a0 ::
         :: HOMO-LUMO gap              1.307949597431 eV    ::
         :: SCC energy               -73.672760929670 Eh    ::
         :: -> dispersion             -0.066043200809 Eh    ::
         :: -> Gsolv                  -0.035916750994 Eh    ::
         :: repulsion energy           1.254230458313 Eh    ::

    * Orbital Energies and Occupations

         #    Occupation            Energy/Eh            Energy/eV
      -------------------------------------------------------------
         1        2.0000           -0.8420712             -22.9139
       ...           ...                  ...                  ...
        56        2.0000           -0.4330272             -11.7833
        57        2.0000           -0.4286817             -11.6650
        58        2.0000           -0.4250447             -11.5661
        59        2.0000           -0.4196581             -11.4195
        60        2.0000           -0.4188956             -11.3987
        61        2.0000           -0.4168631             -11.3434
        62        2.0000           -0.4147459             -11.2858
        63        2.0000           -0.4136652             -11.2564
        64        2.0000           -0.4122658             -11.2183
        65        2.0000           -0.4070895             -11.0775
        66        1.9950           -0.4015124             -10.9257
        67        1.0050           -0.3914454             -10.6518
        68        1.0000           -0.3007901              -8.1849 (HOMO)
        69                         -0.2527236              -6.8770 (LUMO)
        70                         -0.2474885              -6.7345
        71                         -0.2407289              -6.5506
        72                         -0.2386076              -6.4928
        73                         -0.2360741              -6.4239
        74                         -0.2336186              -6.3571
        75                         -0.2325783              -6.3288
        76                         -0.2093947              -5.6979
        77                         -0.1794665              -4.8835
        78                         -0.1241209              -3.3775
        79                         -0.1105423              -3.0080
       ...                                ...                  ...
       134                          0.6647691              18.0893
      -------------------------------------------------------------
                  HL-Gap            0.0480665 Eh            1.3080 eV

     #   Z          covCN         q      C6AA      α(0)
     1   8 O        0.857    -0.435    22.391     6.344
     2   6 C        2.839     0.178    24.183     8.059
     3   6 C        2.982    -0.005    28.133     8.701
     4   6 C        2.923    -0.027    28.678     8.782
     5   6 C        2.917    -0.026    28.661     8.779
     6   6 C        2.917    -0.039    28.972     8.827
     7   6 C        2.920    -0.029    28.732     8.790
     8   6 C        2.982     0.008    27.844     8.656
     9   6 C        3.921     0.018    20.209     6.389
    10   6 C        2.977     0.020    27.546     8.609
    11   6 C        2.924    -0.027    28.666     8.780
    12   6 C        2.917    -0.026    28.649     8.777
    13   6 C        2.919    -0.023    28.591     8.768
    14   6 C        2.918    -0.026    28.648     8.777
    15   6 C        2.920    -0.032    28.793     8.799
    16   6 C        2.977     0.016    27.638     8.624
    17   6 C        2.926    -0.032    28.799     8.801
    18   6 C        2.984    -0.033    28.804     8.804
    19   6 C        2.917     0.083    26.142     8.384
    20  35 Br       1.053    -0.190   190.326    22.244
    21   6 C        2.983    -0.033    28.814     8.805
    22   6 C        2.928    -0.031    28.784     8.798
    23   6 C        2.985     0.008    27.840     8.655
    24   6 C        2.920    -0.030    28.742     8.792
    25   6 C        2.918    -0.039    28.972     8.827
    26   6 C        2.917    -0.027    28.673     8.781
    27   6 C        2.923    -0.027    28.674     8.781
    28   6 C        2.982    -0.006    28.164     8.705
    29   1 H        0.926     0.042     2.416     2.431
    30   1 H        0.926     0.049     2.327     2.385
    31   1 H        0.926     0.049     2.332     2.388
    32   1 H        0.926     0.047     2.359     2.402
    33   1 H        0.926     0.038     2.469     2.457
    34   1 H        0.926     0.043     2.407     2.426
    35   1 H        0.926     0.044     2.395     2.420
    36   1 H        0.926     0.043     2.410     2.428
    37   1 H        0.926     0.039     2.458     2.452
    38   1 H        0.926     0.052     2.296     2.370
    39   1 H        0.926     0.057     2.233     2.337
    40   1 H        0.926     0.060     2.204     2.321
    41   1 H        0.926     0.059     2.216     2.328
    42   1 H        0.926     0.048     2.350     2.397
    43   1 H        0.926     0.049     2.328     2.386
    44   1 H        0.926     0.050     2.325     2.384
    45   1 H        0.926     0.042     2.421     2.433

molecular dipole:
                 x           y           z       tot (Debye)
 q only:        1.231      -2.788       0.010
   full:        1.574      -2.668       0.021       7.874

 projected vibrational frequencies (cm⁻¹)
eigval :       -0.00    -0.00    -0.00    -0.00    -0.00     0.00
eigval :       20.73    25.65    39.83    48.20    52.62    66.61
eigval :       71.04   112.03   116.79   129.21   170.98   187.36
eigval :      200.76   235.46   247.06   264.79   282.75   299.31
eigval :      315.69   326.45   352.75   365.72   368.89   375.53
eigval :      380.25   391.53   430.75   467.57   468.72   486.48
eigval :      489.37   493.59   540.34   579.42   585.52   594.42
eigval :      599.52   608.22   623.30   653.40   661.20   669.74
eigval :      678.86   694.00   744.98   753.06   754.29   757.36
eigval :      805.64   842.14   846.41   865.16   868.63   874.11
eigval :      881.44   892.31   898.52   901.54   901.98   903.94
eigval :      909.50   913.42   926.78   928.69   932.21   933.18
eigval :      982.10   995.31  1079.77  1082.28  1083.20  1084.46
eigval :     1091.53  1095.16  1123.71  1145.27  1151.55  1154.41
eigval :     1155.40  1166.43  1171.93  1177.85  1180.39  1193.70
eigval :     1199.49  1207.51  1226.93  1238.58  1241.04  1269.50
eigval :     1281.23  1314.44  1319.28  1332.98  1335.64  1365.76
eigval :     1391.79  1393.98  1413.96  1427.21  1430.62  1451.10
eigval :     1460.32  1472.56  1494.68  1500.23  1528.76  1547.58
eigval :     1563.34  1569.54  1571.75  1583.82  3073.53  3073.72
eigval :     3076.73  3078.81  3079.43  3084.13  3086.09  3090.45
eigval :     3092.84  3093.80  3094.89  3095.50  3096.42  3097.29
eigval :     3099.06  3106.79  3108.93

   temp. (K)  partition function   enthalpy   heat capacity  entropy
                                   cal/mol     cal/K/mol   cal/K/mol   J/K/mol
 298.15  VIB  0.115E+10            12675.944     82.159     77.297
         ROT  0.190E+08              888.752      2.981     36.290
         INT  0.218E+17            13564.697     85.140    113.587
         TR   0.849E+28             1481.254      4.968     44.013
         TOT                       15045.9505    90.1080   157.6002   659.3990

       T/K    H(0)-H(T)+PV         H(T)/Eh          T*S/Eh         G(T)/Eh
   ------------------------------------------------------------------------
    298.15    0.239772E-01    0.357921E+00    0.748809E-01    0.283040E+00
   ------------------------------------------------------------------------

         :::::::::::::::::::::::::::::::::::::::::::::::::::::
         ::                  THERMODYNAMIC                  ::
         :::::::::::::::::::::::::::::::::::::::::::::::::::::
         :: total free energy         -72.135490768651 Eh   ::
         ::.................................................::
         :: total energy              -72.418530475180 Eh   ::
         :: zero point energy           0.333943376449 Eh   ::
         :: G(RRHO) w/o ZPVE           -0.050903669920 Eh   ::
         :: G(RRHO) contrib.            0.283039706529 Eh   ::
         :::::::::::::::::::::::::::::::::::::::::::::::::::::

           -------------------------------------------------
          | TOTAL ENERGY              -72.418530475180 Eh   |
          | TOTAL ENTHALPY            -72.060609850315 Eh   |
          | TOTAL FREE ENERGY         -72.135490768651 Eh   |
          | GRADIENT NORM               0.000044474908 Eh/α |
          | HOMO-LUMO GAP               1.307955998076 eV   |
           -------------------------------------------------

 * finished run on 2025/09/04 at 14:50:40.193
