   * xtb version 6.7.1 (edcfbbe) compiled by 'albert@albert-system' on 2024-07-22

   ID    Z sym.   atoms
    1    8 O      1
    2    6 C      2-19, 21-28
    3   35 Br     20
    4    1 H      29-45

          program call               : xtb data2507/toluene/DphAn-Br/DphAn-Br_toluene_S0_crest.xyz --gfn 2 --gbsa toluene --ohess vtight --parallel 40 --molden --ceasefiles --namespace data2507/toluene/DphAn-Br/DphAn-Br_toluene_S0_finalOpt
      * Solvation model:               GBSA
        Solvent                        toluene
        Solvent mass                       9.2140E+01 g/mol
          :  Hamiltonian                  GFN2-xTB          :
 * total energy  :   -72.5113590 Eh     change       -0.1067377E-08 Eh
 * total energy  :   -72.5114351 Eh     change       -0.7619839E-04 Eh
 * total energy  :   -72.5114549 Eh     change       -0.1979827E-04 Eh
 * total energy  :   -72.5114592 Eh     change       -0.4237393E-05 Eh
 * total energy  :   -72.5114627 Eh     change       -0.3545415E-05 Eh
 * total energy  :   -72.5114659 Eh     change       -0.3127702E-05 Eh
 * total energy  :   -72.5114685 Eh     change       -0.2610767E-05 Eh
 * total energy  :   -72.5114704 Eh     change       -0.1915657E-05 Eh
 * total energy  :   -72.5114714 Eh     change       -0.1051325E-05 Eh
 * total energy  :   -72.5114722 Eh     change       -0.7491965E-06 Eh
 * total energy  :   -72.5114963 Eh     change       -0.1665609E-06 Eh
 * total energy  :   -72.5114965 Eh     change       -0.1628752E-06 Eh
 * total energy  :   -72.5114967 Eh     change       -0.1828006E-06 Eh
 * total energy  :   -72.5114969 Eh     change       -0.2037207E-06 Eh
 * total energy  :   -72.5114971 Eh     change       -0.2042162E-06 Eh
 * total energy  :   -72.5114973 Eh     change       -0.2043712E-06 Eh
 * total energy  :   -72.5114975 Eh     change       -0.2094904E-06 Eh
 * total energy  :   -72.5114977 Eh     change       -0.1895344E-06 Eh
 * total energy  :   -72.5114978 Eh     change       -0.9668300E-07 Eh
   *** GEOMETRY OPTIMIZATION CONVERGED AFTER 40 ITERATIONS ***

 final structure:
================
45
 xtb: 6.7.1 (edcfbbe)
O            1.35887694869523        3.76580706057651        0.15694969669109
C            1.59172578087280        2.56526518149258        0.13197035567110
C            1.69417534763518        1.74651139920663        1.35303227491999
C            1.96498351130985        2.38122570375721        2.56529498375054
C            2.14233225622225        1.64387866202420        3.71765748274411
C            2.04815389251175        0.26147663389662        3.66115110367549
C            1.76050961392243       -0.37410892086763        2.46508707783088
C            1.58198901279325        0.35480924892908        1.29556975344227
C            1.16747120893942       -0.31289610661863       -0.00407904970111
C            1.66355947788322       -1.75191317718224       -0.04088749243160
C            3.02823325767538       -1.97771879409964        0.12164009638651
C            3.53908139154428       -3.26132517360617        0.08723152396712
C            2.69326011095643       -4.34045067551515       -0.11615260830539
C            1.33823617762836       -4.12301455471674       -0.28963905338748
C            0.82470085597911       -2.83585470696138       -0.25449910547337
C           -0.36203034207264       -0.23912562618672       -0.05833719568330
C           -1.11230392651940       -0.56031066544278        1.06981491982369
C           -2.49296234513478       -0.49581769574091        1.05462877349689
C           -3.13667688657912       -0.10437807103671       -0.10587320336833
Br          -5.04988878313930        0.00437819980874       -0.13414415726833
C           -2.41836855222415        0.20794382157936       -1.24453461728997
C           -1.03595239030045        0.13674119295249       -1.21445103944078
C            1.74327992121427        0.44668192353992       -1.18357127788297
C            2.06086272541578       -0.19613802205342       -2.37384699161236
C            2.52547808537157        0.51949924416518       -3.46443044618886
C            2.65961446274168        1.89825382401700       -3.39483164482024
C            2.33249386733780        2.55218304758316       -2.22471845780215
C            1.88138667181594        1.83606018093321       -1.11607187890660
H            2.03940263132533        3.45919365903417        2.56963065028537
H            2.35545755637862        2.13914265317775        4.65282874596276
H            2.19402444430303       -0.32686035055286        4.55494885106062
H            1.68718215472902       -1.45146068458058        2.44171154973755
H            3.68942725805655       -1.13706960721220        0.27836023352441
H            4.59935915251374       -3.42049865347161        0.21841338898058
H            3.09049425462648       -5.34445669113718       -0.14205321783063
H            0.67187496194071       -4.95701478809940       -0.45543100352252
H           -0.23446223780492       -2.68315693474848       -0.39791185953747
H           -0.61960302524153       -0.86770201629779        1.97849801908551
H           -3.06067657223936       -0.74615171876425        1.93749815447025
H           -2.92717017246195        0.50541112799644       -2.14865402618202
H           -0.49041393717305        0.37966021873319       -2.11251678035754
H            1.94337065900000       -1.26656847115034       -2.45058748105869
H            2.77692664250482       -0.00239929472615       -4.37581970212953
H            3.01422643047908        2.45634349401834       -4.24807064645909
H            2.42272528446746        3.62526228894757       -2.13587646456641

          :  Hamiltonian                  GFN2-xTB          :
         :: gradient norm              0.000036748274 Eh/a0 ::
         :: HOMO-LUMO gap              2.577875901090 eV    ::
         :: SCC energy               -73.774513694712 Eh    ::
         :: -> dispersion             -0.066102141533 Eh    ::
         :: -> Gsolv                  -0.034296345331 Eh    ::
         :: repulsion energy           1.263015913144 Eh    ::

    * Orbital Energies and Occupations

         #    Occupation            Energy/Eh            Energy/eV
      -------------------------------------------------------------
         1        2.0000           -0.8413046             -22.8931
       ...           ...                  ...                  ...
        55        2.0000           -0.4356388             -11.8543
        56        2.0000           -0.4292933             -11.6817
        57        2.0000           -0.4277312             -11.6392
        58        2.0000           -0.4233353             -11.5195
        59        2.0000           -0.4214238             -11.4675
        60        2.0000           -0.4199255             -11.4268
        61        2.0000           -0.4168554             -11.3432
        62        2.0000           -0.4136928             -11.2572
        63        2.0000           -0.4120647             -11.2129
        64        2.0000           -0.4108421             -11.1796
        65        2.0000           -0.4043099             -11.0018
        66        2.0000           -0.4002621             -10.8917
        67        2.0000           -0.3925273             -10.6812 (HOMO)
        68                         -0.2977921              -8.1033 (LUMO)
        69                         -0.2519292              -6.8553
        70                         -0.2470461              -6.7225
        71                         -0.2397143              -6.5230
        72                         -0.2384477              -6.4885
        73                         -0.2357651              -6.4155
        74                         -0.2310327              -6.2867
        75                         -0.2281365              -6.2079
        76                         -0.2087477              -5.6803
        77                         -0.1893543              -5.1526
        78                         -0.1233927              -3.3577
       ...                                ...                  ...
       134                          0.6885303              18.7359
      -------------------------------------------------------------
                  HL-Gap            0.0947352 Eh            2.5779 eV

     #   Z          covCN         q      C6AA      α(0)
     1   8 O        0.857    -0.431    22.312     6.333
     2   6 C        2.833     0.227    23.236     7.899
     3   6 C        2.980    -0.023    28.577     8.769
     4   6 C        2.924    -0.018    28.457     8.748
     5   6 C        2.917    -0.028    28.708     8.786
     6   6 C        2.920    -0.022    28.550     8.762
     7   6 C        2.921    -0.032    28.810     8.802
     8   6 C        2.985     0.017    27.624     8.621
     9   6 C        3.920     0.008    20.377     6.416
    10   6 C        2.978     0.014    27.690     8.632
    11   6 C        2.925    -0.032    28.794     8.800
    12   6 C        2.919    -0.029    28.717     8.788
    13   6 C        2.919    -0.030    28.760     8.794
    14   6 C        2.920    -0.029    28.729     8.790
    15   6 C        2.922    -0.036    28.888     8.814
    16   6 C        2.978     0.019    27.574     8.614
    17   6 C        2.928    -0.033    28.814     8.803
    18   6 C        2.983    -0.034    28.828     8.807
    19   6 C        2.917     0.082    26.164     8.388
    20  35 Br       1.053    -0.194   190.447    22.251
    21   6 C        2.984    -0.033    28.823     8.807
    22   6 C        2.927    -0.033    28.829     8.805
    23   6 C        2.982     0.017    27.626     8.622
    24   6 C        2.921    -0.032    28.807     8.802
    25   6 C        2.920    -0.022    28.549     8.762
    26   6 C        2.917    -0.028    28.708     8.786
    27   6 C        2.924    -0.018    28.458     8.748
    28   6 C        2.980    -0.022    28.553     8.765
    29   1 H        0.926     0.048     2.350     2.397
    30   1 H        0.926     0.047     2.360     2.402
    31   1 H        0.926     0.050     2.320     2.382
    32   1 H        0.926     0.048     2.342     2.393
    33   1 H        0.926     0.030     2.581     2.512
    34   1 H        0.926     0.036     2.499     2.472
    35   1 H        0.926     0.036     2.503     2.474
    36   1 H        0.926     0.036     2.508     2.477
    37   1 H        0.926     0.032     2.558     2.501
    38   1 H        0.926     0.057     2.232     2.336
    39   1 H        0.926     0.058     2.222     2.331
    40   1 H        0.926     0.056     2.248     2.345
    41   1 H        0.926     0.050     2.318     2.381
    42   1 H        0.926     0.047     2.353     2.399
    43   1 H        0.926     0.050     2.325     2.384
    44   1 H        0.926     0.047     2.360     2.402
    45   1 H        0.926     0.048     2.349     2.397

molecular dipole:
                 x           y           z       tot (Debye)
 q only:        1.590      -1.996       0.021
   full:        1.972      -1.951       0.016       7.051

 projected vibrational frequencies (cm⁻¹)
eigval :       -0.00    -0.00    -0.00     0.00     0.00     0.00
eigval :       21.38    25.76    39.43    49.04    53.35    65.07
eigval :       70.06   113.07   119.80   131.92   171.47   186.38
eigval :      200.41   234.75   243.03   255.89   292.73   298.03
eigval :      316.96   326.20   351.20   364.12   371.87   376.03
eigval :      398.63   405.48   437.24   472.51   476.46   497.95
eigval :      507.33   551.13   588.47   595.32   604.34   611.91
eigval :      625.71   629.69   657.18   674.05   675.57   685.62
eigval :      696.67   740.67   745.90   756.00   777.77   798.87
eigval :      804.89   865.61   878.22   888.46   893.11   896.14
eigval :      905.27   906.75   910.61   916.65   924.08   925.31
eigval :      927.70   931.32   932.09   934.78   935.01   950.92
eigval :      985.54   999.23  1086.08  1092.53  1095.31  1098.42
eigval :     1100.79  1112.21  1125.59  1148.39  1171.39  1176.61
eigval :     1180.61  1181.43  1191.68  1201.37  1207.32  1212.21
eigval :     1218.10  1234.49  1253.11  1254.68  1268.51  1273.15
eigval :     1285.74  1313.80  1317.02  1320.73  1328.69  1394.76
eigval :     1423.05  1424.72  1431.52  1451.23  1454.89  1463.78
eigval :     1472.23  1566.68  1572.73  1576.52  1578.78  1583.67
eigval :     1586.93  1587.95  1598.65  1655.89  3070.92  3074.33
eigval :     3079.49  3080.20  3080.83  3082.91  3083.77  3089.03
eigval :     3089.41  3092.38  3094.83  3095.38  3097.29  3098.01
eigval :     3098.82  3109.75  3110.99

   temp. (K)  partition function   enthalpy   heat capacity  entropy
                                   cal/mol     cal/K/mol   cal/K/mol   J/K/mol
 298.15  VIB  0.908E+09            12433.722     80.302     76.069
         ROT  0.190E+08              888.752      2.981     36.286
         INT  0.172E+17            13322.474     83.283    112.356
         TR   0.849E+28             1481.254      4.968     44.013
         TOT                       14803.7283    88.2510   156.3689   654.2477

       T/K    H(0)-H(T)+PV         H(T)/Eh          T*S/Eh         G(T)/Eh
   ------------------------------------------------------------------------
    298.15    0.235912E-01    0.361677E+00    0.742959E-01    0.287381E+00
   ------------------------------------------------------------------------

         :::::::::::::::::::::::::::::::::::::::::::::::::::::
         ::                  THERMODYNAMIC                  ::
         :::::::::::::::::::::::::::::::::::::::::::::::::::::
         :: total free energy         -72.224117038677 Eh   ::
         ::.................................................::
         :: total energy              -72.511497785867 Eh   ::
         :: zero point energy           0.338085437649 Eh   ::
         :: G(RRHO) w/o ZPVE           -0.050704690459 Eh   ::
         :: G(RRHO) contrib.            0.287380747190 Eh   ::
         :::::::::::::::::::::::::::::::::::::::::::::::::::::

           -------------------------------------------------
          | TOTAL ENERGY              -72.511497785867 Eh   |
          | TOTAL ENTHALPY            -72.149821105470 Eh   |
          | TOTAL FREE ENERGY         -72.224117038677 Eh   |
          | GRADIENT NORM               0.000036764168 Eh/α |
          | HOMO-LUMO GAP               2.577876401693 eV   |
           -------------------------------------------------

 * finished run on 2025/09/04 at 14:48:34.122
