   * xtb version 6.7.1 (edcfbbe) compiled by 'albert@albert-system' on 2024-07-22

   ID    Z sym.   atoms
    1    8 O      1
    2    6 C      2-19, 21-28
    3   35 Br     20
    4    1 H      29-45

          program call               : xtb data2507/toluene/DphAn-Br/DphAn-Br_toluene_S0_finalOpt.xtbopt.xyz --gfn 2 --uhf 2 --gbsa toluene --ohess vtight --parallel 40 --molden --ceasefiles --namespace data2507/toluene/DphAn-Br/DphAn-Br_toluene_T1_preOpt
      * Solvation model:               GBSA
        Solvent                        toluene
        Solvent mass                       9.2140E+01 g/mol
          :  Hamiltonian                  GFN2-xTB          :
 * total energy  :   -72.4139040 Eh     change       -0.2689134E-08 Eh
 * total energy  :   -72.4168864 Eh     change       -0.2982455E-02 Eh
 * total energy  :   -72.4177055 Eh     change       -0.8190360E-03 Eh
 * total energy  :   -72.4179813 Eh     change       -0.2758515E-03 Eh
 * total energy  :   -72.4182595 Eh     change       -0.2781296E-03 Eh
 * total energy  :   -72.4183828 Eh     change       -0.1232979E-03 Eh
 * total energy  :   -72.4184533 Eh     change       -0.7051839E-04 Eh
 * total energy  :   -72.4184841 Eh     change       -0.3080251E-04 Eh
 * total energy  :   -72.4185022 Eh     change       -0.1809926E-04 Eh
 * total energy  :   -72.4185130 Eh     change       -0.1079543E-04 Eh
 * total energy  :   -72.4185281 Eh     change       -0.1041490E-05 Eh
 * total energy  :   -72.4185288 Eh     change       -0.6881897E-06 Eh
 * total energy  :   -72.4185288 Eh     change       -0.4094554E-07 Eh
 * total energy  :   -72.4185292 Eh     change       -0.4161610E-06 Eh
 * total energy  :   -72.4185297 Eh     change       -0.4877101E-06 Eh
 * total energy  :   -72.4185301 Eh     change       -0.3716957E-06 Eh
 * total energy  :   -72.4185303 Eh     change       -0.2652819E-06 Eh
 * total energy  :   -72.4185305 Eh     change       -0.1868666E-06 Eh
 * total energy  :   -72.4185305 Eh     change       -0.2108862E-08 Eh
   *** GEOMETRY OPTIMIZATION CONVERGED AFTER 22 ITERATIONS ***

 final structure:
================
45
 xtb: 6.7.1 (edcfbbe)
O            1.72678161652429        3.82908360656287        0.18619244491370
C            1.76227176778740        2.56928613150994        0.14425327981730
C            1.72723475712026        1.74780365606801        1.33506432700719
C            1.86658493175708        2.38949908271863        2.58167324122143
C            2.01189725212269        1.64247165954996        3.72579811683735
C            1.99239971326986        0.25402419901789        3.66461456388830
C            1.79514627456733       -0.38185532363626        2.44863042062814
C            1.62724345296317        0.34904157913679        1.28174485922390
C            1.19049789031451       -0.33717045246517       -0.00475000745484
C            1.68001641054349       -1.76905837837840       -0.03986553311115
C            3.04894654587721       -2.00080845666973        0.11188728009092
C            3.55347646369407       -3.28556262690308        0.07612297690896
C            2.69994792512030       -4.36213795272745       -0.11741680910423
C            1.34187381179019       -4.14067230566469       -0.27963664187878
C            0.83344789264161       -2.85338802049115       -0.24308222284731
C           -0.33699967521064       -0.24777279681462       -0.05858878557015
C           -1.08883779118114       -0.56166851572166        1.07049222669896
C           -2.46808593486181       -0.47826454939360        1.05801560872745
C           -3.10787504977043       -0.07332398450560       -0.10078410278818
Br          -5.01923934288282        0.06142711931065       -0.12553653865541
C           -2.38722445360113        0.23526794367049       -1.23946179924277
C           -1.00617597186219        0.14473064946494       -1.21167813330411
C            1.78789955772904        0.43950807127796       -1.16459788124359
C            2.09850704621993       -0.20493652269924       -2.35340045266062
C            2.47832942333709        0.51400591092377       -3.47600623180838
C            2.54121216461539        1.90180684698854       -3.42173491924492
C            2.24257931822254        2.56500266521663       -2.25533643480617
C            1.91119635297937        1.83698511821264       -1.09588571466114
H            1.90313864629869        3.46825901522499        2.59637554383678
H            2.16332245315914        2.14556505474767        4.66980651280318
H            2.10887639477236       -0.33507417947815        4.56132862977923
H            1.74034880539265       -1.46004985042400        2.41146268984926
H            3.71271390034561       -1.16129556340811        0.26079149132677
H            4.61374439288954       -3.44973563507295        0.19824139434606
H            3.09283868817251       -5.36756633716428       -0.14492286335795
H            0.67275135774033       -4.97347251326426       -0.43812520250639
H           -0.22557298139942       -2.69443034286109       -0.37813603935783
H           -0.59444324284795       -0.87342317520497        1.97717839683751
H           -3.03822950689573       -0.72247223570296        1.94097891298430
H           -2.89369716846519        0.54409786918074       -2.14103119007938
H           -0.45390029082349        0.38211221384333       -2.10736133459744
H            1.99678339783855       -1.27831111237766       -2.41281139945066
H            2.70294634912734       -0.00863877135363       -4.39305631204833
H            2.84094146100933        2.46970184350371       -4.29047900506944
H            2.29870222487256        3.64049050339623       -2.18219341232141

          :  Hamiltonian                  GFN2-xTB          :
         :: gradient norm              0.000039975696 Eh/a0 ::
         :: HOMO-LUMO gap              1.311903046954 eV    ::
         :: SCC energy               -73.672730151616 Eh    ::
         :: -> dispersion             -0.066046368308 Eh    ::
         :: -> Gsolv                  -0.035925166371 Eh    ::
         :: repulsion energy           1.254199624266 Eh    ::

    * Orbital Energies and Occupations

         #    Occupation            Energy/Eh            Energy/eV
      -------------------------------------------------------------
         1        2.0000           -0.8420147             -22.9124
       ...           ...                  ...                  ...
        56        2.0000           -0.4329994             -11.7825
        57        2.0000           -0.4286941             -11.6654
        58        2.0000           -0.4250460             -11.5661
        59        2.0000           -0.4196191             -11.4184
        60        2.0000           -0.4189117             -11.3992
        61        2.0000           -0.4168891             -11.3441
        62        2.0000           -0.4146839             -11.2841
        63        2.0000           -0.4136641             -11.2564
        64        2.0000           -0.4123484             -11.2206
        65        2.0000           -0.4071033             -11.0778
        66        1.9950           -0.4014891             -10.9251
        67        1.0050           -0.3914424             -10.6517
        68        1.0000           -0.3008147              -8.1856 (HOMO)
        69                         -0.2526033              -6.8737 (LUMO)
        70                         -0.2475112              -6.7351
        71                         -0.2407874              -6.5522
        72                         -0.2385833              -6.4922
        73                         -0.2361273              -6.4254
        74                         -0.2336650              -6.3583
        75                         -0.2326676              -6.3312
        76                         -0.2093821              -5.6976
        77                         -0.1795385              -4.8855
        78                         -0.1240619              -3.3759
        79                         -0.1106494              -3.0109
       ...                                ...                  ...
       134                          0.6647700              18.0893
      -------------------------------------------------------------
                  HL-Gap            0.0482114 Eh            1.3119 eV

     #   Z          covCN         q      C6AA      α(0)
     1   8 O        0.857    -0.435    22.391     6.344
     2   6 C        2.839     0.178    24.183     8.059
     3   6 C        2.982    -0.006    28.163     8.705
     4   6 C        2.923    -0.027    28.674     8.781
     5   6 C        2.917    -0.027    28.670     8.780
     6   6 C        2.917    -0.039    28.973     8.827
     7   6 C        2.920    -0.030    28.741     8.791
     8   6 C        2.985     0.008    27.839     8.655
     9   6 C        3.921     0.018    20.209     6.389
    10   6 C        2.977     0.020    27.546     8.609
    11   6 C        2.924    -0.027    28.665     8.780
    12   6 C        2.917    -0.026    28.650     8.777
    13   6 C        2.919    -0.023    28.591     8.768
    14   6 C        2.918    -0.026    28.647     8.777
    15   6 C        2.920    -0.032    28.793     8.799
    16   6 C        2.977     0.016    27.640     8.624
    17   6 C        2.928    -0.032    28.787     8.799
    18   6 C        2.983    -0.033    28.813     8.805
    19   6 C        2.917     0.083    26.143     8.385
    20  35 Br       1.053    -0.191   190.336    22.245
    21   6 C        2.984    -0.033    28.805     8.804
    22   6 C        2.926    -0.032    28.798     8.801
    23   6 C        2.982     0.008    27.843     8.656
    24   6 C        2.920    -0.029    28.732     8.790
    25   6 C        2.917    -0.039    28.972     8.827
    26   6 C        2.917    -0.026    28.660     8.779
    27   6 C        2.923    -0.027    28.676     8.782
    28   6 C        2.982    -0.005    28.134     8.701
    29   1 H        0.926     0.042     2.421     2.433
    30   1 H        0.926     0.050     2.324     2.384
    31   1 H        0.926     0.049     2.328     2.386
    32   1 H        0.926     0.048     2.350     2.397
    33   1 H        0.926     0.039     2.468     2.457
    34   1 H        0.926     0.043     2.407     2.426
    35   1 H        0.926     0.044     2.395     2.420
    36   1 H        0.926     0.043     2.410     2.428
    37   1 H        0.926     0.039     2.460     2.452
    38   1 H        0.926     0.058     2.220     2.330
    39   1 H        0.926     0.059     2.205     2.322
    40   1 H        0.926     0.057     2.232     2.336
    41   1 H        0.926     0.052     2.293     2.368
    42   1 H        0.926     0.047     2.358     2.401
    43   1 H        0.926     0.049     2.332     2.388
    44   1 H        0.926     0.049     2.326     2.385
    45   1 H        0.926     0.042     2.416     2.431

molecular dipole:
                 x           y           z       tot (Debye)
 q only:        1.242      -2.789      -0.048
   full:        1.585      -2.670      -0.051       7.894

 projected vibrational frequencies (cm⁻¹)
eigval :       -0.00     0.00     0.00     0.00     0.00     0.00
eigval :       18.92    25.93    40.84    48.92    50.74    66.54
eigval :       69.41   112.34   116.25   129.00   171.08   186.96
eigval :      200.80   235.77   247.28   264.95   282.87   299.17
eigval :      315.74   326.12   352.89   365.11   368.54   374.60
eigval :      380.34   391.60   431.01   467.79   468.87   486.09
eigval :      488.98   493.62   540.83   579.37   585.54   594.34
eigval :      599.69   608.10   623.21   653.76   661.15   670.08
eigval :      678.52   694.01   745.14   753.19   754.21   757.70
eigval :      805.33   841.66   846.90   864.00   868.73   874.13
eigval :      881.81   892.82   898.05   902.20   902.79   904.13
eigval :      910.14   914.39   924.80   928.45   932.07   933.42
eigval :      981.98   995.25  1079.90  1082.56  1083.50  1084.10
eigval :     1091.32  1094.75  1123.81  1144.46  1151.46  1154.22
eigval :     1156.01  1166.53  1172.13  1177.94  1180.17  1193.36
eigval :     1199.69  1206.28  1227.12  1238.85  1241.29  1268.60
eigval :     1281.34  1314.36  1319.37  1333.02  1335.70  1365.90
eigval :     1391.89  1393.83  1413.79  1427.30  1430.52  1450.87
eigval :     1460.35  1472.82  1494.47  1500.05  1528.60  1547.50
eigval :     1563.55  1569.73  1572.02  1583.95  3073.53  3073.80
eigval :     3076.92  3079.12  3079.77  3084.05  3086.16  3090.55
eigval :     3092.69  3093.87  3094.28  3095.56  3096.56  3097.21
eigval :     3099.14  3106.54  3108.07

   temp. (K)  partition function   enthalpy   heat capacity  entropy
                                   cal/mol     cal/K/mol   cal/K/mol   J/K/mol
 298.15  VIB  0.126E+10            12681.526     82.140     77.410
         ROT  0.190E+08              888.752      2.981     36.289
         INT  0.240E+17            13570.278     85.121    113.699
         TR   0.849E+28             1481.254      4.968     44.013
         TOT                       15051.5320    90.0895   157.7124   659.8689

       T/K    H(0)-H(T)+PV         H(T)/Eh          T*S/Eh         G(T)/Eh
   ------------------------------------------------------------------------
    298.15    0.239861E-01    0.357915E+00    0.749343E-01    0.282981E+00
   ------------------------------------------------------------------------

         :::::::::::::::::::::::::::::::::::::::::::::::::::::
         ::                  THERMODYNAMIC                  ::
         :::::::::::::::::::::::::::::::::::::::::::::::::::::
         :: total free energy         -72.135549912164 Eh   ::
         ::.................................................::
         :: total energy              -72.418530532663 Eh   ::
         :: zero point energy           0.333928750588 Eh   ::
         :: G(RRHO) w/o ZPVE           -0.050948130090 Eh   ::
         :: G(RRHO) contrib.            0.282980620498 Eh   ::
         :::::::::::::::::::::::::::::::::::::::::::::::::::::

           -------------------------------------------------
          | TOTAL ENERGY              -72.418530532663 Eh   |
          | TOTAL ENTHALPY            -72.060615639039 Eh   |
          | TOTAL FREE ENERGY         -72.135549912164 Eh   |
          | GRADIENT NORM               0.000039962273 Eh/α |
          | HOMO-LUMO GAP               1.311898907667 eV   |
           -------------------------------------------------

 * finished run on 2025/09/04 at 14:48:36.411
