   * xtb version 6.7.1 (edcfbbe) compiled by 'albert@albert-system' on 2024-07-22

   ID    Z sym.   atoms
    1    6 C      1-6, 8-13, 15-19, 21-34, 36
    2    8 O      7
    3    7 N      14, 20, 35
    4    1 H      37-55

          program call               : xtb data2507/toluene/PXZ-10-DPPZ/PXZ-10-DPPZ_toluene_S0_crest.xyz --gfn 2 --gbsa toluene --ohess vtight --parallel 40 --molden --ceasefiles --namespace data2507/toluene/PXZ-10-DPPZ/PXZ-10-DPPZ_toluene_S0_finalOpt
      * Solvation model:               GBSA
        Solvent                        toluene
        Solvent mass                       9.2140E+01 g/mol
          :  Hamiltonian                  GFN2-xTB          :
 * total energy  :   -91.1393506 Eh     change       -0.1388088E-08 Eh
 * total energy  :   -91.1393855 Eh     change       -0.3486569E-04 Eh
 * total energy  :   -91.1394005 Eh     change       -0.1501345E-04 Eh
 * total energy  :   -91.1394091 Eh     change       -0.8586129E-05 Eh
 * total energy  :   -91.1394193 Eh     change       -0.1022559E-04 Eh
 * total energy  :   -91.1394320 Eh     change       -0.1263726E-04 Eh
 * total energy  :   -91.1394444 Eh     change       -0.1239979E-04 Eh
 * total energy  :   -91.1394547 Eh     change       -0.1031873E-04 Eh
 * total energy  :   -91.1394625 Eh     change       -0.7809874E-05 Eh
 * total energy  :   -91.1394693 Eh     change       -0.6812917E-05 Eh
 * total energy  :   -91.1394963 Eh     change       -0.6125819E-05 Eh
 * total energy  :   -91.1395014 Eh     change       -0.5122946E-05 Eh
 * total energy  :   -91.1395047 Eh     change       -0.3302908E-05 Eh
 * total energy  :   -91.1395060 Eh     change       -0.1317162E-05 Eh
 * total energy  :   -91.1395066 Eh     change       -0.5706667E-06 Eh
 * total energy  :   -91.1395070 Eh     change       -0.3517167E-06 Eh
 * total energy  :   -91.1395073 Eh     change       -0.3615238E-06 Eh
 * total energy  :   -91.1395077 Eh     change       -0.4110356E-06 Eh
 * total energy  :   -91.1395077 Eh     change       -0.7574442E-08 Eh
   *** GEOMETRY OPTIMIZATION CONVERGED AFTER 22 ITERATIONS ***

 final structure:
================
55
 xtb: 6.7.1 (edcfbbe)
C           -5.19526735990122       -0.37025099170317        2.78047222854571
C           -4.54728403711468       -1.55572388319357        2.49755211529035
C           -3.66990130231383       -1.63756966784147        1.42654302972740
C           -3.42773705865519       -0.53646857278127        0.61420222305259
C           -4.06890414597762        0.66985939950400        0.92905218559495
C           -4.94657484197149        0.74585464377937        1.99540612947194
O           -3.85309536294110        1.83101151939076        0.22481647836572
C           -3.01010535796676        1.76422953999330       -0.85964867771167
C           -2.82943288163505        2.92507799270288       -1.58974524781238
C           -2.01864320180256        2.92252613826737       -2.71511134625207
C           -1.41623557315422        1.74682650010214       -3.11840770147974
C           -1.59762458708003        0.58213132753949       -2.38969211786297
C           -2.36671696842849        0.57880185194852       -1.23254410301757
N           -2.56132158019347       -0.58472439135462       -0.48371501583104
C           -1.66772295198884       -1.66118251322006       -0.65000696863790
C           -2.10408439006978       -2.91770895601703       -0.99252867515990
C           -1.19979885903150       -3.98382795264690       -1.13158485793744
C            0.14080905299662       -3.80431309399341       -0.93441659738703
C            0.63109864374895       -2.52811942382430       -0.58536067953764
N            1.94500792782931       -2.34612657582982       -0.38044708421859
C            2.36602474973264       -1.14022849183618       -0.04526903902482
C            3.77538579217828       -0.92606594105227        0.19865229882918
C            4.66110549244249       -2.00314523350195        0.09399037175843
C            6.00495590551162       -1.83502179366550        0.33528942289030
C            6.48177086213813       -0.57755751371335        0.68896266713550
C            5.62007688919653        0.49326736455226        0.79293454335430
C            4.24808445900414        0.35513150202286        0.54967702725163
C            3.31963819050188        1.47462279993736        0.64505413565465
C            3.73514514383702        2.77641123456324        0.95021430208028
C            2.83710101453072        3.81951236831532        1.02581899521315
C            1.48235560584058        3.60342362553376        0.79762572783129
C            1.04328777595571        2.33501292748059        0.49716911839321
C            1.94389495827594        1.26816214041981        0.41849404632613
C            1.45299971452953       -0.04956514758697        0.08739839505167
N            0.15848962872894       -0.21954268003633       -0.10326988677104
C           -0.27734943244969       -1.43911317248925       -0.44120158668081
H           -5.88316823557364       -0.30115042523031        3.60826244704031
H           -4.71561256630799       -2.42987211782459        3.10773062828590
H           -3.15898349938094       -2.56685339283793        1.23015434211900
H           -5.41903151267020        1.69397557236732        2.19939916877646
H           -3.33161289263619        3.82103521437667       -1.25971079046402
H           -1.87480831148461        3.83385960798985       -3.27386528043256
H           -0.80224818135517        1.72465288923179       -4.00591047592012
H           -1.13277438163262       -0.33521423219408       -2.71874988378432
H           -3.15698604869620       -3.08601467962745       -1.16437176499469
H           -1.58211328070241       -4.95597520744811       -1.40414780548494
H            0.84703466512896       -4.61341665610147       -1.03470629034681
H            4.25457606631039       -2.96465018555484       -0.17867359590620
H            6.68333926093726       -2.67078472251698        0.25293200607657
H            7.53464586194641       -0.43645262839121        0.88428048814305
H            6.02633834978758        1.45190920249651        1.07147599021512
H            4.77751093255629        2.98452322661016        1.12847519433526
H            3.19122814448644        4.81230792412458        1.26165207788889
H            0.78189467317446        4.42293018049959        0.85375362589899
H            0.00052137290691        2.13121764916709        0.30900582126032

          :  Hamiltonian                  GFN2-xTB          :
         :: gradient norm              0.000072491511 Eh/a0 ::
         :: HOMO-LUMO gap              0.964858738283 eV    ::
         :: SCC energy               -92.756880038973 Eh    ::
         :: -> dispersion             -0.080045684085 Eh    ::
         :: -> Gsolv                  -0.037759811602 Eh    ::
         :: repulsion energy           1.617372305821 Eh    ::

    * Orbital Energies and Occupations

         #    Occupation            Energy/Eh            Energy/eV
      -------------------------------------------------------------
         1        2.0000           -0.7307867             -19.8857
       ...           ...                  ...                  ...
        72        2.0000           -0.4289526             -11.6724
        73        2.0000           -0.4262700             -11.5994
        74        2.0000           -0.4240562             -11.5392
        75        2.0000           -0.4229394             -11.5088
        76        2.0000           -0.4175330             -11.3617
        77        2.0000           -0.4167959             -11.3416
        78        2.0000           -0.4130041             -11.2384
        79        2.0000           -0.4064059             -11.0589
        80        2.0000           -0.3980961             -10.8327
        81        2.0000           -0.3940918             -10.7238
        82        2.0000           -0.3918213             -10.6620
        83        2.0000           -0.3604018              -9.8070
        84        2.0000           -0.3444367              -9.3726 (HOMO)
        85                         -0.3089788              -8.4077 (LUMO)
        86                         -0.2716701              -7.3925
        87                         -0.2575380              -7.0080
        88                         -0.2395735              -6.5191
        89                         -0.2331822              -6.3452
        90                         -0.2311256              -6.2892
        91                         -0.2240132              -6.0957
        92                         -0.2166086              -5.8942
        93                         -0.2094076              -5.6983
        94                         -0.2002065              -5.4479
        95                         -0.1970614              -5.3623
       ...                                ...                  ...
       163                          0.7073166              19.2471
      -------------------------------------------------------------
                  HL-Gap            0.0354579 Eh            0.9649 eV

     #   Z          covCN         q      C6AA      α(0)
     1   6 C        2.919    -0.041    29.017     8.833
     2   6 C        2.919    -0.039    28.976     8.827
     3   6 C        2.924    -0.062    29.537     8.913
     4   6 C        2.921     0.045    27.001     8.521
     5   6 C        2.883     0.123    25.293     8.245
     6   6 C        2.920    -0.058    29.439     8.898
     7   8 O        1.708    -0.268    18.447     5.799
     8   6 C        2.883     0.123    25.301     8.246
     9   6 C        2.919    -0.058    29.446     8.899
    10   6 C        2.919    -0.041    29.007     8.832
    11   6 C        2.919    -0.039    28.978     8.827
    12   6 C        2.924    -0.053    29.307     8.878
    13   6 C        2.926     0.054    26.799     8.490
    14   7 N        2.750    -0.069    22.575     7.057
    15   6 C        2.919     0.053    26.800     8.489
    16   6 C        2.917    -0.048    29.186     8.859
    17   6 C        2.916    -0.030    28.743     8.792
    18   6 C        2.916    -0.050    29.245     8.868
    19   6 C        2.962     0.080    26.224     8.400
    20   7 N        1.848    -0.261    27.632     7.791
    21   6 C        2.957     0.087    26.068     8.374
    22   6 C        2.987    -0.007    28.190     8.709
    23   6 C        2.924    -0.027    28.688     8.784
    24   6 C        2.916    -0.028    28.696     8.784
    25   6 C        2.918    -0.025    28.640     8.776
    26   6 C        2.922    -0.034    28.836     8.806
    27   6 C        2.975     0.006    27.892     8.663
    28   6 C        2.976     0.005    27.896     8.664
    29   6 C        2.922    -0.034    28.838     8.806
    30   6 C        2.918    -0.025    28.637     8.775
    31   6 C        2.916    -0.028    28.691     8.784
    32   6 C        2.924    -0.026    28.645     8.777
    33   6 C        2.988    -0.007    28.188     8.709
    34   6 C        2.961     0.087    26.054     8.372
    35   7 N        1.848    -0.263    27.685     7.798
    36   6 C        2.968     0.081    26.188     8.394
    37   1 H        0.926     0.044     2.390     2.417
    38   1 H        0.926     0.043     2.416     2.430
    39   1 H        0.926     0.037     2.494     2.469
    40   1 H        0.926     0.050     2.314     2.379
    41   1 H        0.926     0.051     2.309     2.376
    42   1 H        0.926     0.045     2.389     2.417
    43   1 H        0.926     0.039     2.463     2.454
    44   1 H        0.926     0.025     2.654     2.548
    45   1 H        0.926     0.055     2.260     2.351
    46   1 H        0.926     0.056     2.251     2.346
    47   1 H        0.926     0.057     2.233     2.337
    48   1 H        0.926     0.055     2.255     2.348
    49   1 H        0.926     0.044     2.393     2.419
    50   1 H        0.926     0.045     2.381     2.413
    51   1 H        0.926     0.047     2.357     2.401
    52   1 H        0.926     0.048     2.346     2.395
    53   1 H        0.926     0.046     2.373     2.409
    54   1 H        0.926     0.043     2.410     2.428
    55   1 H        0.926     0.047     2.358     2.401

molecular dipole:
                 x           y           z       tot (Debye)
 q only:        0.895      -0.034       0.076
   full:        0.924      -0.134       0.062       2.378

 projected vibrational frequencies (cm⁻¹)
eigval :       -0.00    -0.00    -0.00     0.00     0.00     0.00
eigval :       17.83    19.77    21.45    49.49    58.86    65.65
eigval :       89.23    93.07   103.31   119.74   150.13   159.52
eigval :      196.67   205.65   223.97   237.96   252.77   253.78
eigval :      281.47   303.59   305.25   330.64   346.12   386.94
eigval :      392.61   395.21   399.10   400.58   413.06   422.65
eigval :      430.52   439.01   462.30   498.44   510.00   515.77
eigval :      521.74   527.29   534.62   542.26   554.31   575.46
eigval :      578.65   585.06   596.17   613.13   632.61   660.66
eigval :      662.91   671.37   677.20   684.65   686.47   703.43
eigval :      734.77   761.41   766.86   769.43   777.20   779.56
eigval :      789.39   790.56   801.66   843.36   853.54   858.13
eigval :      865.78   866.86   868.78   878.96   891.38   897.56
eigval :      900.19   912.34   914.49   916.11   917.79   920.98
eigval :      922.83   926.56   930.23   933.32  1014.30  1048.63
eigval :     1076.61  1083.79  1088.73  1092.38  1097.70  1101.95
eigval :     1106.71  1136.22  1145.54  1149.35  1168.63  1173.13
eigval :     1177.74  1179.70  1181.23  1185.55  1199.29  1219.47
eigval :     1232.82  1241.74  1248.67  1260.11  1260.65  1278.37
eigval :     1288.95  1292.26  1304.68  1311.48  1323.08  1328.70
eigval :     1333.50  1344.78  1351.84  1365.50  1388.48  1421.00
eigval :     1424.70  1424.94  1434.47  1442.48  1459.46  1475.21
eigval :     1479.88  1487.11  1500.03  1503.63  1531.90  1553.42
eigval :     1566.76  1567.15  1578.17  1584.49  1588.18  1590.34
eigval :     1596.93  1601.47  3078.30  3079.58  3082.28  3084.97
eigval :     3086.58  3088.90  3089.91  3090.59  3093.42  3096.45
eigval :     3098.17  3102.91  3104.15  3104.27  3104.96  3105.51
eigval :     3108.19  3109.44  3113.23

   temp. (K)  partition function   enthalpy   heat capacity  entropy
                                   cal/mol     cal/K/mol   cal/K/mol   J/K/mol
 298.15  VIB  0.183E+11            14741.327     99.566     88.521
         ROT  0.256E+08              888.752      2.981     36.879
         INT  0.469E+18            15630.079    102.547    125.400
         TR   0.959E+28             1481.254      4.968     44.257
         TOT                       17111.3328   107.5155   169.6563   709.8418

       T/K    H(0)-H(T)+PV         H(T)/Eh          T*S/Eh         G(T)/Eh
   ------------------------------------------------------------------------
    298.15    0.272686E-01    0.437261E+00    0.806092E-01    0.356652E+00
   ------------------------------------------------------------------------

         :::::::::::::::::::::::::::::::::::::::::::::::::::::
         ::                  THERMODYNAMIC                  ::
         :::::::::::::::::::::::::::::::::::::::::::::::::::::
         :: total free energy         -90.782855674671 Eh   ::
         ::.................................................::
         :: total energy              -91.139507726377 Eh   ::
         :: zero point energy           0.409992574868 Eh   ::
         :: G(RRHO) w/o ZPVE           -0.053340523162 Eh   ::
         :: G(RRHO) contrib.            0.356652051707 Eh   ::
         :::::::::::::::::::::::::::::::::::::::::::::::::::::

           -------------------------------------------------
          | TOTAL ENERGY              -91.139507726377 Eh   |
          | TOTAL ENTHALPY            -90.702246506991 Eh   |
          | TOTAL FREE ENERGY         -90.782855674671 Eh   |
          | GRADIENT NORM               0.000072485684 Eh/α |
          | HOMO-LUMO GAP               0.964859057882 eV   |
           -------------------------------------------------

 * finished run on 2025/09/05 at 11:51:02.754
