   * xtb version 6.7.1 (edcfbbe) compiled by 'albert@albert-system' on 2024-07-22

   ID    Z sym.   atoms
    1    6 C      1-6, 8-13, 15-19, 21-34, 36
    2    8 O      7
    3    7 N      14, 20, 35
    4    1 H      37-55

          program call               : xtb data2507/toluene/PXZ-10-DPPZ/PXZ-10-DPPZ_toluene_T1_crest.xyz --gfn 2 --uhf 2 --gbsa toluene --ohess vtight --parallel 40 --molden --ceasefiles --namespace data2507/toluene/PXZ-10-DPPZ/PXZ-10-DPPZ_toluene_T1_finalOpt
      * Solvation model:               GBSA
        Solvent                        toluene
        Solvent mass                       9.2140E+01 g/mol
          :  Hamiltonian                  GFN2-xTB          :
 * total energy  :   -91.0951142 Eh     change       -0.2947388E-08 Eh
 * total energy  :   -91.0951627 Eh     change       -0.4853243E-04 Eh
 * total energy  :   -91.0951936 Eh     change       -0.3087901E-04 Eh
 * total energy  :   -91.0952121 Eh     change       -0.1853907E-04 Eh
 * total energy  :   -91.0952285 Eh     change       -0.1638743E-04 Eh
 * total energy  :   -91.0952558 Eh     change       -0.2732475E-04 Eh
 * total energy  :   -91.0952833 Eh     change       -0.2749025E-04 Eh
 * total energy  :   -91.0952919 Eh     change       -0.8561670E-05 Eh
 * total energy  :   -91.0952993 Eh     change       -0.7438207E-05 Eh
 * total energy  :   -91.0953031 Eh     change       -0.3836562E-05 Eh
 * total energy  :   -91.0953250 Eh     change       -0.3917491E-05 Eh
 * total energy  :   -91.0953277 Eh     change       -0.2652554E-05 Eh
 * total energy  :   -91.0953294 Eh     change       -0.1768618E-05 Eh
 * total energy  :   -91.0953304 Eh     change       -0.9096583E-06 Eh
 * total energy  :   -91.0953308 Eh     change       -0.4518630E-06 Eh
 * total energy  :   -91.0953312 Eh     change       -0.3772228E-06 Eh
 * total energy  :   -91.0953316 Eh     change       -0.3983599E-06 Eh
 * total energy  :   -91.0953319 Eh     change       -0.3634270E-06 Eh
 * total energy  :   -91.0953320 Eh     change       -0.8139679E-08 Eh
   *** GEOMETRY OPTIMIZATION CONVERGED AFTER 22 ITERATIONS ***

 final structure:
================
55
 xtb: 6.7.1 (edcfbbe)
C           -1.77306765378734        3.03408650052186        2.51712719478575
C           -1.22551114221854        1.84798164202273        2.97944091347403
C           -1.49597460309975        0.65496325164647        2.33677387914868
C           -2.31041418875320        0.62482290953148        1.20436577285165
C           -2.89198364769455        1.82799178542912        0.77017793952626
C           -2.61623106206625        3.02095824269426        1.41908443039493
O           -3.75681287310169        1.87401371044372       -0.28628084746781
C           -4.01325408315731        0.70606106218445       -0.94986350194062
C           -4.88187885883580        0.77379174862636       -2.02810401952330
C           -5.16765612326741       -0.36361542419216       -2.76303859784962
C           -4.56742158939601       -1.56545378444856       -2.42586412618470
C           -3.70152371314619       -1.64052921776374       -1.34984664658883
C           -3.42212806799021       -0.51342269740215       -0.57975784714876
N           -2.58943665929728       -0.56026844962698        0.53741318142881
C           -1.71890087995683       -1.66084503737303        0.72486030469142
C           -2.19002051430300       -2.91278169055033        1.10329237766556
C           -1.31549241137015       -3.98113191477681        1.20863351994476
C            0.03423354387550       -3.81829386091108        0.93822656881053
C            0.54296114975280       -2.57387715825942        0.56680513453954
N            1.84093001372720       -2.37293425154491        0.32254276401893
C            2.31347639349619       -1.16411595381061        0.02798715323127
C            3.70922455767987       -0.96834515865338       -0.22546643324061
C            4.57891714519753       -2.06869194224833       -0.15095262443660
C            5.92050031357556       -1.92378624722916       -0.39343430038388
C            6.42863800770991       -0.66510411463503       -0.71747286022576
C            5.59320129264286        0.42371653711063       -0.79218602063189
C            4.21511755302661        0.31304717969767       -0.54984448126437
C            3.31324248127707        1.44014641464122       -0.61581705516498
C            3.73668917002862        2.74426186909810       -0.91422213804296
C            2.85320002097847        3.79639345451477       -0.96146203454605
C            1.49594281818870        3.59124055872459       -0.70807013262580
C            1.04663659448862        2.32965361992496       -0.41699319309027
C            1.93407473574323        1.24172890018735       -0.36659914435780
C            1.42946836898626       -0.05726608774038       -0.05399626761986
N            0.12780440391054       -0.24530255696204        0.16693509268008
C           -0.35016679073016       -1.44864614959070        0.46851494591441
H           -1.55454624143614        3.96619389992044        3.01333307383517
H           -0.58274950237432        1.84827200061252        3.84593673937930
H           -1.07897959819117       -0.26749366321596        2.70916267940009
H           -3.07170207124692        3.92419834771381        1.04537350529238
H           -5.31349488486375        1.73050922797902       -2.27584972293254
H           -5.84615783912842       -0.30568801026144       -3.59907625536017
H           -4.76955354188175       -2.45441708335838       -3.00269770023998
H           -3.22836408800771       -2.57788589531584       -1.10591952753711
H           -3.23885132937868       -3.03465825576966        1.32685797797274
H           -1.68601933975830       -4.94894739318979        1.50914170948262
H            0.72472431395303       -4.64108887547718        1.03796316640649
H            4.15417840657019       -3.02907506046049        0.10023368217289
H            6.58104362332360       -2.77631358886313       -0.33582792593150
H            7.48483776638028       -0.54608529625246       -0.91042154611670
H            6.01864528872039        1.38190576840109       -1.04465075954523
H            4.77888859291306        2.93853929743499       -1.11149312620417
H            3.21193225866789        4.78853934153308       -1.19357222650210
H            0.80610904191560        4.42142932773151       -0.74113788063305
H            0.00423915590988        2.14022382225766       -0.20958058461259

          :  Hamiltonian                  GFN2-xTB          :
         :: gradient norm              0.000059077731 Eh/a0 ::
         :: HOMO-LUMO gap              1.062117720623 eV    ::
         :: SCC energy               -92.713051338245 Eh    ::
         :: -> dispersion             -0.081004136105 Eh    ::
         :: -> Gsolv                  -0.037617667692 Eh    ::
         :: repulsion energy           1.617719382074 Eh    ::

    * Orbital Energies and Occupations

         #    Occupation            Energy/Eh            Energy/eV
      -------------------------------------------------------------
         1        2.0000           -0.7492218             -20.3874
       ...           ...                  ...                  ...
        73        2.0000           -0.4274939             -11.6327
        74        2.0000           -0.4253701             -11.5749
        75        2.0000           -0.4206680             -11.4470
        76        2.0000           -0.4187869             -11.3958
        77        2.0000           -0.4150455             -11.2940
        78        2.0000           -0.4115935             -11.2000
        79        2.0000           -0.4044233             -11.0049
        80        2.0000           -0.3955692             -10.7640
        81        2.0000           -0.3890592             -10.5868
        82        2.0000           -0.3834099             -10.4331
        83        1.9984           -0.3618388              -9.8461
        84        1.0016           -0.3495807              -9.5126
        85        1.0000           -0.3021748              -8.2226 (HOMO)
        86                         -0.2631428              -7.1605 (LUMO)
        87                         -0.2533029              -6.8927
        88                         -0.2492311              -6.7819
        89                         -0.2424682              -6.5979
        90                         -0.2302748              -6.2661
        91                         -0.2216974              -6.0327
        92                         -0.2144371              -5.8351
        93                         -0.2098448              -5.7102
        94                         -0.1969918              -5.3604
        95                         -0.1907842              -5.1915
        96                         -0.1475226              -4.0143
       ...                                ...                  ...
       163                          0.7110342              19.3482
      -------------------------------------------------------------
                  HL-Gap            0.0390321 Eh            1.0621 eV

     #   Z          covCN         q      C6AA      α(0)
     1   6 C        2.919    -0.030    28.746     8.792
     2   6 C        2.918    -0.033    28.814     8.802
     3   6 C        2.922    -0.042    29.041     8.837
     4   6 C        2.929     0.056    26.744     8.481
     5   6 C        2.886     0.130    25.156     8.223
     6   6 C        2.917    -0.054    29.341     8.883
     7   8 O        1.709    -0.236    17.915     5.715
     8   6 C        2.886     0.129    25.181     8.227
     9   6 C        2.918    -0.053    29.319     8.879
    10   6 C        2.919    -0.032    28.799     8.800
    11   6 C        2.918    -0.033    28.815     8.803
    12   6 C        2.922    -0.053    29.317     8.879
    13   6 C        2.925     0.046    26.958     8.515
    14   7 N        2.752    -0.037    21.957     6.959
    15   6 C        2.926     0.023    27.484     8.597
    16   6 C        2.914    -0.055    29.355     8.885
    17   6 C        2.915    -0.041    29.031     8.835
    18   6 C        2.917    -0.066    29.639     8.928
    19   6 C        2.939     0.085    26.114     8.381
    20   7 N        1.849    -0.257    27.549     7.779
    21   6 C        2.940     0.080    26.206     8.396
    22   6 C        2.987    -0.010    28.259     8.720
    23   6 C        2.923    -0.031    28.770     8.796
    24   6 C        2.916    -0.033    28.826     8.804
    25   6 C        2.917    -0.033    28.814     8.802
    26   6 C        2.921    -0.036    28.888     8.814
    27   6 C        2.976    -0.002    28.082     8.693
    28   6 C        2.976    -0.003    28.089     8.694
    29   6 C        2.920    -0.036    28.884     8.813
    30   6 C        2.917    -0.033    28.822     8.804
    31   6 C        2.916    -0.033    28.830     8.805
    32   6 C        2.923    -0.030    28.759     8.794
    33   6 C        2.987    -0.011    28.279     8.723
    34   6 C        2.945     0.078    26.249     8.403
    35   7 N        1.849    -0.263    27.688     7.799
    36   6 C        2.947     0.086    26.091     8.378
    37   1 H        0.926     0.057     2.229     2.335
    38   1 H        0.926     0.051     2.309     2.376
    39   1 H        0.926     0.042     2.426     2.436
    40   1 H        0.926     0.063     2.166     2.302
    41   1 H        0.926     0.062     2.170     2.304
    42   1 H        0.926     0.057     2.233     2.337
    43   1 H        0.926     0.054     2.267     2.354
    44   1 H        0.926     0.052     2.301     2.372
    45   1 H        0.926     0.045     2.382     2.414
    46   1 H        0.926     0.041     2.430     2.438
    47   1 H        0.926     0.043     2.408     2.426
    48   1 H        0.926     0.043     2.415     2.430
    49   1 H        0.926     0.036     2.509     2.477
    50   1 H        0.926     0.036     2.509     2.477
    51   1 H        0.926     0.038     2.475     2.460
    52   1 H        0.926     0.038     2.475     2.460
    53   1 H        0.926     0.036     2.504     2.474
    54   1 H        0.926     0.035     2.511     2.478
    55   1 H        0.926     0.033     2.538     2.491

molecular dipole:
                 x           y           z       tot (Debye)
 q only:       -1.371       0.617      -0.005
   full:       -1.281       0.528       0.015       3.523

 projected vibrational frequencies (cm⁻¹)
eigval :       -0.00    -0.00    -0.00     0.00     0.00     0.00
eigval :       21.07    21.28    27.67    56.47    63.30    70.22
eigval :       89.40   101.60   106.34   119.17   150.60   164.03
eigval :      185.30   205.25   224.55   237.84   250.31   258.13
eigval :      270.15   301.90   315.83   328.68   349.38   381.62
eigval :      393.83   396.58   399.82   409.96   416.37   425.88
eigval :      435.83   441.81   470.73   499.46   502.88   512.22
eigval :      522.23   525.67   527.51   540.96   552.23   567.69
eigval :      574.95   584.30   592.49   599.99   627.30   635.98
eigval :      662.83   668.06   673.62   675.42   680.84   684.83
eigval :      701.07   727.51   759.11   763.94   770.45   777.26
eigval :      778.61   778.88   791.84   839.00   851.52   851.82
eigval :      856.83   862.77   868.77   870.63   872.62   895.96
eigval :      902.63   903.26   907.47   910.95   912.45   917.66
eigval :      918.60   918.99   920.56   921.55  1005.77  1037.35
eigval :     1075.16  1080.87  1083.69  1086.94  1097.84  1101.61
eigval :     1113.66  1133.37  1145.30  1147.78  1168.90  1170.96
eigval :     1174.56  1176.95  1178.21  1188.43  1208.38  1217.19
eigval :     1223.44  1237.73  1248.40  1253.65  1257.15  1263.13
eigval :     1282.57  1284.80  1294.14  1305.86  1313.02  1318.74
eigval :     1322.82  1339.29  1343.77  1354.89  1356.97  1389.00
eigval :     1404.31  1415.71  1418.01  1426.85  1439.27  1445.07
eigval :     1459.47  1464.65  1469.64  1486.02  1516.46  1532.98
eigval :     1537.27  1549.76  1557.42  1565.50  1574.47  1581.80
eigval :     1586.95  1592.09  3072.84  3074.02  3081.16  3082.45
eigval :     3086.53  3093.05  3093.14  3093.63  3094.76  3095.28
eigval :     3097.32  3100.53  3102.39  3102.96  3106.09  3106.32
eigval :     3111.35  3113.08  3115.30

   temp. (K)  partition function   enthalpy   heat capacity  entropy
                                   cal/mol     cal/K/mol   cal/K/mol   J/K/mol
 298.15  VIB  0.878E+10            14773.700    100.667     88.180
         ROT  0.251E+08              888.752      2.981     36.839
         INT  0.220E+18            15662.453    103.648    125.020
         TR   0.959E+28             1481.254      4.968     44.257
         TOT                       17143.7068   108.6159   169.2762   708.2518

       T/K    H(0)-H(T)+PV         H(T)/Eh          T*S/Eh         G(T)/Eh
   ------------------------------------------------------------------------
    298.15    0.273202E-01    0.435302E+00    0.804286E-01    0.354873E+00
   ------------------------------------------------------------------------

         :::::::::::::::::::::::::::::::::::::::::::::::::::::
         ::                  THERMODYNAMIC                  ::
         :::::::::::::::::::::::::::::::::::::::::::::::::::::
         :: total free energy         -90.740458639132 Eh   ::
         ::.................................................::
         :: total energy              -91.095331955266 Eh   ::
         :: zero point energy           0.407981687674 Eh   ::
         :: G(RRHO) w/o ZPVE           -0.053108371541 Eh   ::
         :: G(RRHO) contrib.            0.354873316133 Eh   ::
         :::::::::::::::::::::::::::::::::::::::::::::::::::::

           -------------------------------------------------
          | TOTAL ENERGY              -91.095331955266 Eh   |
          | TOTAL ENTHALPY            -90.660030031839 Eh   |
          | TOTAL FREE ENERGY         -90.740458639132 Eh   |
          | GRADIENT NORM               0.000059233912 Eh/α |
          | HOMO-LUMO GAP               1.062116244814 eV   |
           -------------------------------------------------

 * finished run on 2025/09/05 at 11:53:42.352
