   * xtb version 6.7.1 (edcfbbe) compiled by 'albert@albert-system' on 2024-07-22

   ID    Z sym.   atoms
    1    6 C      1-6, 8-13, 15-19, 21-34, 36
    2    8 O      7
    3    7 N      14, 20, 35
    4    1 H      37-55

          program call               : xtb data2507/toluene/PXZ-10-DPPZ/PXZ-10-DPPZ_toluene_S0_finalOpt.xtbopt.xyz --gfn 2 --uhf 2 --gbsa toluene --ohess vtight --parallel 40 --molden --ceasefiles --namespace data2507/toluene/PXZ-10-DPPZ/PXZ-10-DPPZ_toluene_T1_preOpt
      * Solvation model:               GBSA
        Solvent                        toluene
        Solvent mass                       9.2140E+01 g/mol
          :  Hamiltonian                  GFN2-xTB          :
 * total energy  :   -91.0910683 Eh     change       -0.1007891E-08 Eh
 * total energy  :   -91.0941349 Eh     change       -0.3066542E-02 Eh
 * total energy  :   -91.0949840 Eh     change       -0.8491475E-03 Eh
 * total energy  :   -91.0950894 Eh     change       -0.1054036E-03 Eh
 * total energy  :   -91.0951508 Eh     change       -0.6138876E-04 Eh
 * total energy  :   -91.0951697 Eh     change       -0.1887837E-04 Eh
 * total energy  :   -91.0951974 Eh     change       -0.2774757E-04 Eh
 * total energy  :   -91.0952248 Eh     change       -0.2740346E-04 Eh
 * total energy  :   -91.0952463 Eh     change       -0.2144999E-04 Eh
 * total energy  :   -91.0952622 Eh     change       -0.1594752E-04 Eh
 * total energy  :   -91.0953382 Eh     change       -0.2820454E-06 Eh
 * total energy  :   -91.0953384 Eh     change       -0.2070767E-06 Eh
 * total energy  :   -91.0953386 Eh     change       -0.2105170E-06 Eh
 * total energy  :   -91.0953389 Eh     change       -0.2174995E-06 Eh
 * total energy  :   -91.0953391 Eh     change       -0.2343991E-06 Eh
 * total energy  :   -91.0953393 Eh     change       -0.2322756E-06 Eh
 * total energy  :   -91.0953395 Eh     change       -0.1761678E-06 Eh
 * total energy  :   -91.0953396 Eh     change       -0.1018152E-06 Eh
 * total energy  :   -91.0953397 Eh     change       -0.6068919E-07 Eh
   *** GEOMETRY OPTIMIZATION CONVERGED AFTER 36 ITERATIONS ***

 final structure:
================
55
 xtb: 6.7.1 (edcfbbe)
C           -5.12629801608253       -0.39493447370484        2.80175157450658
C           -4.51589464594686       -1.59493353620912        2.47628373218002
C           -3.66338977755337       -1.67728807683823        1.39014470159007
C           -3.40826648457510       -0.55962126381218        0.59824684653825
C           -4.01091938965073        0.65822402987355        0.95487467290317
C           -4.86569471000606        0.73327054953430        2.04362148053523
O           -3.77986476574187        1.81741940232801        0.26700043193880
C           -2.92872727968308        1.76413648004130       -0.80018284107299
C           -2.67949353598163        2.94836783120959       -1.47530383969105
C           -1.85040343737797        2.95304881785276       -2.58403075771755
C           -1.28983151298758        1.76680085247816       -3.03025116225163
C           -1.53403730153247        0.58248875003933       -2.36160199360244
C           -2.33466896295504        0.56181181797167       -1.21929749975825
N           -2.58863634765344       -0.61491109098643       -0.52792724862241
C           -1.70059896643155       -1.70361865738823       -0.70376974876515
C           -2.15110324674717       -2.96809042263114       -1.06447563739107
C           -1.25757885886095       -4.02138929961534       -1.16244458080609
C            0.09040097261480       -3.83093370372066       -0.90143287353692
C            0.57824674863192       -2.57347860689937       -0.54629737599570
N            1.87321043288714       -2.34610460735505       -0.30949901550677
C            2.32437067000973       -1.12619765335034       -0.02721919374156
C            3.71662221806122       -0.90274153778863        0.22249354039824
C            4.60675203535395       -1.98701470382679        0.15357517542659
C            5.94554653311809       -1.81559924312417        0.39415095496132
C            6.43028496633048       -0.54585796499378        0.71088161576633
C            5.57468162799168        0.52755497506041        0.77981968569758
C            4.19884305338195        0.38983122270548        0.53860131506222
C            3.27642916997282        1.50055382294903        0.59760321022100
C            3.67561418169325        2.81396452211184        0.88860249175983
C            2.77292728913773        3.84993645575986        0.92881403644989
C            1.41995021562922        3.61858108498413        0.67501394025961
C            0.99408787328457        2.34721595456171        0.39140718291144
C            1.90130087768537        1.27537214985878        0.34901324704894
C            1.42041085274385       -0.03502153200116        0.04680828850398
N            0.12200440910909       -0.24863549919199       -0.16975151717697
C           -0.33487755195211       -1.46370185083976       -0.45645996877000
H           -5.79362408036575       -0.33133668641714        3.64634301737101
H           -4.69939436199706       -2.47647144811248        3.07048904466218
H           -3.18189694585863       -2.61260154050160        1.15467679242000
H           -5.30664815120525        1.68838809564645        2.28084311651931
H           -3.14394651537816        3.85174952796172       -1.11317625087730
H           -1.65250463323617        3.87865348769534       -3.10064521724171
H           -0.65758252668818        1.76024602297619       -3.90441890784813
H           -1.10691441365060       -0.34068921440377       -2.72066673379157
H           -3.19884721187920       -3.11172576796623       -1.28008124990788
H           -1.61194391826903       -4.99918931813256       -1.44977423692490
H            0.79500632287515       -4.64240317824175       -0.99541236013953
H            4.20000724742546       -2.95661540019385       -0.09188930133854
H            6.62211674482588       -2.65569507658786        0.34046612361581
H            7.48415035291055       -0.40615902289492        0.90276319981457
H            5.98215929716634        1.49497033382020        1.02665016530845
H            4.71379911909050        3.02846749828409        1.08603401302528
H            3.11311102511574        4.84976817429099        1.15579256868495
H            0.71524588026480        4.43642229657907        0.70204438997424
H           -0.04449557244882        2.13733003197775        0.18454230239462

          :  Hamiltonian                  GFN2-xTB          :
         :: gradient norm              0.000054277241 Eh/a0 ::
         :: HOMO-LUMO gap              1.061622222376 eV    ::
         :: SCC energy               -92.713155951176 Eh    ::
         :: -> dispersion             -0.080940957527 Eh    ::
         :: -> Gsolv                  -0.037658827638 Eh    ::
         :: repulsion energy           1.617816286218 Eh    ::

    * Orbital Energies and Occupations

         #    Occupation            Energy/Eh            Energy/eV
      -------------------------------------------------------------
         1        2.0000           -0.7492262             -20.3875
       ...           ...                  ...                  ...
        73        2.0000           -0.4274854             -11.6325
        74        2.0000           -0.4254066             -11.5759
        75        2.0000           -0.4206909             -11.4476
        76        2.0000           -0.4188852             -11.3984
        77        2.0000           -0.4150390             -11.2938
        78        2.0000           -0.4116097             -11.2005
        79        2.0000           -0.4044765             -11.0064
        80        2.0000           -0.3955784             -10.7642
        81        2.0000           -0.3890812             -10.5874
        82        2.0000           -0.3834156             -10.4333
        83        1.9984           -0.3618504              -9.8465
        84        1.0016           -0.3496602              -9.5147
        85        1.0000           -0.3021837              -8.2228 (HOMO)
        86                         -0.2631699              -7.1612 (LUMO)
        87                         -0.2532968              -6.8926
        88                         -0.2492474              -6.7824
        89                         -0.2424781              -6.5982
        90                         -0.2302696              -6.2660
        91                         -0.2216985              -6.0327
        92                         -0.2144573              -5.8357
        93                         -0.2099077              -5.7119
        94                         -0.1970411              -5.3618
        95                         -0.1908054              -5.1921
        96                         -0.1475394              -4.0148
       ...                                ...                  ...
       163                          0.7110196              19.3478
      -------------------------------------------------------------
                  HL-Gap            0.0390138 Eh            1.0616 eV

     #   Z          covCN         q      C6AA      α(0)
     1   6 C        2.919    -0.032    28.799     8.800
     2   6 C        2.918    -0.033    28.814     8.803
     3   6 C        2.922    -0.053    29.316     8.879
     4   6 C        2.925     0.047    26.955     8.514
     5   6 C        2.886     0.129    25.181     8.227
     6   6 C        2.918    -0.053    29.318     8.879
     7   8 O        1.709    -0.236    17.915     5.715
     8   6 C        2.886     0.130    25.155     8.223
     9   6 C        2.917    -0.054    29.340     8.882
    10   6 C        2.919    -0.030    28.747     8.792
    11   6 C        2.918    -0.033    28.813     8.802
    12   6 C        2.922    -0.042    29.047     8.838
    13   6 C        2.930     0.056    26.744     8.481
    14   7 N        2.752    -0.037    21.962     6.960
    15   6 C        2.926     0.023    27.483     8.597
    16   6 C        2.914    -0.055    29.354     8.884
    17   6 C        2.915    -0.042    29.031     8.835
    18   6 C        2.917    -0.066    29.640     8.928
    19   6 C        2.939     0.085    26.113     8.381
    20   7 N        1.849    -0.257    27.545     7.779
    21   6 C        2.940     0.080    26.207     8.396
    22   6 C        2.987    -0.010    28.259     8.720
    23   6 C        2.923    -0.031    28.770     8.796
    24   6 C        2.916    -0.033    28.826     8.804
    25   6 C        2.917    -0.033    28.814     8.802
    26   6 C        2.921    -0.036    28.888     8.814
    27   6 C        2.976    -0.002    28.083     8.693
    28   6 C        2.976    -0.003    28.089     8.694
    29   6 C        2.920    -0.036    28.884     8.813
    30   6 C        2.917    -0.033    28.822     8.804
    31   6 C        2.916    -0.033    28.830     8.805
    32   6 C        2.923    -0.030    28.758     8.794
    33   6 C        2.987    -0.011    28.279     8.723
    34   6 C        2.945     0.079    26.248     8.403
    35   7 N        1.849    -0.263    27.694     7.799
    36   6 C        2.947     0.086    26.089     8.377
    37   1 H        0.926     0.057     2.233     2.337
    38   1 H        0.926     0.054     2.267     2.354
    39   1 H        0.926     0.051     2.303     2.373
    40   1 H        0.926     0.062     2.170     2.304
    41   1 H        0.926     0.063     2.166     2.301
    42   1 H        0.926     0.057     2.229     2.335
    43   1 H        0.926     0.051     2.308     2.376
    44   1 H        0.926     0.042     2.427     2.436
    45   1 H        0.926     0.045     2.382     2.414
    46   1 H        0.926     0.041     2.430     2.438
    47   1 H        0.926     0.043     2.408     2.426
    48   1 H        0.926     0.043     2.415     2.430
    49   1 H        0.926     0.036     2.509     2.477
    50   1 H        0.926     0.036     2.509     2.477
    51   1 H        0.926     0.038     2.475     2.460
    52   1 H        0.926     0.038     2.475     2.460
    53   1 H        0.926     0.036     2.504     2.474
    54   1 H        0.926     0.035     2.511     2.478
    55   1 H        0.926     0.033     2.539     2.492

molecular dipole:
                 x           y           z       tot (Debye)
 q only:       -1.378       0.594       0.003
   full:       -1.287       0.506      -0.015       3.515

 projected vibrational frequencies (cm⁻¹)
eigval :       -0.00    -0.00     0.00     0.00     0.00     0.00
eigval :       20.37    21.59    28.28    54.06    64.26    70.30
eigval :       89.41   102.34   105.79   118.06   150.09   163.88
eigval :      185.76   204.49   224.01   237.61   249.54   257.93
eigval :      270.57   301.89   315.52   328.48   349.47   381.98
eigval :      393.87   396.34   399.77   410.20   416.48   425.97
eigval :      435.06   441.70   470.71   499.36   502.63   511.97
eigval :      522.24   525.63   527.59   541.06   552.28   567.68
eigval :      574.90   584.57   592.54   600.08   627.39   636.17
eigval :      662.79   667.98   673.54   675.06   680.83   685.31
eigval :      700.93   727.19   759.19   764.92   770.62   777.15
eigval :      778.66   779.36   791.77   838.99   851.63   852.00
eigval :      856.75   864.83   868.90   869.50   874.90   895.26
eigval :      900.45   902.67   908.03   911.03   913.54   916.87
eigval :      918.37   918.67   921.23   922.71  1005.85  1037.33
eigval :     1075.16  1081.28  1083.22  1086.64  1098.13  1101.80
eigval :     1112.74  1132.63  1146.56  1150.49  1168.13  1170.09
eigval :     1174.09  1178.05  1180.05  1188.13  1207.91  1217.24
eigval :     1223.55  1237.67  1248.55  1253.37  1258.23  1263.23
eigval :     1282.55  1285.06  1294.39  1305.88  1312.76  1318.67
eigval :     1323.51  1339.58  1343.77  1355.09  1356.95  1389.67
eigval :     1404.35  1415.72  1418.12  1427.17  1439.23  1445.14
eigval :     1459.52  1464.98  1469.81  1486.22  1516.38  1533.17
eigval :     1537.45  1549.94  1557.47  1565.58  1574.52  1582.13
eigval :     1587.06  1592.26  3072.70  3074.41  3081.13  3082.85
eigval :     3086.84  3092.66  3092.90  3093.28  3094.76  3095.04
eigval :     3097.23  3099.72  3102.03  3102.57  3105.65  3106.11
eigval :     3110.36  3113.14  3114.65

   temp. (K)  partition function   enthalpy   heat capacity  entropy
                                   cal/mol     cal/K/mol   cal/K/mol   J/K/mol
 298.15  VIB  0.909E+10            14778.135    100.639     88.224
         ROT  0.251E+08              888.752      2.981     36.838
         INT  0.228E+18            15666.887    103.620    125.062
         TR   0.959E+28             1481.254      4.968     44.257
         TOT                       17148.1411   108.5879   169.3188   708.4298

       T/K    H(0)-H(T)+PV         H(T)/Eh          T*S/Eh         G(T)/Eh
   ------------------------------------------------------------------------
    298.15    0.273273E-01    0.435315E+00    0.804488E-01    0.354866E+00
   ------------------------------------------------------------------------

         :::::::::::::::::::::::::::::::::::::::::::::::::::::
         ::                  THERMODYNAMIC                  ::
         :::::::::::::::::::::::::::::::::::::::::::::::::::::
         :: total free energy         -90.740473681920 Eh   ::
         ::.................................................::
         :: total energy              -91.095339656641 Eh   ::
         :: zero point energy           0.407987488084 Eh   ::
         :: G(RRHO) w/o ZPVE           -0.053121513363 Eh   ::
         :: G(RRHO) contrib.            0.354865974721 Eh   ::
         :::::::::::::::::::::::::::::::::::::::::::::::::::::

           -------------------------------------------------
          | TOTAL ENERGY              -91.095339656641 Eh   |
          | TOTAL ENTHALPY            -90.660024866177 Eh   |
          | TOTAL FREE ENERGY         -90.740473681920 Eh   |
          | GRADIENT NORM               0.000056502829 Eh/α |
          | HOMO-LUMO GAP               1.061620242985 eV   |
           -------------------------------------------------

 * finished run on 2025/09/05 at 11:51:06.664
