   * xtb version 6.7.1 (edcfbbe) compiled by 'albert@albert-system' on 2024-07-22

   ID    Z sym.   atoms
    1    6 C      1-6, 8-13, 15-19, 21-34, 36
    2    8 O      7
    3    7 N      14, 20, 35
    4    1 H      37-55

          program call               : xtb data2507/toluene/PXZ-10-DPPZ/PXZ-10-DPPZ.xyz --gfn 2 --gbsa toluene --ohess vtight --parallel 40 --molden --ceasefiles --namespace data2507/toluene/PXZ-10-DPPZ/PXZ-10-DPPZ_toluene_S0_preOpt
      * Solvation model:               GBSA
        Solvent                        toluene
        Solvent mass                       9.2140E+01 g/mol
          :  Hamiltonian                  GFN2-xTB          :
 * total energy  :   -91.1189080 Eh     change       -0.2295607E-08 Eh
 * total energy  :   -91.1333840 Eh     change       -0.1447601E-01 Eh
 * total energy  :   -91.1369554 Eh     change       -0.3571408E-02 Eh
 * total energy  :   -91.1374334 Eh     change       -0.4780096E-03 Eh
 * total energy  :   -91.1377020 Eh     change       -0.2685412E-03 Eh
 * total energy  :   -91.1377616 Eh     change       -0.5963415E-04 Eh
 * total energy  :   -91.1377935 Eh     change       -0.3190944E-04 Eh
 * total energy  :   -91.1378187 Eh     change       -0.2516956E-04 Eh
 * total energy  :   -91.1378410 Eh     change       -0.2234262E-04 Eh
 * total energy  :   -91.1378778 Eh     change       -0.3675512E-04 Eh
 * total energy  :   -91.1393966 Eh     change       -0.5987133E-05 Eh
 * total energy  :   -91.1394025 Eh     change       -0.5905282E-05 Eh
 * total energy  :   -91.1394079 Eh     change       -0.5439373E-05 Eh
 * total energy  :   -91.1394120 Eh     change       -0.4088917E-05 Eh
 * total energy  :   -91.1394146 Eh     change       -0.2540655E-05 Eh
 * total energy  :   -91.1394161 Eh     change       -0.1542934E-05 Eh
 * total energy  :   -91.1394172 Eh     change       -0.1102711E-05 Eh
 * total energy  :   -91.1394183 Eh     change       -0.1057788E-05 Eh
 * total energy  :   -91.1394183 Eh     change       -0.7158093E-08 Eh
   *** GEOMETRY OPTIMIZATION CONVERGED AFTER 68 ITERATIONS ***

 final structure:
================
55
 xtb: 6.7.1 (edcfbbe)
C           -4.85542293243607        0.16233546772080        3.42324822151999
C           -4.16727537497777       -1.03322443598869        3.37474908164719
C           -3.42232942123829       -1.36895627472583        2.25409166641899
C           -3.35632949684147       -0.51718853579505        1.15843087792446
C           -4.03898299749276        0.70523478824236        1.22874033115971
C           -4.78326148095564        1.03449900666732        2.34698339799735
O           -3.99472640763058        1.63889036114310        0.21989622762369
C           -3.28601486181265        1.31198559227051       -0.91235525687459
C           -3.28354410973560        2.23466957250611       -1.94261624863958
C           -2.61498401642483        1.95766420763527       -3.12601473699486
C           -1.97338167063151        0.74427299056704       -3.27830216575701
C           -1.97588539238730       -0.18257364040052       -2.24786896456829
C           -2.60292343953736        0.09715161088497       -1.04000131097633
N           -2.62402954926034       -0.82651533830135        0.00790254437859
C           -1.68647381545437       -1.87860988259557        0.00623456322823
C           -2.07411900710433       -3.19566976600733        0.03740357120476
C           -1.12156315871548       -4.22840403498556        0.03707975972827
C            0.21707297498849       -3.95575790989280       -0.00923365048242
C            0.65705537280357       -2.61560517186414       -0.04435792532861
N            1.96916675099103       -2.33910779146130       -0.10129723002660
C            2.34282231052808       -1.07254916977101       -0.10228000784901
C            3.75097871684180       -0.75204114210918       -0.17942975749382
C            4.68553418767588       -1.78726429442272       -0.28146934302783
C            6.03188274381090       -1.51493711966967       -0.35715613898393
C            6.46216086472413       -0.19287823475496       -0.33318482108274
C            5.55156292924066        0.83699408469701       -0.23278243673952
C            4.17531034327485        0.59221337066877       -0.15158048198106
C            3.19449632008395        1.66493192554948       -0.04444465275228
C            3.55642939076659        3.01661670279708        0.00544284484023
C            2.60809169636779        4.01290398658123        0.09609491206822
C            1.25428965683339        3.69763123904197        0.13931207413855
C            0.86785835502467        2.37827028013274        0.09765349538184
C            1.81987299680292        1.35784443448383        0.00960983769979
C            1.38165323026405       -0.01834504463463       -0.02659824275207
N            0.08816075718184       -0.27857417428349        0.00242006217561
C           -0.29986255929771       -1.55952226224863       -0.01996287778670
H           -5.43928266208006        0.42783137749287        4.29036822360209
H           -4.20016706859955       -1.71710073535805        4.20897656546690
H           -2.87593931492637       -2.29872317835259        2.23859328271292
H           -5.29302815801483        1.98516025323814        2.35800012820796
H           -3.81095392274026        3.16465489392014       -1.79862314022983
H           -2.61178531173279        2.68479518583813       -3.92268068319103
H           -1.46896308264106        0.50538677710014       -4.20225827685161
H           -1.48132591850601       -1.13313951493403       -2.38054669626284
H           -3.12607720152872       -3.43987015205499        0.05265349942408
H           -1.46535418603588       -5.25148537061604        0.06192391811909
H            0.95957797764563       -4.73815275441300       -0.01789151289893
H            4.31491506629108       -2.80037105280776       -0.29892747743930
H            6.74787319718506       -2.31911025075560       -0.43574743422444
H            7.51702592158569        0.03130127969437       -0.39355834444118
H            5.92268841375019        1.84870078683364       -0.21899083589017
H            4.59561665022170        3.30086641095915       -0.02554381464636
H            2.92104580508997        5.04606175800180        0.13264944392513
H            0.51389450067982        4.48043702516487        0.20651761637083
H           -0.17305361190702        2.09637286338145        0.13072831918996

          :  Hamiltonian                  GFN2-xTB          :
         :: gradient norm              0.000078735075 Eh/a0 ::
         :: HOMO-LUMO gap              0.962967825118 eV    ::
         :: SCC energy               -92.757057194945 Eh    ::
         :: -> dispersion             -0.079603957467 Eh    ::
         :: -> Gsolv                  -0.037956724337 Eh    ::
         :: repulsion energy           1.617638932386 Eh    ::

    * Orbital Energies and Occupations

         #    Occupation            Energy/Eh            Energy/eV
      -------------------------------------------------------------
         1        2.0000           -0.7307642             -19.8851
       ...           ...                  ...                  ...
        72        2.0000           -0.4290630             -11.6754
        73        2.0000           -0.4263054             -11.6004
        74        2.0000           -0.4240628             -11.5393
        75        2.0000           -0.4231492             -11.5145
        76        2.0000           -0.4175295             -11.3616
        77        2.0000           -0.4168117             -11.3420
        78        2.0000           -0.4132664             -11.2456
        79        2.0000           -0.4064958             -11.0613
        80        2.0000           -0.3981997             -10.8356
        81        2.0000           -0.3941640             -10.7257
        82        2.0000           -0.3918677             -10.6633
        83        2.0000           -0.3605652              -9.8115
        84        2.0000           -0.3444873              -9.3740 (HOMO)
        85                         -0.3090989              -8.4110 (LUMO)
        86                         -0.2717864              -7.3957
        87                         -0.2576383              -7.0107
        88                         -0.2395688              -6.5190
        89                         -0.2332622              -6.3474
        90                         -0.2312035              -6.2914
        91                         -0.2241309              -6.0989
        92                         -0.2166785              -5.8961
        93                         -0.2094608              -5.6997
        94                         -0.2002848              -5.4500
        95                         -0.1971260              -5.3641
       ...                                ...                  ...
       163                          0.7071159              19.2416
      -------------------------------------------------------------
                  HL-Gap            0.0353884 Eh            0.9630 eV

     #   Z          covCN         q      C6AA      α(0)
     1   6 C        2.919    -0.041    29.018     8.834
     2   6 C        2.919    -0.039    28.975     8.827
     3   6 C        2.924    -0.062    29.532     8.912
     4   6 C        2.921     0.045    26.992     8.520
     5   6 C        2.883     0.123    25.294     8.245
     6   6 C        2.920    -0.058    29.438     8.897
     7   8 O        1.708    -0.268    18.446     5.799
     8   6 C        2.883     0.123    25.299     8.246
     9   6 C        2.919    -0.058    29.445     8.898
    10   6 C        2.919    -0.041    29.011     8.833
    11   6 C        2.919    -0.040    28.984     8.828
    12   6 C        2.924    -0.054    29.335     8.882
    13   6 C        2.926     0.053    26.809     8.491
    14   7 N        2.750    -0.068    22.567     7.055
    15   6 C        2.920     0.054    26.796     8.489
    16   6 C        2.917    -0.047    29.179     8.858
    17   6 C        2.916    -0.030    28.741     8.791
    18   6 C        2.916    -0.050    29.241     8.867
    19   6 C        2.963     0.079    26.224     8.400
    20   7 N        1.848    -0.261    27.632     7.791
    21   6 C        2.958     0.087    26.068     8.374
    22   6 C        2.987    -0.007    28.189     8.709
    23   6 C        2.924    -0.027    28.688     8.784
    24   6 C        2.916    -0.028    28.696     8.784
    25   6 C        2.918    -0.025    28.639     8.776
    26   6 C        2.922    -0.034    28.835     8.806
    27   6 C        2.975     0.006    27.892     8.663
    28   6 C        2.976     0.005    27.895     8.663
    29   6 C        2.922    -0.034    28.837     8.806
    30   6 C        2.918    -0.025    28.638     8.776
    31   6 C        2.916    -0.028    28.692     8.784
    32   6 C        2.924    -0.026    28.642     8.777
    33   6 C        2.988    -0.007    28.188     8.709
    34   6 C        2.961     0.087    26.053     8.372
    35   7 N        1.848    -0.263    27.686     7.798
    36   6 C        2.968     0.081    26.182     8.393
    37   1 H        0.926     0.044     2.390     2.418
    38   1 H        0.926     0.042     2.417     2.431
    39   1 H        0.926     0.036     2.500     2.472
    40   1 H        0.926     0.050     2.314     2.379
    41   1 H        0.926     0.051     2.307     2.375
    42   1 H        0.926     0.044     2.390     2.418
    43   1 H        0.926     0.039     2.463     2.454
    44   1 H        0.926     0.025     2.660     2.551
    45   1 H        0.926     0.055     2.259     2.350
    46   1 H        0.926     0.056     2.248     2.344
    47   1 H        0.926     0.057     2.231     2.336
    48   1 H        0.926     0.055     2.254     2.348
    49   1 H        0.926     0.044     2.392     2.419
    50   1 H        0.926     0.045     2.380     2.413
    51   1 H        0.926     0.047     2.357     2.401
    52   1 H        0.926     0.048     2.345     2.395
    53   1 H        0.926     0.046     2.374     2.409
    54   1 H        0.926     0.043     2.412     2.428
    55   1 H        0.926     0.047     2.359     2.402

molecular dipole:
                 x           y           z       tot (Debye)
 q only:        0.905       0.010      -0.012
   full:        0.940      -0.088      -0.004       2.399

 projected vibrational frequencies (cm⁻¹)
eigval :       -0.00    -0.00     0.00     0.00     0.00     0.00
eigval :       13.36    16.64    19.98    46.93    58.65    62.03
eigval :       86.41    90.16   102.45   117.05   146.99   159.62
eigval :      194.77   204.66   222.33   237.10   250.60   251.98
eigval :      280.54   303.16   303.66   328.09   346.55   384.48
eigval :      392.86   394.76   399.19   400.30   412.03   422.36
eigval :      426.91   438.23   462.43   496.58   509.66   515.31
eigval :      520.73   526.58   534.22   542.31   554.45   574.73
eigval :      578.69   584.94   596.77   613.11   632.89   659.29
eigval :      663.47   671.54   676.25   684.42   686.13   703.38
eigval :      734.03   761.38   766.93   768.33   775.52   778.88
eigval :      788.91   790.27   802.67   843.45   853.11   858.26
eigval :      861.89   866.71   868.92   879.82   890.43   895.65
eigval :      898.85   911.44   914.03   914.96   916.62   920.66
eigval :      924.45   928.27   929.43   933.36  1014.32  1048.59
eigval :     1076.19  1084.08  1085.86  1091.20  1094.78  1101.87
eigval :     1106.45  1136.05  1144.27  1150.31  1167.39  1171.71
eigval :     1176.85  1177.82  1180.06  1183.45  1197.02  1218.94
eigval :     1233.34  1239.76  1248.45  1258.04  1260.41  1278.45
eigval :     1288.90  1292.50  1304.45  1311.05  1323.12  1328.99
eigval :     1333.18  1344.76  1352.14  1365.33  1388.41  1420.82
eigval :     1424.28  1425.36  1434.67  1442.16  1459.25  1475.28
eigval :     1479.75  1487.26  1499.91  1502.78  1531.87  1553.54
eigval :     1566.73  1567.12  1578.12  1584.62  1588.15  1590.37
eigval :     1596.99  1601.49  3078.29  3078.98  3082.44  3085.25
eigval :     3087.58  3088.52  3089.32  3090.63  3093.49  3096.34
eigval :     3097.85  3103.95  3104.22  3104.62  3105.48  3106.57
eigval :     3107.59  3109.33  3114.60

   temp. (K)  partition function   enthalpy   heat capacity  entropy
                                   cal/mol     cal/K/mol   cal/K/mol   J/K/mol
 298.15  VIB  0.383E+11            14800.088     99.517     89.406
         ROT  0.256E+08              888.752      2.981     36.880
         INT  0.982E+18            15688.840    102.498    126.286
         TR   0.959E+28             1481.254      4.968     44.257
         TOT                       17170.0939   107.4662   170.5429   713.5515

       T/K    H(0)-H(T)+PV         H(T)/Eh          T*S/Eh         G(T)/Eh
   ------------------------------------------------------------------------
    298.15    0.273623E-01    0.437145E+00    0.810304E-01    0.356115E+00
   ------------------------------------------------------------------------

         :::::::::::::::::::::::::::::::::::::::::::::::::::::
         ::                  THERMODYNAMIC                  ::
         :::::::::::::::::::::::::::::::::::::::::::::::::::::
         :: total free energy         -90.783303339648 Eh   ::
         ::.................................................::
         :: total energy              -91.139418266050 Eh   ::
         :: zero point energy           0.409783072939 Eh   ::
         :: G(RRHO) w/o ZPVE           -0.053668146538 Eh   ::
         :: G(RRHO) contrib.            0.356114926401 Eh   ::
         :::::::::::::::::::::::::::::::::::::::::::::::::::::

           -------------------------------------------------
          | TOTAL ENERGY              -91.139418266050 Eh   |
          | TOTAL ENTHALPY            -90.702272906870 Eh   |
          | TOTAL FREE ENERGY         -90.783303339648 Eh   |
          | GRADIENT NORM               0.000078743676 Eh/α |
          | HOMO-LUMO GAP               0.962967011209 eV   |
           -------------------------------------------------

 * finished run on 2025/09/05 at 11:48:58.720
