   * xtb version 6.7.1 (edcfbbe) compiled by 'albert@albert-system' on 2024-07-22

   ID    Z sym.   atoms
    1    6 C      1-6, 8-13, 15-22, 24-29, 31-37
    2    8 O      7, 30
    3    7 N      14, 23, 38
    4    1 H      39-59

          program call               : xtb data2507/toluene/Fene/Fene_toluene_S0_crest.xyz --gfn 2 --gbsa toluene --ohess vtight --parallel 40 --molden --ceasefiles --namespace data2507/toluene/Fene/Fene_toluene_S0_finalOpt
      * Solvation model:               GBSA
        Solvent                        toluene
        Solvent mass                       9.2140E+01 g/mol
          :  Hamiltonian                  GFN2-xTB          :
 * total energy  :   -98.3764039 Eh     change       -0.2220986E-08 Eh
 * total energy  :   -98.3764649 Eh     change       -0.6103695E-04 Eh
 * total energy  :   -98.3765241 Eh     change       -0.5914388E-04 Eh
 * total energy  :   -98.3765615 Eh     change       -0.3743971E-04 Eh
 * total energy  :   -98.3765920 Eh     change       -0.3045652E-04 Eh
 * total energy  :   -98.3766283 Eh     change       -0.3633388E-04 Eh
 * total energy  :   -98.3766488 Eh     change       -0.2045227E-04 Eh
 * total energy  :   -98.3766660 Eh     change       -0.1725774E-04 Eh
 * total energy  :   -98.3766861 Eh     change       -0.2006840E-04 Eh
 * total energy  :   -98.3766941 Eh     change       -0.8001869E-05 Eh
 * total energy  :   -98.3768323 Eh     change       -0.1080131E-05 Eh
 * total energy  :   -98.3768335 Eh     change       -0.1263687E-05 Eh
 * total energy  :   -98.3768349 Eh     change       -0.1364807E-05 Eh
 * total energy  :   -98.3768362 Eh     change       -0.1311025E-05 Eh
 * total energy  :   -98.3768375 Eh     change       -0.1277384E-05 Eh
 * total energy  :   -98.3768388 Eh     change       -0.1338592E-05 Eh
 * total energy  :   -98.3768403 Eh     change       -0.1471179E-05 Eh
 * total energy  :   -98.3768419 Eh     change       -0.1578242E-05 Eh
 * total energy  :   -98.3768419 Eh     change       -0.6471694E-08 Eh
   *** GEOMETRY OPTIMIZATION CONVERGED AFTER 44 ITERATIONS ***

 final structure:
================
59
 xtb: 6.7.1 (edcfbbe)
C            0.98606366146630        3.74196594282528       -0.30885450531852
C            0.12275719846350        2.80227851574999       -0.84265404037854
C            0.49723597760387        1.47153814180431       -0.92736552812948
C            1.74452617443511        1.07102808066654       -0.47235992691472
C            2.63275750561251        2.03442503828139        0.01403668342460
C            2.25044646249096        3.36250856723545        0.10706856531305
O            3.91879051642353        1.70101584498953        0.38216133714994
C            4.42488980905588        0.59566400021410       -0.25548112718883
C            5.79675531402063        0.49774383436454       -0.43067562364101
C            6.32624535547162       -0.57850813656423       -1.12195488208752
C            5.48512769853482       -1.52719837529537       -1.67814715958204
C            4.11472352783908       -1.43375697531048       -1.50296436066521
C            3.57511556319077       -0.39986305080969       -0.74738134081738
N            2.19177093883067       -0.27256030828929       -0.49929548228668
C            1.40353470925744       -1.31351838317348       -0.07362618694571
C            1.97518934128421       -2.57215717681348        0.27671419041171
C            1.15221547106300       -3.58684966456091        0.65686280342634
C           -0.24636298785098       -3.37905842559830        0.73497323455733
C           -1.16895228655097       -4.37742093506316        1.08928844446523
C           -2.50339290072542       -4.08139198636693        1.18977484858032
C           -2.95757674009183       -2.77436949977540        0.97415911577009
C           -2.08145024456618       -1.77369482837639        0.62899633062860
N           -2.53056691688844       -0.44421764537332        0.44616911954127
C           -3.19925810185689       -0.07370526510897       -0.71768162932835
C           -3.57964029400499       -0.99863966693614       -1.68222879431910
C           -4.26075738331482       -0.59809212588692       -2.82254729465091
C           -4.56554433004887        0.73298566762364       -3.02191936357608
C           -4.17651776525034        1.67252659795111       -2.07644692095920
C           -3.50008552923852        1.27772796407290       -0.93788028437646
O           -3.13751481009834        2.26740631918438       -0.05204228849481
C           -2.40641186094439        1.88924764444063        1.05204043858351
C           -2.00191655063852        2.89347979085959        1.90993972489914
C           -1.27784592883810        2.58670283141142        3.05335148051809
C           -0.97794474135841        1.26938295355772        3.33439959103644
C           -1.38835537212434        0.25871176449423        2.47843894856025
C           -2.08877415900439        0.55107805271413        1.31540721544286
C           -0.70146772562767       -2.06258829640908        0.46536250685626
N            0.11583816395136       -1.08029690105234        0.05274881896800
H            0.68629925106554        4.77517206316033       -0.22994623755576
H           -0.85104886234115        3.10313608923392       -1.19568286303717
H           -0.17620370480919        0.73578032004447       -1.33118190105300
H            2.95370214901151        4.07692495210119        0.50516090767971
H            6.42682017886492        1.26984368526078       -0.01841958597811
H            7.39477032568673       -0.65955906604094       -1.24562933208581
H            5.89240647397973       -2.34497383446869       -2.25208631287318
H            3.45631219086637       -2.16370729046135       -1.94873787575271
H            3.04482956424215       -2.70363517377373        0.27193082010243
H            1.55702467551259       -4.55263569883773        0.92573663687444
H           -0.80844543388264       -5.37801212656793        1.27983485826318
H           -3.21424030247819       -4.84864838382163        1.45669333830254
H           -4.00703570519085       -2.54308660859553        1.08538544977517
H           -3.33638713538743       -2.04019400164299       -1.53967998408800
H           -4.54827332012844       -1.33932174123817       -3.55274235988002
H           -5.09704614416039        1.05078628326923       -3.90514310600050
H           -4.39016856735490        2.72197094828513       -2.20744743850179
H           -2.26450440202461        3.91146981683427        1.66870482820660
H           -0.96151572019303        3.37735466605810        3.71548414318848
H           -0.42705165689148        1.01350664883677        4.22712182876786
H           -1.16022299085366       -0.76905088741864        2.71547682646499

          :  Hamiltonian                  GFN2-xTB          :
         :: gradient norm              0.000070998147 Eh/a0 ::
         :: HOMO-LUMO gap              1.671492609150 eV    ::
         :: SCC energy              -100.061010373348 Eh    ::
         :: -> dispersion             -0.089555798070 Eh    ::
         :: -> Gsolv                  -0.036366684396 Eh    ::
         :: repulsion energy           1.684168496411 Eh    ::

    * Orbital Energies and Occupations

         #    Occupation            Energy/Eh            Energy/eV
      -------------------------------------------------------------
         1        2.0000           -0.7369293             -20.0529
       ...           ...                  ...                  ...
        78        2.0000           -0.4297313             -11.6936
        79        2.0000           -0.4232339             -11.5168
        80        2.0000           -0.4209484             -11.4546
        81        2.0000           -0.4189040             -11.3990
        82        2.0000           -0.4155905             -11.3088
        83        2.0000           -0.4120739             -11.2131
        84        2.0000           -0.4088138             -11.1244
        85        2.0000           -0.4013644             -10.9217
        86        2.0000           -0.3959280             -10.7738
        87        2.0000           -0.3873704             -10.5409
        88        2.0000           -0.3725606             -10.1379
        89        2.0000           -0.3610436              -9.8245
        90        2.0000           -0.3387720              -9.2185 (HOMO)
        91                         -0.2773458              -7.5470 (LUMO)
        92                         -0.2469123              -6.7188
        93                         -0.2414658              -6.5706
        94                         -0.2361177              -6.4251
        95                         -0.2343491              -6.3770
        96                         -0.2265309              -6.1642
        97                         -0.2259483              -6.1484
        98                         -0.2177024              -5.9240
        99                         -0.2125415              -5.7835
       100                         -0.2053618              -5.5882
       101                         -0.1917622              -5.2181
       ...                                ...                  ...
       173                          0.6866203              18.6839
      -------------------------------------------------------------
                  HL-Gap            0.0614262 Eh            1.6715 eV

     #   Z          covCN         q      C6AA      α(0)
     1   6 C        2.920    -0.034    28.843     8.807
     2   6 C        2.920    -0.036    28.895     8.815
     3   6 C        2.921    -0.043    29.068     8.841
     4   6 C        2.935     0.047    26.939     8.512
     5   6 C        2.900     0.123    25.292     8.246
     6   6 C        2.918    -0.055    29.370     8.887
     7   8 O        1.708    -0.266    18.403     5.792
     8   6 C        2.899     0.128    25.203     8.231
     9   6 C        2.917    -0.054    29.337     8.882
    10   6 C        2.920    -0.034    28.836     8.806
    11   6 C        2.919    -0.037    28.929     8.820
    12   6 C        2.921    -0.049    29.211     8.863
    13   6 C        2.933     0.039    27.135     8.543
    14   7 N        2.758    -0.070    22.601     7.061
    15   6 C        2.889     0.159    24.568     8.126
    16   6 C        2.911    -0.065    29.614     8.923
    17   6 C        2.922    -0.022    28.545     8.762
    18   6 C        2.984    -0.013    28.331     8.731
    19   6 C        2.916    -0.040    28.985     8.828
    20   6 C        2.916    -0.036    28.902     8.816
    21   6 C        2.919    -0.044    29.081     8.843
    22   6 C        2.923     0.051    26.845     8.497
    23   7 N        2.752    -0.067    22.541     7.051
    24   6 C        2.923     0.047    26.949     8.513
    25   6 C        2.924    -0.062    29.539     8.913
    26   6 C        2.919    -0.040    29.000     8.831
    27   6 C        2.919    -0.043    29.079     8.843
    28   6 C        2.919    -0.059    29.477     8.903
    29   6 C        2.882     0.121    25.331     8.251
    30   8 O        1.708    -0.272    18.503     5.808
    31   6 C        2.883     0.122    25.325     8.250
    32   6 C        2.920    -0.060    29.490     8.905
    33   6 C        2.919    -0.044    29.096     8.846
    34   6 C        2.919    -0.042    29.035     8.836
    35   6 C        2.924    -0.057    29.427     8.896
    36   6 C        2.926     0.053    26.812     8.492
    37   6 C        2.966     0.087    26.061     8.374
    38   7 N        1.852    -0.293    28.451     7.906
    39   1 H        0.926     0.052     2.291     2.367
    40   1 H        0.926     0.049     2.332     2.388
    41   1 H        0.926     0.059     2.205     2.322
    42   1 H        0.926     0.057     2.234     2.337
    43   1 H        0.926     0.058     2.222     2.331
    44   1 H        0.926     0.054     2.269     2.356
    45   1 H        0.926     0.052     2.292     2.367
    46   1 H        0.926     0.049     2.338     2.391
    47   1 H        0.926     0.041     2.430     2.438
    48   1 H        0.926     0.043     2.405     2.425
    49   1 H        0.926     0.043     2.412     2.429
    50   1 H        0.926     0.045     2.387     2.416
    51   1 H        0.926     0.045     2.380     2.413
    52   1 H        0.926     0.033     2.545     2.495
    53   1 H        0.926     0.039     2.466     2.456
    54   1 H        0.926     0.041     2.442     2.443
    55   1 H        0.926     0.047     2.359     2.402
    56   1 H        0.926     0.049     2.336     2.390
    57   1 H        0.926     0.041     2.442     2.444
    58   1 H        0.926     0.036     2.509     2.477
    59   1 H        0.926     0.027     2.626     2.534

molecular dipole:
                 x           y           z       tot (Debye)
 q only:        0.868      -0.800      -0.380
   full:        1.038      -1.279      -0.222       4.226

 projected vibrational frequencies (cm⁻¹)
eigval :       -0.00    -0.00     0.00     0.00     0.00     0.00
eigval :       10.55    21.97    29.41    38.64    47.93    63.67
eigval :       66.86    82.22   102.61   118.35   123.52   139.49
eigval :      172.68   176.46   189.33   213.33   219.19   238.28
eigval :      250.55   259.70   280.82   301.47   307.92   320.61
eigval :      347.32   372.45   390.51   396.04   399.77   408.24
eigval :      423.64   428.47   434.08   448.14   459.35   470.49
eigval :      492.58   506.21   506.87   511.31   518.70   530.69
eigval :      534.95   542.64   551.76   559.54   573.21   588.89
eigval :      596.65   617.00   633.62   658.18   661.06   662.04
eigval :      663.36   673.18   683.83   695.11   731.24   775.88
eigval :      777.30   778.24   780.22   781.92   785.64   793.23
eigval :      826.09   832.85   834.85   851.49   851.93   861.30
eigval :      862.80   872.47   880.94   882.08   892.86   893.45
eigval :      896.43   905.70   907.66   912.65   913.17   913.88
eigval :      915.07   918.51   918.70   920.58   937.80   992.77
eigval :     1056.54  1080.68  1082.44  1088.29  1090.28  1102.70
eigval :     1105.43  1106.25  1118.54  1131.91  1162.01  1170.00
eigval :     1172.62  1172.92  1174.54  1180.51  1182.74  1186.74
eigval :     1193.70  1196.39  1220.86  1222.63  1233.84  1237.38
eigval :     1241.41  1249.11  1259.42  1288.07  1297.35  1306.29
eigval :     1308.61  1317.81  1327.87  1332.87  1338.08  1353.71
eigval :     1359.84  1378.35  1417.95  1422.81  1426.35  1439.12
eigval :     1442.47  1454.36  1461.47  1484.09  1487.66  1489.90
eigval :     1504.77  1536.60  1565.80  1573.60  1575.74  1580.01
eigval :     1581.46  1588.42  1589.76  1592.23  1596.78  1604.63
eigval :     3066.69  3073.86  3080.58  3082.50  3083.88  3089.53
eigval :     3092.05  3092.83  3093.48  3095.23  3095.34  3098.15
eigval :     3099.05  3102.61  3103.00  3106.06  3106.64  3107.30
eigval :     3109.81  3111.08  3135.38

   temp. (K)  partition function   enthalpy   heat capacity  entropy
                                   cal/mol     cal/K/mol   cal/K/mol   J/K/mol
 298.15  VIB  0.229E+12            16075.189    107.648     96.961
         ROT  0.264E+08              888.752      2.981     36.942
         INT  0.606E+19            16963.941    110.629    133.903
         TR   0.105E+29             1481.254      4.968     44.444
         TOT                       18445.1948   115.5967   178.3477   746.2067

       T/K    H(0)-H(T)+PV         H(T)/Eh          T*S/Eh         G(T)/Eh
   ------------------------------------------------------------------------
    298.15    0.293943E-01    0.470869E+00    0.847387E-01    0.386130E+00
   ------------------------------------------------------------------------

         :::::::::::::::::::::::::::::::::::::::::::::::::::::
         ::                  THERMODYNAMIC                  ::
         :::::::::::::::::::::::::::::::::::::::::::::::::::::
         :: total free energy         -97.990711927755 Eh   ::
         ::.................................................::
         :: total energy              -98.376841875692 Eh   ::
         :: zero point energy           0.441474401593 Eh   ::
         :: G(RRHO) w/o ZPVE           -0.055344453656 Eh   ::
         :: G(RRHO) contrib.            0.386129947937 Eh   ::
         :::::::::::::::::::::::::::::::::::::::::::::::::::::

           -------------------------------------------------
          | TOTAL ENERGY              -98.376841875692 Eh   |
          | TOTAL ENTHALPY            -97.905973185196 Eh   |
          | TOTAL FREE ENERGY         -97.990711927755 Eh   |
          | GRADIENT NORM               0.000070999779 Eh/α |
          | HOMO-LUMO GAP               1.671493306374 eV   |
           -------------------------------------------------

 * finished run on 2025/08/22 at 14:52:37.065
