   * xtb version 6.7.1 (edcfbbe) compiled by 'albert@albert-system' on 2024-07-22

   ID    Z sym.   atoms
    1    6 C      1-6, 8-13, 15-22, 24-29, 31-37
    2    8 O      7, 30
    3    7 N      14, 23, 38
    4    1 H      39-59

          program call               : xtb data2507/toluene/Fene/Fene_toluene_T1_crest.xyz --gfn 2 --uhf 2 --gbsa toluene --ohess vtight --parallel 40 --molden --ceasefiles --namespace data2507/toluene/Fene/Fene_toluene_T1_finalOpt
      * Solvation model:               GBSA
        Solvent                        toluene
        Solvent mass                       9.2140E+01 g/mol
          :  Hamiltonian                  GFN2-xTB          :
 * total energy  :   -98.3027443 Eh     change       -0.5335664E-08 Eh
 * total energy  :   -98.3028115 Eh     change       -0.6715544E-04 Eh
 * total energy  :   -98.3029205 Eh     change       -0.1090305E-03 Eh
 * total energy  :   -98.3029676 Eh     change       -0.4714444E-04 Eh
 * total energy  :   -98.3030717 Eh     change       -0.1040462E-03 Eh
 * total energy  :   -98.3031645 Eh     change       -0.9279697E-04 Eh
 * total energy  :   -98.3031609 Eh     change        0.3522836E-05 Eh
 * total energy  :   -98.3031984 Eh     change       -0.3745655E-04 Eh
 * total energy  :   -98.3032332 Eh     change       -0.3479388E-04 Eh
 * total energy  :   -98.3032517 Eh     change       -0.1851224E-04 Eh
 * total energy  :   -98.3045919 Eh     change       -0.2805650E-06 Eh
 * total energy  :   -98.3045922 Eh     change       -0.2538556E-06 Eh
 * total energy  :   -98.3045925 Eh     change       -0.2612554E-06 Eh
 * total energy  :   -98.3045928 Eh     change       -0.3180253E-06 Eh
 * total energy  :   -98.3045930 Eh     change       -0.2643515E-06 Eh
 * total energy  :   -98.3045932 Eh     change       -0.1670358E-06 Eh
 * total energy  :   -98.3045932 Eh     change        0.2950007E-07 Eh
 * total energy  :   -98.3045934 Eh     change       -0.2023525E-06 Eh
 * total energy  :   -98.3045935 Eh     change       -0.8124084E-07 Eh
   *** GEOMETRY OPTIMIZATION CONVERGED AFTER 67 ITERATIONS ***

 final structure:
================
59
 xtb: 6.7.1 (edcfbbe)
C           -5.84815975370682       -0.55327979842873        0.76697030559675
C           -5.00939479967209       -1.65370335205534        0.78997550057956
C           -3.74816637836269       -1.58719585336179        0.22434235233372
C           -3.29947046597768       -0.41825292204733       -0.38645969630415
C           -4.14548090252583        0.70313156047384       -0.36915229808482
C           -5.40803212560507        0.62932268023919        0.19476383057497
O           -3.76402041313885        1.91631971209926       -0.87868009034517
C           -2.49768530810842        2.01870093736510       -1.39150532404044
C           -2.10062134692337        3.26332435532603       -1.84916182760222
C           -0.84100890707702        3.43158319931308       -2.40295347502522
C            0.00801449567132        2.34480707142303       -2.51564089169046
C           -0.38595605026325        1.09722185338461       -2.06459911036380
C           -1.63209704598504        0.91595415819034       -1.46842562839543
N           -2.04640697525250       -0.31943194186819       -0.98326682033910
C           -1.12151419254833       -1.38116611683005       -0.91538318013309
C           -1.36175655780784       -2.61014147325360       -1.49664480588573
C           -0.40585699057620       -3.61511507345398       -1.37023747773235
C            0.78770486343208       -3.37012572459292       -0.65335694911414
C            1.78559754825705       -4.32399457380428       -0.43301406540039
C            2.93449734520223       -4.00635290411893        0.29594792278537
C            3.12039202890336       -2.73734627411323        0.79197220849584
C            2.14401209128161       -1.74934681609776        0.58379716067822
N            2.34012531086722       -0.41550227647908        0.99227038117887
C            1.33530156139135        0.20672381340711        1.71496615016092
C            0.36080397575377       -0.52861478202161        2.39754596327551
C           -0.66026398770732        0.11150527626219        3.07044248610382
C           -0.72865873121088        1.49676361099062        3.09288927382586
C            0.25896612919725        2.24494327404051        2.47430373034850
C            1.29088666708419        1.60858497098818        1.80292357476221
O            2.25779622105759        2.39509526589285        1.24736892389127
C            3.26878373998528        1.77471504119676        0.57048670861437
C            4.24456517679210        2.59084488377386        0.01759176442077
C            5.27654164687406        2.03925154786885       -0.72074472784167
C            5.31398659059154        0.66946468297005       -0.92708961794972
C            4.34447281973041       -0.15030700871781       -0.37986966748172
C            3.31841373149770        0.37914328282224        0.40308335142774
C            0.94356662851603       -2.05713649871536       -0.10882674523345
N            0.01028581393371       -1.11522948474859       -0.23109850123800
H           -6.83431490018210       -0.60562465107551        1.20017395223903
H           -5.33217858596862       -2.57415066513218        1.25155648994703
H           -3.09496355937624       -2.44433793739372        0.26162981666715
H           -6.02565779757639        1.51336924719595        0.18043186108280
H           -2.79480582368889        4.08456818216578       -1.76628744774640
H           -0.53544814296513        4.40460210064437       -2.75353731858980
H            0.98385034950956        2.46026131510625       -2.96231408128352
H            0.27702794579795        0.25392600039936       -2.16528095890948
H           -2.26994998476864       -2.77438390043503       -2.05783531521308
H           -0.55863306538151       -4.57686657031367       -1.83621114547060
H            1.64417573774463       -5.32684899056881       -0.80963473937247
H            3.67657198234502       -4.77023504478460        0.47705696240840
H            3.99373420078677       -2.49350813108120        1.37883762103908
H            0.42147897776485       -1.60497983974956        2.39520562201664
H           -1.41123764942287       -0.47513543658069        3.57705505592958
H           -1.53669908297766        1.99502033374544        3.60505748774155
H            0.25060810767319        3.32301989516733        2.49867004946846
H            4.16569898660632        3.65508475885908        0.17274942471533
H            6.03485069832010        2.67796663250249       -1.14489974150995
H            6.09938404806742        0.23168304219221       -1.52341915802294
H            4.37056623491904       -1.21140476496737       -0.56608316429025

          :  Hamiltonian                  GFN2-xTB          :
         :: gradient norm              0.000074572872 Eh/a0 ::
         :: HOMO-LUMO gap              0.459795500302 eV    ::
         :: SCC energy               -99.973760666413 Eh    ::
         :: -> dispersion             -0.087284620353 Eh    ::
         :: -> Gsolv                  -0.039036575162 Eh    ::
         :: repulsion energy           1.669167184620 Eh    ::

    * Orbital Energies and Occupations

         #    Occupation            Energy/Eh            Energy/eV
      -------------------------------------------------------------
         1        2.0000           -0.7472735             -20.3343
       ...           ...                  ...                  ...
        79        2.0000           -0.4252864             -11.5726
        80        2.0000           -0.4235877             -11.5264
        81        2.0000           -0.4216544             -11.4738
        82        2.0000           -0.4194874             -11.4148
        83        2.0000           -0.4175767             -11.3628
        84        2.0000           -0.4017500             -10.9322
        85        2.0000           -0.4006837             -10.9032
        86        2.0000           -0.3957320             -10.7684
        87        2.0000           -0.3754608             -10.2168
        88        2.0000           -0.3652203              -9.9381
        89        1.9870           -0.3531883              -9.6107
        90        1.0130           -0.3449656              -9.3870
        91        0.9999           -0.2672861              -7.2732 (HOMO)
        92        0.0001           -0.2503891              -6.8134 (LUMO)
        93        0.0000           -0.2473113              -6.7297
        94                         -0.2392833              -6.5112
        95                         -0.2370064              -6.4493
        96                         -0.2269551              -6.1758
        97                         -0.2246874              -6.1141
        98                         -0.2187230              -5.9518
        99                         -0.2092951              -5.6952
       100                         -0.2033626              -5.5338
       101                         -0.1880161              -5.1162
       102                         -0.1445760              -3.9341
       ...                                ...                  ...
       173                          0.6938479              18.8806
      -------------------------------------------------------------
                  HL-Gap            0.0168970 Eh            0.4598 eV

     #   Z          covCN         q      C6AA      α(0)
     1   6 C        2.919    -0.036    28.890     8.814
     2   6 C        2.918    -0.035    28.869     8.811
     3   6 C        2.922    -0.054    29.353     8.885
     4   6 C        2.923     0.048    26.929     8.510
     5   6 C        2.885     0.126    25.238     8.236
     6   6 C        2.918    -0.056    29.379     8.888
     7   8 O        1.709    -0.248    18.103     5.745
     8   6 C        2.885     0.125    25.260     8.240
     9   6 C        2.918    -0.057    29.411     8.893
    10   6 C        2.919    -0.036    28.886     8.814
    11   6 C        2.918    -0.036    28.904     8.816
    12   6 C        2.923    -0.050    29.244     8.868
    13   6 C        2.927     0.053    26.802     8.490
    14   7 N        2.754    -0.055    22.300     7.014
    15   6 C        2.886     0.124    25.286     8.244
    16   6 C        2.907    -0.066    29.649     8.928
    17   6 C        2.923    -0.070    29.736     8.943
    18   6 C        2.974    -0.008    28.204     8.711
    19   6 C        2.915    -0.070    29.746     8.944
    20   6 C        2.912    -0.046    29.150     8.853
    21   6 C        2.912    -0.059    29.476     8.903
    22   6 C        2.928     0.009    27.827     8.651
    23   7 N        2.751    -0.018    21.606     6.904
    24   6 C        2.933     0.058    26.702     8.475
    25   6 C        2.922    -0.038    28.937     8.821
    26   6 C        2.917    -0.034    28.846     8.807
    27   6 C        2.919    -0.032    28.799     8.800
    28   6 C        2.916    -0.057    29.415     8.894
    29   6 C        2.887     0.130    25.152     8.222
    30   8 O        1.710    -0.232    17.848     5.704
    31   6 C        2.887     0.129    25.165     8.224
    32   6 C        2.917    -0.054    29.331     8.881
    33   6 C        2.918    -0.032    28.792     8.799
    34   6 C        2.918    -0.033    28.818     8.803
    35   6 C        2.922    -0.052    29.286     8.874
    36   6 C        2.925     0.047    26.948     8.513
    37   6 C        2.950     0.092    25.964     8.357
    38   7 N        1.848    -0.311    28.901     7.968
    39   1 H        0.926     0.053     2.288     2.365
    40   1 H        0.926     0.049     2.328     2.386
    41   1 H        0.926     0.045     2.387     2.416
    42   1 H        0.926     0.058     2.220     2.330
    43   1 H        0.926     0.058     2.223     2.331
    44   1 H        0.926     0.052     2.290     2.367
    45   1 H        0.926     0.046     2.370     2.407
    46   1 H        0.926     0.044     2.391     2.418
    47   1 H        0.926     0.017     2.781     2.608
    48   1 H        0.926     0.011     2.871     2.650
    49   1 H        0.926     0.013     2.847     2.638
    50   1 H        0.926     0.020     2.733     2.585
    51   1 H        0.926     0.027     2.631     2.536
    52   1 H        0.926     0.049     2.338     2.391
    53   1 H        0.926     0.049     2.329     2.387
    54   1 H        0.926     0.054     2.275     2.359
    55   1 H        0.926     0.060     2.201     2.320
    56   1 H        0.926     0.062     2.173     2.305
    57   1 H        0.926     0.057     2.237     2.339
    58   1 H        0.926     0.054     2.274     2.358
    59   1 H        0.926     0.056     2.246     2.344

molecular dipole:
                 x           y           z       tot (Debye)
 q only:        0.193       1.554       0.487
   full:        0.145       1.100       0.294       2.917

 projected vibrational frequencies (cm⁻¹)
eigval :       -0.00    -0.00    -0.00    -0.00     0.00     0.00
eigval :       14.82    15.52    25.55    38.19    42.26    54.80
eigval :       66.37    73.88   111.06   116.83   127.55   132.59
eigval :      164.70   180.18   203.84   209.69   230.14   246.63
eigval :      250.05   253.34   274.53   288.47   309.31   322.27
eigval :      340.91   367.74   379.34   391.65   398.57   421.65
eigval :      425.78   431.21   434.44   436.79   457.55   475.19
eigval :      491.09   499.95   500.52   503.48   505.93   520.53
eigval :      526.47   535.42   546.27   560.02   567.92   577.03
eigval :      595.45   611.01   615.48   628.34   664.41   666.34
eigval :      669.29   672.68   674.38   680.82   691.41   729.72
eigval :      759.40   770.17   771.90   776.11   776.56   777.72
eigval :      779.22   822.26   826.26   828.55   848.45   854.19
eigval :      855.98   856.52   862.24   865.07   868.64   870.33
eigval :      889.69   893.52   897.37   899.34   906.24   909.05
eigval :      912.13   912.95   914.59   917.54   917.86   982.35
eigval :     1048.94  1082.22  1085.25  1085.65  1088.50  1100.43
eigval :     1109.55  1110.49  1114.46  1125.00  1134.98  1168.53
eigval :     1169.62  1170.79  1173.16  1179.64  1184.69  1189.09
eigval :     1204.05  1208.76  1209.72  1219.85  1221.47  1236.95
eigval :     1237.25  1250.63  1252.62  1271.45  1285.59  1299.15
eigval :     1304.89  1309.50  1313.41  1320.49  1324.41  1342.34
eigval :     1346.10  1356.40  1373.93  1386.53  1405.31  1412.19
eigval :     1416.26  1435.06  1438.40  1439.72  1451.53  1462.62
eigval :     1474.82  1478.87  1505.94  1533.82  1546.30  1552.29
eigval :     1554.75  1561.71  1565.32  1574.96  1580.80  1588.05
eigval :     3064.14  3066.37  3071.51  3078.44  3084.69  3087.87
eigval :     3089.30  3089.81  3093.94  3099.22  3099.58  3099.94
eigval :     3102.39  3107.12  3108.06  3110.54  3111.12  3111.78
eigval :     3112.18  3117.96  3118.52

   temp. (K)  partition function   enthalpy   heat capacity  entropy
                                   cal/mol     cal/K/mol   cal/K/mol   J/K/mol
 298.15  VIB  0.392E+12            16262.262    108.635     97.880
         ROT  0.248E+08              888.752      2.981     36.820
         INT  0.973E+19            17151.014    111.615    134.700
         TR   0.105E+29             1481.254      4.968     44.444
         TOT                       18632.2683   116.5835   179.1445   749.5407

       T/K    H(0)-H(T)+PV         H(T)/Eh          T*S/Eh         G(T)/Eh
   ------------------------------------------------------------------------
    298.15    0.296924E-01    0.467714E+00    0.851173E-01    0.382597E+00
   ------------------------------------------------------------------------

         :::::::::::::::::::::::::::::::::::::::::::::::::::::
         ::                  THERMODYNAMIC                  ::
         :::::::::::::::::::::::::::::::::::::::::::::::::::::
         :: total free energy         -97.921996711873 Eh   ::
         ::.................................................::
         :: total energy              -98.304593484905 Eh   ::
         :: zero point energy           0.438021706056 Eh   ::
         :: G(RRHO) w/o ZPVE           -0.055424933024 Eh   ::
         :: G(RRHO) contrib.            0.382596773032 Eh   ::
         :::::::::::::::::::::::::::::::::::::::::::::::::::::

           -------------------------------------------------
          | TOTAL ENERGY              -98.304593484905 Eh   |
          | TOTAL ENTHALPY            -97.836879369321 Eh   |
          | TOTAL FREE ENERGY         -97.921996711873 Eh   |
          | GRADIENT NORM               0.000073908815 Eh/α |
          | HOMO-LUMO GAP               0.459790368860 eV   |
           -------------------------------------------------

 * finished run on 2025/08/22 at 14:55:38.705
