   * xtb version 6.7.1 (edcfbbe) compiled by 'albert@albert-system' on 2024-07-22

   ID    Z sym.   atoms
    1    6 C      1-6, 8-13, 15-22, 24-29, 31-37
    2    8 O      7, 30
    3    7 N      14, 23, 38
    4    1 H      39-59

          program call               : xtb data2507/toluene/Fene/Fene_toluene_S0_finalOpt.xtbopt.xyz --gfn 2 --uhf 2 --gbsa toluene --ohess vtight --parallel 40 --molden --ceasefiles --namespace data2507/toluene/Fene/Fene_toluene_T1_preOpt
      * Solvation model:               GBSA
        Solvent                        toluene
        Solvent mass                       9.2140E+01 g/mol
          :  Hamiltonian                  GFN2-xTB          :
 * total energy  :   -98.2910063 Eh     change       -0.5038146E-08 Eh
 * total energy  :   -98.2950703 Eh     change       -0.4063960E-02 Eh
 * total energy  :   -98.2963681 Eh     change       -0.1297839E-02 Eh
 * total energy  :   -98.2965341 Eh     change       -0.1659541E-03 Eh
 * total energy  :   -98.2966915 Eh     change       -0.1573821E-03 Eh
 * total energy  :   -98.2967677 Eh     change       -0.7620892E-04 Eh
 * total energy  :   -98.2968630 Eh     change       -0.9534603E-04 Eh
 * total energy  :   -98.2969438 Eh     change       -0.8078472E-04 Eh
 * total energy  :   -98.2970049 Eh     change       -0.6110111E-04 Eh
 * total energy  :   -98.2970528 Eh     change       -0.4787487E-04 Eh
 * total energy  :   -98.2976159 Eh     change       -0.1307423E-05 Eh
 * total energy  :   -98.2976172 Eh     change       -0.1295714E-05 Eh
 * total energy  :   -98.2976184 Eh     change       -0.1246511E-05 Eh
 * total energy  :   -98.2976196 Eh     change       -0.1185082E-05 Eh
 * total energy  :   -98.2976207 Eh     change       -0.1127751E-05 Eh
 * total energy  :   -98.2976218 Eh     change       -0.1061607E-05 Eh
 * total energy  :   -98.2976228 Eh     change       -0.1011486E-05 Eh
 * total energy  :   -98.2976238 Eh     change       -0.9785532E-06 Eh
 * total energy  :   -98.2976238 Eh     change       -0.5804281E-08 Eh
   *** GEOMETRY OPTIMIZATION CONVERGED AFTER 94 ITERATIONS ***

 final structure:
================
59
 xtb: 6.7.1 (edcfbbe)
C            0.85346897377090        3.61929258210556       -0.45041205727172
C            0.10327168400673        2.61345653626272       -1.03532025379194
C            0.56777494525933        1.31045346634943       -1.05637109313701
C            1.79306602645830        0.99701030505685       -0.47720050561513
C            2.57649874027352        2.03299970298513        0.04912231701781
C            2.10213382672983        3.33306860628542        0.07830801559972
O            3.83894385217319        1.78557462043099        0.53543274409711
C            4.45800873417948        0.69096587070307       -0.01567719635538
C            5.84211452374259        0.66572785321643       -0.06068464200733
C            6.49153777203511       -0.39690899171385       -0.66833334508050
C            5.75416942468361       -1.40287718047560       -1.27113358434610
C            4.37185400202784       -1.38719311116063       -1.21900374839508
C            3.70487595580010       -0.36775987298458       -0.54344501367075
N            2.30962350568812       -0.30710164939036       -0.41876196061220
C            1.51508604114564       -1.38879216473196       -0.05706991642817
C            2.01883408839183       -2.64600924646878        0.24547260983634
C            1.13133494611921       -3.67029657655680        0.55987325549156
C           -0.25685168474032       -3.42315363124458        0.59936354962922
C           -1.22300425567896       -4.39553288922836        0.87074875530735
C           -2.58207969192076       -4.05933281335309        0.93409356246725
C           -2.99068306404288       -2.76403329044378        0.74704560246540
C           -2.04082993705160       -1.74802357070860        0.50311778580772
N           -2.46136759679748       -0.42035100057068        0.33435338040077
C           -3.30526900868466       -0.06413284657502       -0.70659360315805
C           -3.77521056871303       -0.99350942095227       -1.63747779995268
C           -4.62640420159794       -0.60585827023666       -2.65445796049773
C           -5.01776889951909        0.71859524508323       -2.77979744403065
C           -4.53105736457649        1.66394295559536       -1.89349158204534
C           -3.67689394963685        1.28313146170310       -0.86963629630764
O           -3.20307117213553        2.27008852539560       -0.05518567202502
C           -2.34508302934066        1.91327125852375        0.94441313493252
C           -1.87598367967483        2.92756085219201        1.76494814938657
C           -1.03770499104617        2.62847856753103        2.82405555192432
C           -0.69611440651306        1.30873233959852        3.07803584513856
C           -1.16440185282519        0.29275992050157        2.26832219889558
C           -1.97117339078521        0.57640031980750        1.16474064691168
C           -0.65881118088350       -2.06476120198177        0.39333853143378
N            0.20141233879865       -1.09994313727355        0.08473235677454
H            0.48371695374597        4.63208944179869       -0.42547809630470
H           -0.84757517383528        2.84649060257185       -1.48920048068714
H           -0.01388917209449        0.52258822115313       -1.50395189905969
H            2.72146019976538        4.10107503255722        0.51387207713074
H            6.38906865838700        1.48346712851458        0.38115723354261
H            7.56951192164462       -0.42144134187046       -0.69260854088383
H            6.25522473149991       -2.20717943874215       -1.78764369252328
H            3.79945410906378       -2.15768628340206       -1.71120348297470
H            3.07829641596721       -2.84113040285166        0.25220033841201
H            1.50164402197622       -4.66380295836364        0.76676319974563
H           -0.90859371860608       -5.41265511867702        1.05556267811174
H           -3.30775723148356       -4.82796381952704        1.15734309843264
H           -4.03165810745137       -2.49000409710584        0.83625514372187
H           -3.45727220340552       -2.02052129485464       -1.55906387301630
H           -4.97874149246603       -1.34406440290318       -3.35797185820916
H           -5.68398907367176        1.01918937969542       -3.57258556642632
H           -4.79350165335734        2.70635167844804       -1.97896385088835
H           -2.18593525194515        3.93889960770637        1.55714541710476
H           -0.66809503048781        3.42003866032682        3.45611772710479
H           -0.06642013123893        1.06496644835976        3.91986640093243
H           -0.91555285617952       -0.73200006594908        2.48814944755875

          :  Hamiltonian                  GFN2-xTB          :
         :: gradient norm              0.000063341405 Eh/a0 ::
         :: HOMO-LUMO gap              0.279336645752 eV    ::
         :: SCC energy               -99.965772178572 Eh    ::
         :: -> dispersion             -0.090581508428 Eh    ::
         :: -> Gsolv                  -0.037214748680 Eh    ::
         :: repulsion energy           1.668148407392 Eh    ::

    * Orbital Energies and Occupations

         #    Occupation            Energy/Eh            Energy/eV
      -------------------------------------------------------------
         1        2.0000           -0.7496085             -20.3979
       ...           ...                  ...                  ...
        79        2.0000           -0.4242690             -11.5449
        80        2.0000           -0.4219859             -11.4828
        81        2.0000           -0.4198431             -11.4245
        82        2.0000           -0.4173524             -11.3567
        83        2.0000           -0.4137556             -11.2589
        84        2.0000           -0.4060194             -11.0484
        85        2.0000           -0.4021530             -10.9431
        86        2.0000           -0.3927331             -10.6868
        87        2.0000           -0.3747579             -10.1977
        88        1.9999           -0.3601396              -9.7999
        89        1.9853           -0.3548224              -9.6552
        90        1.0148           -0.3468412              -9.4380
        91        0.9955           -0.2628770              -7.1532 (HOMO)
        92        0.0045           -0.2526114              -6.8739 (LUMO)
        93                         -0.2414513              -6.5702
        94                         -0.2406404              -6.5482
        95                         -0.2359182              -6.4197
        96                         -0.2306255              -6.2756
        97                         -0.2257490              -6.1429
        98                         -0.2195196              -5.9734
        99                         -0.2107930              -5.7360
       100                         -0.2059757              -5.6049
       101                         -0.1853646              -5.0440
       102                         -0.1376072              -3.7445
       ...                                ...                  ...
       173                          0.6993102              19.0292
      -------------------------------------------------------------
                  HL-Gap            0.0102656 Eh            0.2793 eV

     #   Z          covCN         q      C6AA      α(0)
     1   6 C        2.920    -0.036    28.906     8.817
     2   6 C        2.919    -0.038    28.947     8.823
     3   6 C        2.920    -0.045    29.111     8.848
     4   6 C        2.939     0.052    26.839     8.497
     5   6 C        2.901     0.125    25.266     8.242
     6   6 C        2.917    -0.057    29.423     8.895
     7   8 O        1.708    -0.259    18.295     5.775
     8   6 C        2.900     0.126    25.230     8.236
     9   6 C        2.917    -0.055    29.374     8.888
    10   6 C        2.920    -0.036    28.898     8.815
    11   6 C        2.918    -0.037    28.914     8.818
    12   6 C        2.920    -0.050    29.236     8.867
    13   6 C        2.935     0.041    27.080     8.534
    14   7 N        2.757    -0.059    22.377     7.026
    15   6 C        2.878     0.132    25.107     8.214
    16   6 C        2.907    -0.080    30.011     8.983
    17   6 C        2.923    -0.065    29.614     8.924
    18   6 C        2.974    -0.013    28.336     8.732
    19   6 C        2.915    -0.070    29.743     8.943
    20   6 C        2.911    -0.043    29.065     8.840
    21   6 C        2.911    -0.061    29.523     8.910
    22   6 C        2.925     0.008    27.834     8.652
    23   7 N        2.751    -0.004    21.342     6.861
    24   6 C        2.926     0.046    26.976     8.518
    25   6 C        2.921    -0.049    29.229     8.866
    26   6 C        2.918    -0.032    28.793     8.799
    27   6 C        2.919    -0.031    28.774     8.796
    28   6 C        2.917    -0.054    29.331     8.881
    29   6 C        2.887     0.130    25.157     8.223
    30   8 O        1.710    -0.226    17.751     5.689
    31   6 C        2.888     0.131    25.140     8.220
    32   6 C        2.917    -0.055    29.361     8.886
    33   6 C        2.919    -0.032    28.787     8.798
    34   6 C        2.918    -0.033    28.816     8.803
    35   6 C        2.922    -0.043    29.057     8.840
    36   6 C        2.928     0.053    26.820     8.493
    37   6 C        2.947     0.094    25.902     8.347
    38   7 N        1.851    -0.317    29.075     7.992
    39   1 H        0.926     0.053     2.280     2.361
    40   1 H        0.926     0.045     2.381     2.413
    41   1 H        0.926     0.055     2.253     2.347
    42   1 H        0.926     0.057     2.234     2.338
    43   1 H        0.926     0.057     2.236     2.338
    44   1 H        0.926     0.052     2.297     2.370
    45   1 H        0.926     0.049     2.327     2.385
    46   1 H        0.926     0.048     2.344     2.394
    47   1 H        0.926     0.014     2.820     2.626
    48   1 H        0.926     0.005     2.976     2.698
    49   1 H        0.926     0.011     2.877     2.652
    50   1 H        0.926     0.021     2.724     2.581
    51   1 H        0.926     0.024     2.680     2.560
    52   1 H        0.926     0.054     2.267     2.355
    53   1 H        0.926     0.054     2.267     2.355
    54   1 H        0.926     0.058     2.225     2.333
    55   1 H        0.926     0.064     2.153     2.294
    56   1 H        0.926     0.066     2.132     2.283
    57   1 H        0.926     0.058     2.228     2.334
    58   1 H        0.926     0.050     2.321     2.383
    59   1 H        0.926     0.048     2.344     2.394

molecular dipole:
                 x           y           z       tot (Debye)
 q only:       -0.723       1.840      -0.674
   full:       -0.561       1.290      -0.557       3.846

 projected vibrational frequencies (cm⁻¹)
eigval :       -0.00    -0.00     0.00     0.00     0.00     0.00
eigval :        9.20    22.34    35.49    38.32    53.02    61.82
eigval :       64.42    83.98   105.14   115.97   123.14   138.23
eigval :      172.86   181.69   191.45   210.12   219.24   238.41
eigval :      247.39   260.41   284.36   296.23   302.36   320.28
eigval :      359.77   360.98   367.90   396.30   403.60   405.72
eigval :      423.78   432.14   435.45   449.42   457.20   462.07
eigval :      483.14   492.27   496.65   502.93   510.04   529.41
eigval :      536.36   540.54   545.03   550.41   565.54   578.47
eigval :      592.20   602.20   613.74   627.56   657.09   665.17
eigval :      668.58   671.94   680.06   687.62   692.79   728.36
eigval :      758.73   766.24   772.87   777.11   777.36   778.98
eigval :      787.94   813.80   823.69   827.27   838.61   848.04
eigval :      854.26   855.70   859.54   863.28   867.13   882.47
eigval :      884.57   892.72   894.89   903.73   906.52   907.93
eigval :      909.64   913.40   916.65   917.94   930.18   978.90
eigval :     1050.11  1078.00  1079.41  1082.36  1083.81  1097.31
eigval :     1103.73  1113.84  1118.93  1123.21  1138.87  1166.76
eigval :     1169.30  1170.25  1171.92  1178.06  1180.92  1187.80
eigval :     1194.18  1209.56  1211.76  1220.84  1221.50  1234.41
eigval :     1235.45  1246.58  1249.81  1280.64  1289.91  1294.84
eigval :     1307.55  1314.36  1317.53  1322.13  1332.51  1335.75
eigval :     1343.25  1358.95  1383.33  1386.67  1408.51  1412.95
eigval :     1422.69  1432.73  1437.26  1437.56  1442.37  1460.65
eigval :     1467.85  1473.70  1495.20  1524.44  1540.23  1543.58
eigval :     1547.16  1548.93  1552.94  1566.73  1574.75  1582.42
eigval :     3062.33  3065.55  3070.42  3083.18  3090.15  3090.27
eigval :     3091.11  3094.67  3097.28  3099.27  3102.97  3103.11
eigval :     3103.45  3104.66  3109.30  3110.23  3112.86  3115.08
eigval :     3116.44  3119.54  3121.58

   temp. (K)  partition function   enthalpy   heat capacity  entropy
                                   cal/mol     cal/K/mol   cal/K/mol   J/K/mol
 298.15  VIB  0.236E+12            16241.827    109.268     97.880
         ROT  0.264E+08              888.752      2.981     36.939
         INT  0.622E+19            17130.579    112.249    134.819
         TR   0.105E+29             1481.254      4.968     44.444
         TOT                       18611.8333   117.2174   179.2638   750.0398

       T/K    H(0)-H(T)+PV         H(T)/Eh          T*S/Eh         G(T)/Eh
   ------------------------------------------------------------------------
    298.15    0.296598E-01    0.467480E+00    0.851740E-01    0.382306E+00
   ------------------------------------------------------------------------

         :::::::::::::::::::::::::::::::::::::::::::::::::::::
         ::                  THERMODYNAMIC                  ::
         :::::::::::::::::::::::::::::::::::::::::::::::::::::
         :: total free energy         -97.915318261941 Eh   ::
         ::.................................................::
         :: total energy              -98.297623771047 Eh   ::
         :: zero point energy           0.437819690045 Eh   ::
         :: G(RRHO) w/o ZPVE           -0.055514180939 Eh   ::
         :: G(RRHO) contrib.            0.382305509106 Eh   ::
         :::::::::::::::::::::::::::::::::::::::::::::::::::::

           -------------------------------------------------
          | TOTAL ENERGY              -98.297623771047 Eh   |
          | TOTAL ENTHALPY            -97.830144236713 Eh   |
          | TOTAL FREE ENERGY         -97.915318261941 Eh   |
          | GRADIENT NORM               0.000063400778 Eh/α |
          | HOMO-LUMO GAP               0.279340438406 eV   |
           -------------------------------------------------

 * finished run on 2025/08/22 at 14:52:44.297
