   * xtb version 6.7.1 (edcfbbe) compiled by 'albert@albert-system' on 2024-07-22

   ID    Z sym.   atoms
    1    6 C      1-6, 8-13, 15-22, 24-29, 31-37
    2    8 O      7, 30
    3    7 N      14, 23, 38
    4    1 H      39-59

          program call               : xtb data2507/toluene/Fene/Fene.xyz --gfn 2 --gbsa toluene --ohess vtight --parallel 40 --molden --ceasefiles --namespace data2507/toluene/Fene/Fene_toluene_S0_preOpt
      * Solvation model:               GBSA
        Solvent                        toluene
        Solvent mass                       9.2140E+01 g/mol
          :  Hamiltonian                  GFN2-xTB          :
 * total energy  :   -98.3535304 Eh     change       -0.1815877E-08 Eh
 * total energy  :   -98.3662191 Eh     change       -0.1268872E-01 Eh
 * total energy  :   -98.3709717 Eh     change       -0.4752573E-02 Eh
 * total energy  :   -98.3721563 Eh     change       -0.1184620E-02 Eh
 * total energy  :   -98.3728375 Eh     change       -0.6812039E-03 Eh
 * total energy  :   -98.3731126 Eh     change       -0.2750937E-03 Eh
 * total energy  :   -98.3733104 Eh     change       -0.1978201E-03 Eh
 * total energy  :   -98.3734755 Eh     change       -0.1650279E-03 Eh
 * total energy  :   -98.3736397 Eh     change       -0.1642160E-03 Eh
 * total energy  :   -98.3738343 Eh     change       -0.1945633E-03 Eh
 * total energy  :   -98.3766414 Eh     change       -0.8770085E-06 Eh
 * total energy  :   -98.3766422 Eh     change       -0.7394445E-06 Eh
 * total energy  :   -98.3766430 Eh     change       -0.7987875E-06 Eh
 * total energy  :   -98.3766439 Eh     change       -0.9449006E-06 Eh
 * total energy  :   -98.3766448 Eh     change       -0.9274290E-06 Eh
 * total energy  :   -98.3766456 Eh     change       -0.7554143E-06 Eh
 * total energy  :   -98.3766461 Eh     change       -0.4825654E-06 Eh
 * total energy  :   -98.3766464 Eh     change       -0.3259202E-06 Eh
 * total energy  :   -98.3766464 Eh     change       -0.4162487E-08 Eh
   *** GEOMETRY OPTIMIZATION CONVERGED AFTER 94 ITERATIONS ***

 final structure:
================
59
 xtb: 6.7.1 (edcfbbe)
C            1.43676108312930        3.89223116184300       -0.86719530360830
C            0.40459671524463        2.97469900193009       -0.92884368760601
C            0.63570968654532        1.63769041342346       -0.64918411536166
C            1.90136163763129        1.20300006177998       -0.28392367205012
C            2.94851819815223        2.13209582101974       -0.25793629481758
C            2.71488984203082        3.46657911773643       -0.54540826466239
O            4.24209605001313        1.76564068401671        0.04301986350258
C            4.53455298927256        0.43916963446445       -0.14931892876161
C            5.85708922228618        0.07864018017583       -0.35487762393137
C            6.18201511582420       -1.24627809977223       -0.59229377524561
C            5.18225338093951       -2.20083879043005       -0.66455894727786
C            3.86060163815183       -1.84355750883205       -0.45928878873955
C            3.52616977645146       -0.52854264193304       -0.15660897662711
N            2.19698809787300       -0.12935914319493        0.08333787427839
C            1.31906006263701       -0.94315031212744        0.76950060835407
C            1.82472183572229       -1.89268477010387        1.70607866826882
C            0.94824710145643       -2.65861569041548        2.41009212402875
C           -0.44604480357604       -2.51199719315373        2.20630005320069
C           -1.41891821985151       -3.25666716884865        2.89408869755175
C           -2.75139861529633       -3.03563331286600        2.66189522028284
C           -3.15881232058758       -2.07266266081722        1.73028467108753
C           -2.23338222316011       -1.32834657163139        1.03967997140259
N           -2.64336973527589       -0.35620129290878        0.09353360639820
C           -2.34379684434922       -0.54843926444842       -1.25388749223694
C           -1.89770843875041       -1.77060307848915       -1.73983827527594
C           -1.62163328612554       -1.93994557732318       -3.08821645326380
C           -1.79685767084024       -0.89486434682925       -3.97268981046206
C           -2.26325295563340        0.32673896850956       -3.50634124025563
C           -2.54148842775294        0.49842026512701       -2.16392381458193
O           -3.02274136525166        1.72881989708274       -1.77495755147165
C           -3.23105644370920        1.92651230742540       -0.42794614889996
C           -3.64028748595411        3.18667250219896       -0.03543560694886
C           -3.85650096385689        3.46654603041185        1.30699246435469
C           -3.64848324532138        2.48006113890099        2.24918596786546
C           -3.23788996819401        1.21363442374138        1.85962763440352
C           -3.03289815935694        0.91284894503668        0.51937844974374
C           -0.84726276818743       -1.52816973105199        1.26696538337498
N            0.03107716804955       -0.77639821868233        0.57963674348630
H            1.25764431049251        4.93484787094274       -1.07858723364439
H           -0.59123962279387        3.29193418894738       -1.19658694506598
H           -0.16210321208960        0.91913677434276       -0.68797007423993
H            3.54521178421709        4.15386879954267       -0.50214417985319
H            6.61203151562289        0.84805920732024       -0.32126758130952
H            7.21357504764186       -1.52490817512139       -0.73944785678774
H            5.42606635894543       -3.22890851550931       -0.88282297240978
H            3.07807153445173       -2.58443981125112       -0.52511023139212
H            2.88701746244774       -1.96575201276992        1.87758724789405
H            1.30184186830998       -3.37126721028426        3.14196664178575
H           -1.09790866107449       -4.00097833433794        3.60833197241259
H           -3.49982564063380       -3.60544369299226        3.19129711626939
H           -4.21083704825501       -1.90781277414288        1.54898406579905
H           -1.76502441562160       -2.59387046727626       -1.05487566203647
H           -1.27214958186353       -2.89906952162441       -3.43954963829263
H           -1.58144135064073       -1.01999450407933       -5.02226853427638
H           -2.41998763398970        1.15998269941257       -4.17336235344831
H           -3.78328336365004        3.93898157255168       -0.79564836371770
H           -4.17785231080233        4.45277012519220        1.60309315740295
H           -3.80305417303123        2.68516363969894        3.29761537280282
H           -3.06967852803982        0.45065696050408        2.60384282256235

          :  Hamiltonian                  GFN2-xTB          :
         :: gradient norm              0.000050138220 Eh/a0 ::
         :: HOMO-LUMO gap              1.614624124656 eV    ::
         :: SCC energy              -100.059903330473 Eh    ::
         :: -> dispersion             -0.087402581552 Eh    ::
         :: -> Gsolv                  -0.037255611893 Eh    ::
         :: repulsion energy           1.683256927864 Eh    ::

    * Orbital Energies and Occupations

         #    Occupation            Energy/Eh            Energy/eV
      -------------------------------------------------------------
         1        2.0000           -0.7370483             -20.0561
       ...           ...                  ...                  ...
        78        2.0000           -0.4309698             -11.7273
        79        2.0000           -0.4233702             -11.5205
        80        2.0000           -0.4211885             -11.4611
        81        2.0000           -0.4203760             -11.4390
        82        2.0000           -0.4161835             -11.3249
        83        2.0000           -0.4126587             -11.2290
        84        2.0000           -0.4097146             -11.1489
        85        2.0000           -0.4024018             -10.9499
        86        2.0000           -0.3970257             -10.8036
        87        2.0000           -0.3883762             -10.5683
        88        2.0000           -0.3755155             -10.2183
        89        2.0000           -0.3592875              -9.7767
        90        2.0000           -0.3400056              -9.2520 (HOMO)
        91                         -0.2806693              -7.6374 (LUMO)
        92                         -0.2492743              -6.7831
        93                         -0.2421762              -6.5900
        94                         -0.2362728              -6.4293
        95                         -0.2350804              -6.3969
        96                         -0.2270459              -6.1782
        97                         -0.2245170              -6.1094
        98                         -0.2169825              -5.9044
        99                         -0.2125687              -5.7843
       100                         -0.2067747              -5.6266
       101                         -0.1932068              -5.2574
       ...                                ...                  ...
       173                          0.6829172              18.5831
      -------------------------------------------------------------
                  HL-Gap            0.0593363 Eh            1.6146 eV

     #   Z          covCN         q      C6AA      α(0)
     1   6 C        2.919    -0.036    28.885     8.813
     2   6 C        2.920    -0.037    28.910     8.817
     3   6 C        2.922    -0.055    29.363     8.886
     4   6 C        2.927     0.045    26.987     8.519
     5   6 C        2.895     0.122    25.312     8.249
     6   6 C        2.919    -0.056    29.394     8.891
     7   8 O        1.708    -0.265    18.396     5.791
     8   6 C        2.894     0.127    25.223     8.234
     9   6 C        2.918    -0.055    29.357     8.885
    10   6 C        2.920    -0.035    28.861     8.810
    11   6 C        2.919    -0.037    28.927     8.820
    12   6 C        2.922    -0.050    29.239     8.867
    13   6 C        2.931     0.040    27.111     8.539
    14   7 N        2.756    -0.071    22.613     7.063
    15   6 C        2.890     0.158    24.581     8.128
    16   6 C        2.912    -0.061    29.506     8.907
    17   6 C        2.921    -0.021    28.535     8.760
    18   6 C        2.984    -0.010    28.268     8.721
    19   6 C        2.916    -0.038    28.956     8.824
    20   6 C        2.916    -0.034    28.857     8.809
    21   6 C        2.919    -0.042    29.048     8.838
    22   6 C        2.924     0.053    26.808     8.491
    23   7 N        2.751    -0.072    22.640     7.067
    24   6 C        2.926     0.052    26.829     8.494
    25   6 C        2.924    -0.057    29.426     8.896
    26   6 C        2.919    -0.041    29.008     8.832
    27   6 C        2.919    -0.043    29.074     8.842
    28   6 C        2.919    -0.059    29.477     8.903
    29   6 C        2.882     0.121    25.333     8.251
    30   8 O        1.708    -0.273    18.534     5.813
    31   6 C        2.882     0.122    25.324     8.250
    32   6 C        2.919    -0.059    29.472     8.902
    33   6 C        2.919    -0.043    29.072     8.842
    34   6 C        2.919    -0.040    28.997     8.830
    35   6 C        2.924    -0.062    29.533     8.912
    36   6 C        2.924     0.047    26.942     8.512
    37   6 C        2.965     0.086    26.085     8.377
    38   7 N        1.849    -0.287    28.296     7.884
    39   1 H        0.926     0.050     2.319     2.381
    40   1 H        0.926     0.045     2.384     2.415
    41   1 H        0.926     0.070     2.091     2.261
    42   1 H        0.926     0.055     2.254     2.348
    43   1 H        0.926     0.057     2.232     2.336
    44   1 H        0.926     0.053     2.282     2.362
    45   1 H        0.926     0.051     2.306     2.375
    46   1 H        0.926     0.044     2.399     2.422
    47   1 H        0.926     0.041     2.436     2.441
    48   1 H        0.926     0.046     2.368     2.406
    49   1 H        0.926     0.046     2.375     2.410
    50   1 H        0.926     0.048     2.349     2.397
    51   1 H        0.926     0.048     2.341     2.393
    52   1 H        0.926     0.029     2.600     2.521
    53   1 H        0.926     0.038     2.482     2.464
    54   1 H        0.926     0.040     2.443     2.444
    55   1 H        0.926     0.047     2.354     2.399
    56   1 H        0.926     0.047     2.358     2.401
    57   1 H        0.926     0.041     2.436     2.441
    58   1 H        0.926     0.039     2.466     2.455
    59   1 H        0.926     0.032     2.555     2.500

molecular dipole:
                 x           y           z       tot (Debye)
 q only:        0.599      -0.910       0.474
   full:        0.761      -1.236       0.833       4.254

 projected vibrational frequencies (cm⁻¹)
eigval :       -0.00    -0.00    -0.00     0.00     0.00     0.00
eigval :        9.53    16.93    25.76    30.20    41.10    62.81
eigval :       64.86    71.91    98.44   111.08   118.37   142.74
eigval :      162.80   169.23   196.32   218.66   221.17   235.24
eigval :      250.68   258.82   277.89   300.17   308.38   318.97
eigval :      340.69   367.89   391.36   395.98   400.05   412.05
eigval :      422.56   426.87   434.55   443.33   456.43   472.31
eigval :      494.66   504.53   508.66   509.96   516.01   527.55
eigval :      533.17   540.20   549.36   561.34   573.15   587.96
eigval :      596.96   617.51   633.75   658.13   660.87   661.51
eigval :      663.27   672.81   683.64   688.81   733.12   773.30
eigval :      775.54   778.76   779.68   780.72   786.70   789.57
eigval :      826.42   834.32   836.69   851.46   853.35   860.48
eigval :      862.00   865.52   876.79   883.47   891.21   893.88
eigval :      896.52   901.51   906.44   907.49   914.41   915.37
eigval :      915.76   917.91   918.44   920.28   929.88   991.15
eigval :     1055.61  1081.98  1084.40  1087.27  1089.83  1100.61
eigval :     1105.08  1106.09  1118.76  1131.26  1159.13  1168.68
eigval :     1171.32  1172.00  1173.94  1179.71  1183.53  1186.88
eigval :     1195.31  1195.64  1219.36  1220.41  1230.59  1237.52
eigval :     1241.08  1249.43  1259.93  1290.20  1295.55  1303.58
eigval :     1307.32  1316.36  1327.90  1331.44  1336.58  1352.34
eigval :     1356.66  1375.45  1414.31  1422.60  1424.63  1439.02
eigval :     1442.10  1454.56  1464.29  1483.23  1485.96  1490.98
eigval :     1503.88  1538.92  1566.41  1571.88  1575.80  1579.63
eigval :     1580.91  1588.06  1589.57  1592.86  1597.05  1604.05
eigval :     3067.58  3075.90  3082.03  3083.87  3084.71  3087.26
eigval :     3091.16  3092.12  3092.82  3094.51  3096.36  3098.33
eigval :     3098.63  3099.03  3100.29  3102.55  3105.81  3107.08
eigval :     3108.05  3111.24  3161.07

   temp. (K)  partition function   enthalpy   heat capacity  entropy
                                   cal/mol     cal/K/mol   cal/K/mol   J/K/mol
 298.15  VIB  0.718E+12            16173.908    107.339     98.085
         ROT  0.270E+08              888.752      2.981     36.982
         INT  0.194E+20            17062.660    110.320    135.068
         TR   0.105E+29             1481.254      4.968     44.444
         TOT                       18543.9140   115.2880   179.5120   751.0781

       T/K    H(0)-H(T)+PV         H(T)/Eh          T*S/Eh         G(T)/Eh
   ------------------------------------------------------------------------
    298.15    0.295516E-01    0.470691E+00    0.852919E-01    0.385399E+00
   ------------------------------------------------------------------------

         :::::::::::::::::::::::::::::::::::::::::::::::::::::
         ::                  THERMODYNAMIC                  ::
         :::::::::::::::::::::::::::::::::::::::::::::::::::::
         :: total free energy         -97.991247123697 Eh   ::
         ::.................................................::
         :: total energy              -98.376646399573 Eh   ::
         :: zero point energy           0.441139595703 Eh   ::
         :: G(RRHO) w/o ZPVE           -0.055740319827 Eh   ::
         :: G(RRHO) contrib.            0.385399275876 Eh   ::
         :::::::::::::::::::::::::::::::::::::::::::::::::::::

           -------------------------------------------------
          | TOTAL ENERGY              -98.376646399573 Eh   |
          | TOTAL ENTHALPY            -97.905955195904 Eh   |
          | TOTAL FREE ENERGY         -97.991247123697 Eh   |
          | GRADIENT NORM               0.000050158766 Eh/α |
          | HOMO-LUMO GAP               1.614623222376 eV   |
           -------------------------------------------------

 * finished run on 2025/08/22 at 14:50:06.700
