   * xtb version 6.7.1 (edcfbbe) compiled by 'albert@albert-system' on 2024-07-22

   ID    Z sym.   atoms
    1    6 C      1-40
    2    1 H      41-70

          program call               : xtb data2507/toluene/DPVBi/DPVBi_toluene_S0_crest.xyz --gfn 2 --gbsa toluene --ohess vtight --parallel 40 --molden --ceasefiles --namespace data2507/toluene/DPVBi/DPVBi_toluene_S0_finalOpt
      * Solvation model:               GBSA
        Solvent                        toluene
        Solvent mass                       9.2140E+01 g/mol
          :  Hamiltonian                  GFN2-xTB          :
 * total energy  :  -100.9206471 Eh     change       -0.1341391E-08 Eh
 * total energy  :  -100.9206779 Eh     change       -0.3077567E-04 Eh
 * total energy  :  -100.9206882 Eh     change       -0.1038087E-04 Eh
 * total energy  :  -100.9206951 Eh     change       -0.6892960E-05 Eh
 * total energy  :  -100.9207011 Eh     change       -0.5968223E-05 Eh
 * total energy  :  -100.9207071 Eh     change       -0.6034516E-05 Eh
 * total energy  :  -100.9207126 Eh     change       -0.5494896E-05 Eh
 * total energy  :  -100.9207184 Eh     change       -0.5788762E-05 Eh
 * total energy  :  -100.9207254 Eh     change       -0.7011583E-05 Eh
 * total energy  :  -100.9207327 Eh     change       -0.7298916E-05 Eh
 * total energy  :  -100.9207488 Eh     change       -0.3076094E-05 Eh
 * total energy  :  -100.9207509 Eh     change       -0.2146419E-05 Eh
 * total energy  :  -100.9207524 Eh     change       -0.1500382E-05 Eh
 * total energy  :  -100.9207539 Eh     change       -0.1445607E-05 Eh
 * total energy  :  -100.9207555 Eh     change       -0.1673549E-05 Eh
 * total energy  :  -100.9207567 Eh     change       -0.1176430E-05 Eh
 * total energy  :  -100.9207573 Eh     change       -0.5941345E-06 Eh
 * total energy  :  -100.9207577 Eh     change       -0.4113070E-06 Eh
 * total energy  :  -100.9207577 Eh     change       -0.3908113E-08 Eh
   *** GEOMETRY OPTIMIZATION CONVERGED AFTER 22 ITERATIONS ***

 final structure:
================
70
 xtb: 6.7.1 (edcfbbe)
C           -4.87781379861380       -1.10877383009828       -0.44077309190905
C           -5.90837669502481       -0.30338280929994       -0.12775428899759
C           -5.73828672873750        1.06629297754485        0.39300135886525
C           -6.47171489233695        2.11882071343476       -0.14997771424952
C           -6.33489458335012        3.40138814243957        0.34934623250832
C           -5.47476291136789        3.64834888117693        1.40672541873004
C           -4.75214018849666        2.60484850116401        1.96298266467125
C           -4.88161790283112        1.32324871402661        1.46128891439987
C           -7.29524156276665       -0.78302852534824       -0.23420643642578
C           -7.69034194694039       -1.61452120819522       -1.28175935827395
C           -8.99544207432304       -2.06144069613558       -1.37327831962320
C           -9.92911233520239       -1.68899377812692       -0.41990833501605
C           -9.54932835870052       -0.86048879387233        0.62377864779139
C           -8.24664116366452       -0.40736099828939        0.71425843448840
C           -3.46506362943923       -0.75830035250284       -0.46422006536592
C           -3.01039322879387        0.49274056787789       -0.88560034328051
C           -1.66327733776011        0.78580384806418       -0.90349322960927
C           -0.71537634710587       -0.15793806287565       -0.50612570464902
C            0.71719032417366        0.16143802258230       -0.50733759666033
C            1.16968347904689        1.42022226402242       -0.11189231538170
C            2.51656325060883        1.71616601255831       -0.10220765619932
C            3.46716550164845        0.76044169842535       -0.46804443342771
C            4.88033617982998        1.10934886521841       -0.44327135009894
C            5.90906062145799        0.30265791892949       -0.12764619885719
C            7.29691029318606        0.78032684637619       -0.22987798491675
C            7.69659283144370        1.61186179748280       -1.27564127793774
C            9.00261746526125        2.05701099625843       -1.36259796607133
C            9.93262820926612        1.68279535940091       -0.40635033731002
C            9.54826764361215        0.85423479501544        0.63561187319203
C            8.24468023595520        0.40283989758683        0.72150692209863
C            5.73550802980525       -1.06685874688620        0.39248832012156
C            4.87570036242872       -1.32272226353004        1.45849800579085
C            4.74240325129834       -2.60434790147796        1.95911499074772
C            5.46446381933672       -3.64892892484490        1.40415849703708
C            6.32789461789164       -3.40301741676659        0.34923148210644
C            6.46840233260968       -2.12046188565963       -0.14909996849750
C            3.01144204725248       -0.48992623295201       -0.89025084327481
C            1.66417892209367       -0.78233666384154       -0.90684246868756
C           -1.16688516218181       -1.41703532413951       -0.11050111612556
C           -2.51359206996883       -1.71362877298197       -0.09953275577036
H           -5.09298327128495       -2.14161077894344       -0.68844341667564
H           -7.14430391338712        1.92624632578718       -0.97436655011090
H           -6.90448885407092        4.21037470272470       -0.08562039040321
H           -5.37133664547618        4.64955615077146        1.79938953640797
H           -4.08642003496537        2.79054539754836        2.79378453412762
H           -4.32325474516928        0.50932933668678        1.90082201052195
H           -6.97261037493835       -1.89266247185121       -2.04012049167143
H           -9.28759332736657       -2.70004173129631       -2.19482463281318
H          -10.94860387850060       -2.03896637658728       -0.49250937514588
H          -10.27261304091912       -0.56562135662841        1.37068285368234
H           -7.95442698213544        0.23478659715419        1.53318386554723
H           -3.72251641953865        1.23301825193598       -1.21831337397844
H           -1.33577819604897        1.75394626989391       -1.25425101373589
H            0.45656242945342        2.16664343846587        0.20771213904115
H            2.84750369191046        2.69589367875494        0.21448508611923
H            5.09722808975065        2.14184657949343       -0.69081182213302
H            6.98174529434591        1.89151211252617       -2.03616621016777
H            9.29834459225693        2.69569597784596       -2.18280039719595
H           10.95283241751406        2.03141303789301       -0.47537157353554
H           10.26866039920129        0.55792659001623        1.38473464837514
H            7.94888590255227       -0.23936732832150        1.53910123095776
H            4.31781191558227       -0.50797248818224        1.89709047083315
H            4.07412993913535       -2.78920707231597        2.78804816958576
H            5.35808047427427       -4.65015509987900        1.79597788342623
H            6.89710312879807       -4.21284376700006       -0.08467429862435
H            7.14339016669395       -1.92875254922608       -0.97173291047353
H            3.72285367154036       -1.23029495302039       -1.22428697014323
H            1.33581555138884       -1.75007518910424       -1.25790842269631
H           -0.45305231383521       -2.16323797749090        0.20802355699747
H           -2.84370843235684       -2.69369032281284        0.21698919785738

          :  Hamiltonian                  GFN2-xTB          :
         :: gradient norm              0.000048966674 Eh/a0 ::
         :: HOMO-LUMO gap              2.498533229990 eV    ::
         :: SCC energy              -102.916577157737 Eh    ::
         :: -> dispersion             -0.089841960141 Eh    ::
         :: -> Gsolv                  -0.042698531706 Eh    ::
         :: repulsion energy           1.995819430059 Eh    ::

    * Orbital Energies and Occupations

         #    Occupation            Energy/Eh            Energy/eV
      -------------------------------------------------------------
         1        2.0000           -0.6471840             -17.6108
       ...           ...                  ...                  ...
        83        2.0000           -0.4095507             -11.1444
        84        2.0000           -0.4077684             -11.0959
        85        2.0000           -0.4055901             -11.0367
        86        2.0000           -0.4040584             -10.9950
        87        2.0000           -0.4039720             -10.9926
        88        2.0000           -0.4037639             -10.9870
        89        2.0000           -0.4022934             -10.9470
        90        2.0000           -0.4012498             -10.9186
        91        2.0000           -0.3986587             -10.8481
        92        2.0000           -0.3969175             -10.8007
        93        2.0000           -0.3945683             -10.7368
        94        2.0000           -0.3718214             -10.1178
        95        2.0000           -0.3608623              -9.8196 (HOMO)
        96                         -0.2690428              -7.3210 (LUMO)
        97                         -0.2563513              -6.9757
        98                         -0.2249751              -6.1219
        99                         -0.2247608              -6.1161
       100                         -0.2241276              -6.0988
       101                         -0.2240696              -6.0972
       102                         -0.2229648              -6.0672
       103                         -0.2211083              -6.0167
       104                         -0.2209897              -6.0134
       105                         -0.2172775              -5.9124
       106                         -0.2170711              -5.9068
       ...                                ...                  ...
       190                          0.7025421              19.1171
      -------------------------------------------------------------
                  HL-Gap            0.0918194 Eh            2.4985 eV

     #   Z          covCN         q      C6AA      α(0)
     1   6 C        2.909    -0.046    29.143     8.852
     2   6 C        2.959     0.000    28.020     8.682
     3   6 C        2.977     0.017    27.633     8.623
     4   6 C        2.924    -0.033    28.815     8.803
     5   6 C        2.918    -0.031    28.771     8.796
     6   6 C        2.920    -0.032    28.804     8.801
     7   6 C        2.918    -0.030    28.757     8.794
     8   6 C        2.924    -0.031    28.778     8.797
     9   6 C        2.979     0.011    27.768     8.644
    10   6 C        2.924    -0.036    28.886     8.814
    11   6 C        2.918    -0.031    28.762     8.795
    12   6 C        2.919    -0.032    28.798     8.800
    13   6 C        2.918    -0.031    28.764     8.795
    14   6 C        2.925    -0.032    28.802     8.801
    15   6 C        2.970     0.014    27.694     8.632
    16   6 C        2.922    -0.034    28.846     8.808
    17   6 C        2.923    -0.036    28.884     8.813
    18   6 C        2.976     0.007    27.867     8.659
    19   6 C        2.976     0.007    27.867     8.659
    20   6 C        2.922    -0.036    28.894     8.815
    21   6 C        2.925    -0.038    28.935     8.821
    22   6 C        2.970     0.014    27.694     8.632
    23   6 C        2.909    -0.046    29.143     8.852
    24   6 C        2.959     0.000    28.020     8.682
    25   6 C        2.979     0.011    27.767     8.644
    26   6 C        2.924    -0.036    28.886     8.814
    27   6 C        2.918    -0.031    28.762     8.795
    28   6 C        2.919    -0.032    28.798     8.800
    29   6 C        2.918    -0.031    28.764     8.795
    30   6 C        2.925    -0.032    28.802     8.801
    31   6 C        2.977     0.017    27.633     8.623
    32   6 C        2.924    -0.031    28.778     8.797
    33   6 C        2.918    -0.030    28.757     8.794
    34   6 C        2.920    -0.032    28.804     8.801
    35   6 C        2.918    -0.031    28.771     8.796
    36   6 C        2.924    -0.033    28.815     8.803
    37   6 C        2.922    -0.034    28.846     8.808
    38   6 C        2.923    -0.036    28.884     8.813
    39   6 C        2.922    -0.036    28.894     8.815
    40   6 C        2.925    -0.038    28.935     8.821
    41   1 H        0.925     0.037     2.488     2.467
    42   1 H        0.925     0.028     2.618     2.530
    43   1 H        0.926     0.030     2.584     2.514
    44   1 H        0.926     0.030     2.582     2.513
    45   1 H        0.926     0.030     2.586     2.515
    46   1 H        0.926     0.028     2.613     2.528
    47   1 H        0.926     0.033     2.545     2.495
    48   1 H        0.926     0.031     2.566     2.505
    49   1 H        0.926     0.031     2.574     2.509
    50   1 H        0.926     0.030     2.582     2.513
    51   1 H        0.926     0.028     2.609     2.526
    52   1 H        0.926     0.029     2.596     2.520
    53   1 H        0.926     0.030     2.580     2.512
    54   1 H        0.926     0.031     2.567     2.505
    55   1 H        0.925     0.030     2.585     2.514
    56   1 H        0.925     0.037     2.488     2.467
    57   1 H        0.926     0.033     2.545     2.495
    58   1 H        0.926     0.031     2.566     2.505
    59   1 H        0.926     0.031     2.574     2.509
    60   1 H        0.926     0.030     2.583     2.513
    61   1 H        0.926     0.028     2.609     2.526
    62   1 H        0.926     0.028     2.613     2.528
    63   1 H        0.926     0.030     2.586     2.515
    64   1 H        0.926     0.030     2.582     2.513
    65   1 H        0.926     0.030     2.584     2.514
    66   1 H        0.925     0.028     2.618     2.530
    67   1 H        0.926     0.029     2.596     2.520
    68   1 H        0.926     0.030     2.580     2.512
    69   1 H        0.926     0.031     2.567     2.505
    70   1 H        0.925     0.030     2.585     2.514

molecular dipole:
                 x           y           z       tot (Debye)
 q only:        0.000       0.000      -0.013
   full:       -0.000       0.000       0.021       0.053

 projected vibrational frequencies (cm⁻¹)
eigval :       -0.00    -0.00    -0.00    -0.00     0.00     0.00
eigval :       10.86    11.42    14.30    28.87    30.33    40.01
eigval :       46.40    48.29    56.88    58.89    63.73    66.67
eigval :       75.20    79.45    89.99   109.42   137.32   156.85
eigval :      167.38   199.46   205.60   209.28   236.32   236.94
eigval :      244.43   280.40   282.96   311.51   338.64   369.25
eigval :      370.91   373.08   373.40   374.74   377.25   384.74
eigval :      392.66   412.52   431.14   439.65   458.94   465.42
eigval :      512.23   520.25   543.65   546.29   559.43   581.02
eigval :      581.31   587.51   588.76   596.32   604.74   610.20
eigval :      617.19   619.28   633.16   669.98   671.14   671.21
eigval :      675.53   676.60   698.56   712.10   735.87   736.36
eigval :      759.01   762.06   768.68   770.22   798.13   823.97
eigval :      840.29   852.21   852.46   866.64   867.97   872.67
eigval :      877.83   879.73   880.66   881.28   901.91   901.98
eigval :      904.35   904.69   912.54   917.70   919.79   921.98
eigval :      927.41   928.75   931.05   931.39   931.72   931.96
eigval :      932.30   933.04   934.50   934.70   978.76   979.61
eigval :      989.36  1007.01  1008.33  1019.89  1080.94  1082.16
eigval :     1082.41  1085.19  1085.27  1119.52  1120.01  1122.44
eigval :     1122.47  1138.23  1148.02  1173.17  1173.23  1180.86
eigval :     1181.03  1181.24  1181.44  1194.81  1197.93  1198.40
eigval :     1200.64  1204.36  1205.70  1224.74  1224.92  1266.67
eigval :     1274.57  1278.04  1279.13  1281.42  1281.63  1284.52
eigval :     1285.08  1311.77  1312.93  1313.35  1314.82  1316.87
eigval :     1319.95  1321.90  1341.75  1342.75  1394.01  1411.88
eigval :     1428.34  1428.39  1429.73  1429.95  1465.44  1469.19
eigval :     1475.57  1475.64  1476.90  1505.16  1546.76  1559.27
eigval :     1576.62  1576.71  1578.59  1578.61  1580.99  1590.64
eigval :     1593.47  1594.73  1596.94  1600.73  1634.01  1634.08
eigval :     3039.19  3039.26  3062.01  3062.04  3064.90  3064.90
eigval :     3066.51  3066.54  3067.27  3067.35  3067.76  3067.82
eigval :     3072.18  3073.11  3074.00  3074.23  3075.75  3075.84
eigval :     3077.88  3078.37  3079.06  3079.32  3079.39  3080.08
eigval :     3087.62  3087.85  3088.28  3088.39  3089.94  3090.72

   temp. (K)  partition function   enthalpy   heat capacity  entropy
                                   cal/mol     cal/K/mol   cal/K/mol   J/K/mol
 298.15  VIB  0.101E+17            19300.711    119.966    122.567
         ROT  0.340E+08              888.752      2.981     37.442
         INT  0.343E+24            20189.464    122.946    160.008
         TR   0.112E+29             1481.254      4.968     44.558
         TOT                       21670.7177   127.9146   204.5666   855.9065

       T/K    H(0)-H(T)+PV         H(T)/Eh          T*S/Eh         G(T)/Eh
   ------------------------------------------------------------------------
    298.15    0.345345E-01    0.587685E+00    0.971962E-01    0.490489E+00
   ------------------------------------------------------------------------

         :::::::::::::::::::::::::::::::::::::::::::::::::::::
         ::                  THERMODYNAMIC                  ::
         :::::::::::::::::::::::::::::::::::::::::::::::::::::
         :: total free energy        -100.430269205753 Eh   ::
         ::.................................................::
         :: total energy             -100.920757729153 Eh   ::
         :: zero point energy           0.553150215906 Eh   ::
         :: G(RRHO) w/o ZPVE           -0.062661692506 Eh   ::
         :: G(RRHO) contrib.            0.490488523400 Eh   ::
         :::::::::::::::::::::::::::::::::::::::::::::::::::::

           -------------------------------------------------
          | TOTAL ENERGY             -100.920757729153 Eh   |
          | TOTAL ENTHALPY           -100.333073026317 Eh   |
          | TOTAL FREE ENERGY        -100.430269205753 Eh   |
          | GRADIENT NORM               0.000048965716 Eh/α |
          | HOMO-LUMO GAP               2.498533233193 eV   |
           -------------------------------------------------

 * finished run on 2025/09/10 at 19:33:45.895
