   * xtb version 6.7.1 (edcfbbe) compiled by 'albert@albert-system' on 2024-07-22

   ID    Z sym.   atoms
    1    6 C      1-40
    2    1 H      41-70

          program call               : xtb data2507/toluene/DPVBi/DPVBi.xyz --gfn 2 --gbsa toluene --ohess vtight --parallel 40 --molden --ceasefiles --namespace data2507/toluene/DPVBi/DPVBi_toluene_S0_preOpt
      * Solvation model:               GBSA
        Solvent                        toluene
        Solvent mass                       9.2140E+01 g/mol
          :  Hamiltonian                  GFN2-xTB          :
 * total energy  :  -100.9025404 Eh     change       -0.9953993E-09 Eh
 * total energy  :  -100.9108172 Eh     change       -0.8276788E-02 Eh
 * total energy  :  -100.9128530 Eh     change       -0.2035781E-02 Eh
 * total energy  :  -100.9139256 Eh     change       -0.1072588E-02 Eh
 * total energy  :  -100.9151910 Eh     change       -0.1265393E-02 Eh
 * total energy  :  -100.9162367 Eh     change       -0.1045707E-02 Eh
 * total energy  :  -100.9171356 Eh     change       -0.8989352E-03 Eh
 * total energy  :  -100.9179246 Eh     change       -0.7889978E-03 Eh
 * total energy  :  -100.9184345 Eh     change       -0.5098998E-03 Eh
 * total energy  :  -100.9187562 Eh     change       -0.3217444E-03 Eh
 * total energy  :  -100.9205764 Eh     change       -0.6593442E-06 Eh
 * total energy  :  -100.9205771 Eh     change       -0.6335427E-06 Eh
 * total energy  :  -100.9205777 Eh     change       -0.6222187E-06 Eh
 * total energy  :  -100.9205783 Eh     change       -0.6144528E-06 Eh
 * total energy  :  -100.9205789 Eh     change       -0.6207215E-06 Eh
 * total energy  :  -100.9205795 Eh     change       -0.6347087E-06 Eh
 * total energy  :  -100.9205802 Eh     change       -0.6546641E-06 Eh
 * total energy  :  -100.9205809 Eh     change       -0.6766234E-06 Eh
 * total energy  :  -100.9205809 Eh     change       -0.5483912E-08 Eh
   *** GEOMETRY OPTIMIZATION CONVERGED AFTER 94 ITERATIONS ***

 final structure:
================
70
 xtb: 6.7.1 (edcfbbe)
C           -4.88107316293736       -1.10979411837712       -0.56119705791806
C           -5.89617276724987       -0.31553741618988       -0.17913415658949
C           -5.69337965722375        1.00554193231903        0.44450956017381
C           -6.42403713693029        2.10852495458532        0.00847676216767
C           -6.24886770047620        3.34588689595460        0.60112679241742
C           -5.35268962836507        3.49651922945178        1.64660836431996
C           -4.63334405737653        2.40142819373083        2.09795428886920
C           -4.80133969421458        1.16520537940897        1.50285819461177
C           -7.29230565072065       -0.76013387595814       -0.31435766241403
C           -7.71189269891414       -1.47229823346443       -1.43733843203868
C           -9.02647064575841       -1.88245140306573       -1.56087484809311
C           -9.94380439562744       -1.59315229249735       -0.56380314335066
C           -9.53821326233916       -0.88654756233066        0.55709278854968
C           -8.22655297126282       -0.46779640408118        0.67906206161131
C           -3.46538687487346       -0.76525667671151       -0.56789163872998
C           -3.01204289054291        0.49619242707770       -0.95737067806610
C           -1.66524709481915        0.79037760446225       -0.96991168697183
C           -0.71621534536233       -0.16013943507690       -0.59077918729901
C            0.71620861687621        0.16000926450594       -0.59079009510743
C            1.16829706871184        1.42660362966140       -0.21956418528270
C            2.51453200383571        1.72670522893852       -0.22120791255950
C            3.46537734904458        0.76514256400764       -0.56796865276595
C            4.88106028599104        1.10969229940943       -0.56130528429211
C            5.89616859776881        0.31550157709983       -0.17912752911873
C            7.29229473194304        0.76010342116336       -0.31441014480204
C            7.71186674322484        1.47213576235933       -1.43748072090223
C            9.02643398043286        1.88230906841351       -1.56106478216691
C            9.94377182395010        1.59316411894213       -0.56395199842338
C            9.53819631213010        0.88669061263904        0.55703228537077
C            8.22654717871710        0.46791836737109        0.67904974028277
C            5.69339270994941       -1.00549364133342        0.44469884154456
C            4.80134601061332       -1.16502116458918        1.50306252381846
C            4.63336936861446       -2.40116037370524        2.09833693531504
C            5.35274115197419       -3.49630298555865        1.64715789635202
C            6.24892624107680       -3.34580515367741        0.60166288555832
C            6.42407580597375       -2.10852613676294        0.00883352202805
C            3.01204374558384       -0.49637243865581       -0.95724685543156
C            1.66524935615760       -0.79056650461393       -0.96975271950639
C           -1.16831391311361       -1.42667152664161       -0.21935347279017
C           -2.51455042307127       -1.72676723243310       -0.22096338890325
H           -5.10927487060882       -2.11802046460596       -0.88624088527426
H           -7.12399759226061        1.99224241647949       -0.80743188441276
H           -6.81635509433000        4.19522371088109        0.24806159126880
H           -5.21893365790997        4.46260893735692        2.11153572907532
H           -3.93990170591179        2.51081757565780        2.91961920066951
H           -4.24531358052338        0.31102081254097        1.86138508448219
H           -7.00507364435939       -1.68484759852452       -2.22665320218203
H           -9.33857345531182       -2.42645393136520       -2.44108691207435
H          -10.97088017811608       -1.91370029233228       -0.66136839252343
H          -10.24877970485997       -0.65864466733080        1.33883222576447
H           -7.91411111015469        0.08134325718323        1.55616034431557
H           -3.72601774665340        1.24344972016573       -1.27066901744853
H           -1.33996266629239        1.76586546002616       -1.30146598742022
H            0.45596718186616        2.17816722328079        0.08927231614753
H            2.84412705557492        2.71375719535500        0.07339892146032
H            5.10925330311583        2.11787456890114       -0.88649165986194
H            7.00504540362053        1.68456490003936       -2.22682589151576
H            9.33852542310455        2.42620845673159       -2.44134469452647
H           10.97083888096957        1.91372892012008       -0.66155358728031
H           10.24876734931697        0.65890234522634        1.33880085542203
H            7.91411732027886       -0.08111649845224        1.55621780148576
H            4.24529949481475       -0.31079560206713        1.86145931039539
H            3.93991738303375       -2.51044440894317        2.92000763550267
H            5.21899158164607       -4.46232980557292        2.11221801693902
H            6.81642873929716       -4.19518356732837        0.24872192282945
H            7.12404378430165       -1.99234875100430       -0.80708362708430
H            3.72602532033284       -1.24367950286655       -1.27041121692149
H            1.33997259063758       -1.76611025272629       -1.30115061669402
H           -0.45599141430949       -2.17818622137353        0.08961894743503
H           -2.84415250170059       -2.71377289123178        0.07379046257556

          :  Hamiltonian                  GFN2-xTB          :
         :: gradient norm              0.000062051622 Eh/a0 ::
         :: HOMO-LUMO gap              2.523049287533 eV    ::
         :: SCC energy              -102.916613654498 Eh    ::
         :: -> dispersion             -0.089961672196 Eh    ::
         :: -> Gsolv                  -0.042724858859 Eh    ::
         :: repulsion energy           1.996032769954 Eh    ::

    * Orbital Energies and Occupations

         #    Occupation            Energy/Eh            Energy/eV
      -------------------------------------------------------------
         1        2.0000           -0.6471466             -17.6098
       ...           ...                  ...                  ...
        83        2.0000           -0.4095055             -11.1432
        84        2.0000           -0.4076310             -11.0922
        85        2.0000           -0.4055185             -11.0347
        86        2.0000           -0.4040262             -10.9941
        87        2.0000           -0.4039153             -10.9911
        88        2.0000           -0.4037715             -10.9872
        89        2.0000           -0.4022950             -10.9470
        90        2.0000           -0.4011451             -10.9157
        91        2.0000           -0.3985689             -10.8456
        92        2.0000           -0.3972433             -10.8095
        93        2.0000           -0.3939538             -10.7200
        94        2.0000           -0.3720747             -10.1247
        95        2.0000           -0.3610932              -9.8258 (HOMO)
        96                         -0.2683729              -7.3028 (LUMO)
        97                         -0.2556635              -6.9570
        98                         -0.2254192              -6.1340
        99                         -0.2247634              -6.1161
       100                         -0.2241738              -6.1001
       101                         -0.2240098              -6.0956
       102                         -0.2234986              -6.0817
       103                         -0.2211642              -6.0182
       104                         -0.2210102              -6.0140
       105                         -0.2173099              -5.9133
       106                         -0.2169418              -5.9033
       ...                                ...                  ...
       190                          0.7014083              19.0863
      -------------------------------------------------------------
                  HL-Gap            0.0927204 Eh            2.5230 eV

     #   Z          covCN         q      C6AA      α(0)
     1   6 C        2.909    -0.046    29.139     8.851
     2   6 C        2.959     0.000    28.020     8.682
     3   6 C        2.977     0.016    27.637     8.623
     4   6 C        2.924    -0.033    28.814     8.803
     5   6 C        2.918    -0.031    28.772     8.796
     6   6 C        2.920    -0.032    28.803     8.801
     7   6 C        2.918    -0.030    28.758     8.794
     8   6 C        2.924    -0.031    28.780     8.798
     9   6 C        2.979     0.011    27.766     8.643
    10   6 C        2.924    -0.036    28.884     8.814
    11   6 C        2.918    -0.031    28.762     8.794
    12   6 C        2.920    -0.032    28.798     8.800
    13   6 C        2.918    -0.031    28.763     8.795
    14   6 C        2.924    -0.032    28.800     8.801
    15   6 C        2.971     0.014    27.686     8.631
    16   6 C        2.922    -0.034    28.844     8.807
    17   6 C        2.923    -0.036    28.885     8.814
    18   6 C        2.975     0.006    27.871     8.660
    19   6 C        2.975     0.006    27.871     8.660
    20   6 C        2.922    -0.036    28.895     8.815
    21   6 C        2.924    -0.038    28.936     8.821
    22   6 C        2.971     0.014    27.686     8.631
    23   6 C        2.909    -0.046    29.139     8.851
    24   6 C        2.959     0.000    28.020     8.682
    25   6 C        2.979     0.011    27.766     8.643
    26   6 C        2.924    -0.036    28.884     8.814
    27   6 C        2.918    -0.031    28.762     8.794
    28   6 C        2.920    -0.032    28.798     8.800
    29   6 C        2.918    -0.031    28.763     8.795
    30   6 C        2.924    -0.032    28.800     8.801
    31   6 C        2.977     0.016    27.637     8.623
    32   6 C        2.924    -0.031    28.780     8.798
    33   6 C        2.918    -0.030    28.758     8.794
    34   6 C        2.920    -0.032    28.803     8.801
    35   6 C        2.918    -0.031    28.772     8.796
    36   6 C        2.924    -0.033    28.814     8.803
    37   6 C        2.922    -0.034    28.844     8.807
    38   6 C        2.923    -0.036    28.885     8.814
    39   6 C        2.922    -0.036    28.895     8.815
    40   6 C        2.924    -0.038    28.936     8.821
    41   1 H        0.925     0.037     2.487     2.466
    42   1 H        0.925     0.028     2.618     2.530
    43   1 H        0.926     0.030     2.583     2.513
    44   1 H        0.926     0.030     2.582     2.513
    45   1 H        0.926     0.030     2.587     2.515
    46   1 H        0.926     0.028     2.612     2.527
    47   1 H        0.926     0.033     2.548     2.496
    48   1 H        0.926     0.031     2.566     2.505
    49   1 H        0.926     0.031     2.574     2.509
    50   1 H        0.926     0.030     2.582     2.513
    51   1 H        0.926     0.028     2.609     2.526
    52   1 H        0.926     0.029     2.604     2.524
    53   1 H        0.926     0.031     2.576     2.510
    54   1 H        0.926     0.032     2.564     2.504
    55   1 H        0.925     0.030     2.588     2.516
    56   1 H        0.925     0.037     2.487     2.466
    57   1 H        0.926     0.033     2.548     2.496
    58   1 H        0.926     0.031     2.566     2.505
    59   1 H        0.926     0.031     2.574     2.509
    60   1 H        0.926     0.030     2.582     2.513
    61   1 H        0.926     0.028     2.609     2.526
    62   1 H        0.926     0.028     2.612     2.527
    63   1 H        0.926     0.030     2.587     2.515
    64   1 H        0.926     0.030     2.582     2.513
    65   1 H        0.926     0.030     2.583     2.513
    66   1 H        0.925     0.028     2.618     2.530
    67   1 H        0.926     0.029     2.604     2.524
    68   1 H        0.926     0.031     2.576     2.510
    69   1 H        0.926     0.032     2.564     2.504
    70   1 H        0.925     0.030     2.588     2.516

molecular dipole:
                 x           y           z       tot (Debye)
 q only:       -0.000       0.000      -0.017
   full:       -0.000       0.000       0.015       0.038

 projected vibrational frequencies (cm⁻¹)
eigval :       -0.00    -0.00    -0.00    -0.00    -0.00     0.00
eigval :       12.87    14.04    15.66    28.67    30.42    43.59
eigval :       48.93    51.05    58.28    60.11    63.90    68.19
eigval :       76.55    80.50    90.23   109.31   137.40   156.28
eigval :      166.53   202.61   208.15   211.05   236.12   237.81
eigval :      244.82   281.79   283.83   314.63   340.24   369.20
eigval :      369.86   371.23   373.55   375.53   378.36   385.39
eigval :      392.96   414.85   432.04   439.13   459.72   464.59
eigval :      511.55   520.30   544.69   546.88   559.56   581.50
eigval :      581.76   587.79   589.15   596.84   605.23   609.87
eigval :      617.63   619.32   632.73   669.03   672.45   672.58
eigval :      676.56   677.66   698.48   712.47   736.24   736.44
eigval :      761.12   763.97   770.69   771.67   798.62   824.94
eigval :      840.64   854.32   854.74   865.50   867.85   872.48
eigval :      876.98   877.25   881.66   881.85   903.76   903.90
eigval :      905.63   905.64   914.57   919.23   922.43   923.19
eigval :      925.51   929.12   929.15   931.05   932.52   932.53
eigval :      934.87   934.87   937.15   937.15   978.97   979.74
eigval :      989.44  1007.17  1008.46  1020.10  1080.09  1082.74
eigval :     1082.80  1084.29  1084.30  1120.59  1120.60  1121.78
eigval :     1121.79  1137.58  1149.21  1173.46  1173.50  1180.77
eigval :     1180.77  1182.28  1182.28  1194.54  1197.81  1197.86
eigval :     1200.28  1202.76  1204.74  1223.21  1224.91  1266.63
eigval :     1274.43  1277.43  1279.85  1281.57  1281.78  1283.15
eigval :     1283.99  1311.94  1313.47  1313.78  1314.56  1316.27
eigval :     1319.53  1320.76  1339.51  1340.15  1393.35  1411.71
eigval :     1428.44  1428.47  1429.82  1430.00  1465.17  1468.54
eigval :     1475.45  1475.51  1476.76  1505.09  1546.70  1559.41
eigval :     1576.95  1577.01  1578.89  1578.89  1581.76  1591.24
eigval :     1593.40  1595.02  1597.01  1601.08  1634.73  1634.77
eigval :     3039.15  3039.19  3061.94  3061.97  3064.41  3064.42
eigval :     3066.04  3066.04  3066.98  3066.98  3067.23  3067.25
eigval :     3072.63  3073.47  3073.81  3073.85  3075.04  3075.06
eigval :     3078.37  3078.41  3078.57  3078.88  3079.90  3080.15
eigval :     3087.52  3087.53  3087.79  3088.00  3088.39  3089.12

   temp. (K)  partition function   enthalpy   heat capacity  entropy
                                   cal/mol     cal/K/mol   cal/K/mol   J/K/mol
 298.15  VIB  0.480E+16            19251.648    120.137    121.867
         ROT  0.335E+08              888.752      2.981     37.416
         INT  0.161E+24            20140.401    123.118    159.283
         TR   0.112E+29             1481.254      4.968     44.558
         TOT                       21621.6547   128.0865   203.8407   852.8697

       T/K    H(0)-H(T)+PV         H(T)/Eh          T*S/Eh         G(T)/Eh
   ------------------------------------------------------------------------
    298.15    0.344563E-01    0.587742E+00    0.968513E-01    0.490890E+00
   ------------------------------------------------------------------------

         :::::::::::::::::::::::::::::::::::::::::::::::::::::
         ::                  THERMODYNAMIC                  ::
         :::::::::::::::::::::::::::::::::::::::::::::::::::::
         :: total free energy        -100.429690623464 Eh   ::
         ::.................................................::
         :: total energy             -100.920580888991 Eh   ::
         :: zero point energy           0.553285283243 Eh   ::
         :: G(RRHO) w/o ZPVE           -0.062395017716 Eh   ::
         :: G(RRHO) contrib.            0.490890265528 Eh   ::
         :::::::::::::::::::::::::::::::::::::::::::::::::::::

           -------------------------------------------------
          | TOTAL ENERGY             -100.920580888991 Eh   |
          | TOTAL ENTHALPY           -100.332839305747 Eh   |
          | TOTAL FREE ENERGY        -100.429690623464 Eh   |
          | GRADIENT NORM               0.000062051886 Eh/α |
          | HOMO-LUMO GAP               2.523049281427 eV   |
           -------------------------------------------------

 * finished run on 2025/09/10 at 19:30:10.399
