   * xtb version 6.7.1 (edcfbbe) compiled by 'albert@albert-system' on 2024-07-22

   ID    Z sym.   atoms
    1    6 C      1-40
    2    1 H      41-70

          program call               : xtb data2507/toluene/DPVBi/DPVBi_toluene_T1_crest.xyz --gfn 2 --uhf 2 --gbsa toluene --ohess vtight --parallel 40 --molden --ceasefiles --namespace data2507/toluene/DPVBi/DPVBi_toluene_T1_finalOpt
      * Solvation model:               GBSA
        Solvent                        toluene
        Solvent mass                       9.2140E+01 g/mol
          :  Hamiltonian                  GFN2-xTB          :
 * total energy  :  -100.8476228 Eh     change       -0.1926608E-08 Eh
 * total energy  :  -100.8476587 Eh     change       -0.3590249E-04 Eh
 * total energy  :  -100.8476694 Eh     change       -0.1070065E-04 Eh
 * total energy  :  -100.8476757 Eh     change       -0.6303976E-05 Eh
 * total energy  :  -100.8476799 Eh     change       -0.4257550E-05 Eh
 * total energy  :  -100.8476836 Eh     change       -0.3615854E-05 Eh
 * total energy  :  -100.8476859 Eh     change       -0.2390686E-05 Eh
 * total energy  :  -100.8476880 Eh     change       -0.2088489E-05 Eh
 * total energy  :  -100.8476901 Eh     change       -0.2086677E-05 Eh
 * total energy  :  -100.8476918 Eh     change       -0.1688295E-05 Eh
 * total energy  :  -100.8477094 Eh     change       -0.2946821E-06 Eh
 * total energy  :  -100.8477097 Eh     change       -0.2658909E-06 Eh
 * total energy  :  -100.8477099 Eh     change       -0.2227210E-06 Eh
 * total energy  :  -100.8477101 Eh     change       -0.2145991E-06 Eh
 * total energy  :  -100.8477104 Eh     change       -0.2553493E-06 Eh
 * total energy  :  -100.8477107 Eh     change       -0.3149325E-06 Eh
 * total energy  :  -100.8477109 Eh     change       -0.2216246E-06 Eh
 * total energy  :  -100.8477110 Eh     change       -0.1112240E-06 Eh
 * total energy  :  -100.8477110 Eh     change       -0.1146219E-08 Eh
   *** GEOMETRY OPTIMIZATION CONVERGED AFTER 44 ITERATIONS ***

 final structure:
================
70
 xtb: 6.7.1 (edcfbbe)
C           -4.86488175285434       -1.14016792447200        0.31445484767036
C           -5.99653700306749       -0.25642588216609        0.16315966101506
C           -5.91481173071922        1.10504092182141        0.60827386883648
C           -6.66106500165060        2.12825812011861       -0.01061651275943
C           -6.55031955333397        3.43670433606118        0.40445971033739
C           -5.70407650714990        3.77591938810385        1.45304781685705
C           -4.95684155094353        2.78374171519130        2.07498116049878
C           -5.05196428807993        1.47413029204612        1.66118956275320
C           -7.20665867642338       -0.80023793771343       -0.38052452681236
C           -7.16440495710410       -1.91283102280779       -1.24593377413893
C           -8.31958107493276       -2.46676790331472       -1.74996240933088
C           -9.56003949427071       -1.94563270968339       -1.40346316574669
C           -9.62604401145692       -0.86116471495047       -0.53771859659433
C           -8.47619162286624       -0.29464229476589       -0.03435028040432
C           -3.53251805970426       -0.82827982753623        0.11362687886273
C           -3.07919718294173        0.41622385283675       -0.42771713455682
C           -1.75198502888409        0.70156432336436       -0.53256592503205
C           -0.75414544447320       -0.22556546074131       -0.15336951522528
C            0.64936300296651        0.09149135948117       -0.25723296468915
C            1.11060883740654        1.41599512977266       -0.15045127208801
C            2.44816394949799        1.71289803174688       -0.23084422856865
C            3.41350547163364        0.71013306055605       -0.41552822557943
C            4.80472831553767        1.08354959350540       -0.49985204251003
C            5.89372676990425        0.32729921145109       -0.23064141370053
C            7.24367533071220        0.84604240214369       -0.48009196717846
C            7.50994306911381        1.68235578276030       -1.56622140370208
C            8.78446290376286        2.16832117733391       -1.78790352018166
C            9.81992739886996        1.83198158808133       -0.93059930221753
C            9.57105403252993        0.99859709523733        0.14836026757759
C            8.29907803887277        0.50673608414240        0.36967924628786
C            5.82298655122955       -1.00872797135919        0.38774371850203
C            5.11674235594245       -1.20884701155018        1.57285653512741
C            5.08346260986311       -2.45666291876947        2.16629113003208
C            5.75259434831443       -3.52326500526324        1.58661534413041
C            6.46315744299805       -3.33261201782072        0.41268773624256
C            6.50659872698222       -2.08297766681765       -0.17831755067847
C            2.95280815718017       -0.60686974743688       -0.56415273075191
C            1.61616280649742       -0.90612374285206       -0.47918715430397
C           -1.19312699695344       -1.48587224485985        0.31890253185225
C           -2.51567998836293       -1.77855077391786        0.44581588465166
H           -5.09373805346491       -2.15881135930022        0.60693394966046
H           -7.28964440399089        1.88288173214230       -0.85438441679593
H           -7.12111460484799        4.20642070196084       -0.09594149133698
H           -5.62447784004739        4.80278025022584        1.77777246106951
H           -4.29773434950512        3.03978146217591        2.89253155151407
H           -4.48269599957746        0.70689190447954        2.16487906818696
H           -6.20318649802013       -2.30986580693653       -1.53953688931501
H           -8.26051313707172       -3.31095218136725       -2.42272083451895
H          -10.46491742135009       -2.38373968857455       -1.79777650082358
H          -10.58860794832378       -0.46291313242611       -0.24866439131997
H           -8.54447922451382        0.52099450285169        0.67053099496373
H           -3.81180019993495        1.12680463160707       -0.77784967895646
H           -1.45190328420051        1.64514813491811       -0.96465887568158
H            0.40414989135849        2.21158828808251        0.03492341503786
H            2.77357076676449        2.73915320453643       -0.12654367709403
H            4.97380475794539        2.11040385349858       -0.80326574646679
H            6.71541334498375        1.93296119361336       -2.25390289829713
H            8.97356641432288        2.80949541601810       -2.63722075095519
H           10.81540734827664        2.21377153687941       -1.10448927371849
H           10.37362839442312        0.73115119424288        0.82094833419314
H            8.11161471234276       -0.13622427876027        1.21788252783985
H            4.59896377498857       -0.37629243124648        2.02709792597495
H            4.53559956476557       -2.59811306238498        3.08697564312543
H            5.72324522313274       -4.49848865975602        2.05061213961152
H            6.98922333324419       -4.15982401340797       -0.04226863695898
H            7.06204089930959       -1.93386148452302       -1.09385667392775
H            3.65928000732742       -1.39449624318418       -0.77676738739690
H            1.29965034917322       -1.92743768490089       -0.63070716884933
H           -0.45816566023466       -2.21695219834862        0.62262155153283
H           -2.82362541072726       -2.73869271128654        0.83624712952673

          :  Hamiltonian                  GFN2-xTB          :
         :: gradient norm              0.000023901827 Eh/a0 ::
         :: HOMO-LUMO gap              0.771168165139 eV    ::
         :: SCC energy              -102.823201026137 Eh    ::
         :: -> dispersion             -0.089609476681 Eh    ::
         :: -> Gsolv                  -0.042523297666 Eh    ::
         :: repulsion energy           1.975490027053 Eh    ::

    * Orbital Energies and Occupations

         #    Occupation            Energy/Eh            Energy/eV
      -------------------------------------------------------------
         1        2.0000           -0.6478554             -17.6290
       ...           ...                  ...                  ...
        84        2.0000           -0.4074963             -11.0885
        85        2.0000           -0.4067096             -11.0671
        86        2.0000           -0.4058189             -11.0429
        87        2.0000           -0.4043799             -11.0037
        88        2.0000           -0.4034251             -10.9778
        89        2.0000           -0.4027895             -10.9605
        90        2.0000           -0.4015557             -10.9269
        91        2.0000           -0.3995274             -10.8717
        92        2.0000           -0.3962922             -10.7837
        93        2.0000           -0.3949576             -10.7473
        94        2.0000           -0.3674018              -9.9975
        95        1.0000           -0.3425390              -9.3210
        96        1.0000           -0.2934232              -7.9845 (HOMO)
        97        0.0000           -0.2650834              -7.2133 (LUMO)
        98                         -0.2267067              -6.1690
        99                         -0.2255106              -6.1365
       100                         -0.2244345              -6.1072
       101                         -0.2236639              -6.0862
       102                         -0.2212324              -6.0200
       103                         -0.2210881              -6.0161
       104                         -0.2184181              -5.9435
       105                         -0.2167250              -5.8974
       106                         -0.2136205              -5.8129
       107                         -0.1931040              -5.2546
       ...                                ...                  ...
       190                          0.7116740              19.3656
      -------------------------------------------------------------
                  HL-Gap            0.0283399 Eh            0.7712 eV

     #   Z          covCN         q      C6AA      α(0)
     1   6 C        2.911    -0.045    29.125     8.849
     2   6 C        2.963    -0.005    28.137     8.701
     3   6 C        2.971     0.016    27.651     8.625
     4   6 C        2.922    -0.035    28.872     8.812
     5   6 C        2.915    -0.031    28.771     8.796
     6   6 C        2.919    -0.033    28.825     8.804
     7   6 C        2.915    -0.030    28.750     8.792
     8   6 C        2.922    -0.032    28.807     8.802
     9   6 C        2.973     0.011    27.775     8.645
    10   6 C        2.923    -0.037    28.921     8.819
    11   6 C        2.915    -0.030    28.759     8.794
    12   6 C        2.919    -0.034    28.848     8.808
    13   6 C        2.915    -0.031    28.777     8.797
    14   6 C        2.921    -0.035    28.874     8.812
    15   6 C        2.962     0.015    27.665     8.627
    16   6 C        2.914    -0.035    28.861     8.809
    17   6 C        2.915    -0.034    28.849     8.808
    18   6 C        2.973     0.007    27.870     8.660
    19   6 C        2.972     0.008    27.840     8.655
    20   6 C        2.920    -0.036    28.896     8.815
    21   6 C        2.923    -0.037    28.923     8.819
    22   6 C        2.968     0.014    27.696     8.632
    23   6 C        2.909    -0.046    29.140     8.852
    24   6 C        2.959     0.001    28.011     8.681
    25   6 C        2.979     0.011    27.769     8.644
    26   6 C        2.924    -0.036    28.886     8.814
    27   6 C        2.918    -0.030    28.759     8.794
    28   6 C        2.919    -0.032    28.793     8.799
    29   6 C        2.917    -0.031    28.762     8.795
    30   6 C        2.925    -0.032    28.805     8.802
    31   6 C        2.977     0.017    27.616     8.620
    32   6 C        2.924    -0.031    28.766     8.795
    33   6 C        2.918    -0.030    28.752     8.793
    34   6 C        2.920    -0.032    28.800     8.800
    35   6 C        2.918    -0.031    28.765     8.795
    36   6 C        2.924    -0.033    28.813     8.803
    37   6 C        2.919    -0.034    28.853     8.808
    38   6 C        2.921    -0.036    28.890     8.814
    39   6 C        2.914    -0.034    28.856     8.809
    40   6 C        2.919    -0.039    28.963     8.825
    41   1 H        0.925     0.037     2.484     2.465
    42   1 H        0.926     0.033     2.545     2.495
    43   1 H        0.926     0.030     2.590     2.517
    44   1 H        0.926     0.029     2.595     2.519
    45   1 H        0.926     0.029     2.603     2.523
    46   1 H        0.926     0.029     2.602     2.522
    47   1 H        0.926     0.030     2.580     2.512
    48   1 H        0.926     0.029     2.607     2.525
    49   1 H        0.926     0.028     2.610     2.526
    50   1 H        0.926     0.029     2.605     2.524
    51   1 H        0.926     0.033     2.551     2.498
    52   1 H        0.926     0.031     2.571     2.507
    53   1 H        0.926     0.031     2.572     2.508
    54   1 H        0.926     0.033     2.549     2.497
    55   1 H        0.925     0.030     2.581     2.512
    56   1 H        0.925     0.037     2.485     2.465
    57   1 H        0.926     0.034     2.537     2.491
    58   1 H        0.926     0.032     2.565     2.505
    59   1 H        0.926     0.031     2.573     2.508
    60   1 H        0.926     0.030     2.582     2.513
    61   1 H        0.926     0.029     2.603     2.523
    62   1 H        0.926     0.029     2.603     2.523
    63   1 H        0.926     0.031     2.576     2.510
    64   1 H        0.926     0.031     2.578     2.511
    65   1 H        0.926     0.031     2.579     2.511
    66   1 H        0.926     0.028     2.613     2.528
    67   1 H        0.926     0.031     2.570     2.507
    68   1 H        0.926     0.032     2.564     2.504
    69   1 H        0.926     0.033     2.547     2.496
    70   1 H        0.925     0.030     2.588     2.516

molecular dipole:
                 x           y           z       tot (Debye)
 q only:        0.330       0.027       0.013
   full:        0.342       0.013       0.036       0.876

 projected vibrational frequencies (cm⁻¹)
eigval :       -0.00    -0.00     0.00     0.00     0.00     0.00
eigval :        5.79    11.12    15.22    22.40    29.91    42.88
eigval :       45.37    52.59    55.98    64.61    65.42    71.94
eigval :       79.00    88.95    95.94   116.23   128.00   171.57
eigval :      174.18   194.32   207.56   213.28   240.81   244.17
eigval :      253.97   280.85   287.87   306.14   314.88   357.65
eigval :      365.86   367.85   369.01   373.01   381.52   385.74
eigval :      389.93   400.01   411.90   430.84   446.38   464.41
eigval :      475.79   514.22   523.75   537.47   554.76   562.70
eigval :      580.86   583.77   586.47   588.02   588.75   600.56
eigval :      612.86   616.85   626.26   656.49   659.70   663.44
eigval :      667.85   674.26   688.03   705.41   733.60   736.04
eigval :      741.19   750.50   756.53   763.30   767.53   798.54
eigval :      818.79   828.25   839.03   849.64   854.25   861.31
eigval :      863.10   865.51   870.78   875.64   881.74   892.72
eigval :      898.05   899.64   910.52   912.92   915.91   916.32
eigval :      918.89   919.91   920.51   925.24   925.88   928.51
eigval :      929.03   929.68   930.84   933.19   963.03   969.05
eigval :      978.95   987.98   999.59  1007.80  1056.30  1077.31
eigval :     1078.49  1081.52  1084.68  1113.24  1118.47  1119.58
eigval :     1122.55  1132.63  1138.56  1153.63  1169.01  1177.73
eigval :     1178.92  1180.71  1181.04  1187.34  1189.85  1192.98
eigval :     1197.18  1203.03  1205.15  1221.10  1232.61  1271.38
eigval :     1273.28  1277.13  1279.42  1280.61  1283.85  1284.97
eigval :     1292.57  1304.79  1312.12  1317.09  1320.53  1323.33
eigval :     1324.50  1328.84  1341.83  1354.53  1409.97  1416.29
eigval :     1418.37  1427.37  1427.89  1429.36  1435.54  1437.11
eigval :     1449.90  1464.56  1471.36  1477.49  1481.38  1484.06
eigval :     1516.50  1534.10  1534.55  1537.69  1563.73  1568.90
eigval :     1572.96  1575.55  1582.82  1590.75  1596.08  1610.40
eigval :     3023.07  3037.60  3061.03  3062.27  3063.37  3064.46
eigval :     3065.12  3065.16  3066.24  3066.77  3067.60  3067.77
eigval :     3074.09  3074.40  3075.89  3076.97  3078.04  3078.25
eigval :     3079.04  3080.30  3080.92  3082.38  3082.78  3084.45
eigval :     3087.56  3088.19  3088.43  3089.73  3096.98  3098.42

   temp. (K)  partition function   enthalpy   heat capacity  entropy
                                   cal/mol     cal/K/mol   cal/K/mol   J/K/mol
 298.15  VIB  0.158E+17            19445.684    121.677    123.499
         ROT  0.704E+08              888.752      2.981     38.891
         INT  0.112E+25            20334.437    124.658    162.391
         TR   0.112E+29             1481.254      4.968     44.558
         TOT                       21815.6906   129.6263   206.9487   865.8733

       T/K    H(0)-H(T)+PV         H(T)/Eh          T*S/Eh         G(T)/Eh
   ------------------------------------------------------------------------
    298.15    0.347655E-01    0.584827E+00    0.983280E-01    0.486499E+00
   ------------------------------------------------------------------------

         :::::::::::::::::::::::::::::::::::::::::::::::::::::
         ::                  THERMODYNAMIC                  ::
         :::::::::::::::::::::::::::::::::::::::::::::::::::::
         :: total free energy        -100.361211922582 Eh   ::
         ::.................................................::
         :: total energy             -100.847711002970 Eh   ::
         :: zero point energy           0.550061565985 Eh   ::
         :: G(RRHO) w/o ZPVE           -0.063562485597 Eh   ::
         :: G(RRHO) contrib.            0.486499080388 Eh   ::
         :::::::::::::::::::::::::::::::::::::::::::::::::::::

           -------------------------------------------------
          | TOTAL ENERGY             -100.847711002970 Eh   |
          | TOTAL ENTHALPY           -100.262883921135 Eh   |
          | TOTAL FREE ENERGY        -100.361211922582 Eh   |
          | GRADIENT NORM               0.000023896802 Eh/α |
          | HOMO-LUMO GAP               0.771166921101 eV   |
           -------------------------------------------------

 * finished run on 2025/09/10 at 19:37:16.712
