   * xtb version 6.7.1 (edcfbbe) compiled by 'albert@albert-system' on 2024-07-22

   ID    Z sym.   atoms
    1    6 C      1-40
    2    1 H      41-70

          program call               : xtb data2507/toluene/DPVBi/DPVBi_toluene_S0_finalOpt.xtbopt.xyz --gfn 2 --uhf 2 --gbsa toluene --ohess vtight --parallel 40 --molden --ceasefiles --namespace data2507/toluene/DPVBi/DPVBi_toluene_T1_preOpt
      * Solvation model:               GBSA
        Solvent                        toluene
        Solvent mass                       9.2140E+01 g/mol
          :  Hamiltonian                  GFN2-xTB          :
 * total energy  :  -100.8287764 Eh     change       -0.8822667E-09 Eh
 * total energy  :  -100.8374311 Eh     change       -0.8654699E-02 Eh
 * total energy  :  -100.8412662 Eh     change       -0.3835046E-02 Eh
 * total energy  :  -100.8425744 Eh     change       -0.1308269E-02 Eh
 * total energy  :  -100.8438702 Eh     change       -0.1295771E-02 Eh
 * total energy  :  -100.8447072 Eh     change       -0.8369867E-03 Eh
 * total energy  :  -100.8452153 Eh     change       -0.5081331E-03 Eh
 * total energy  :  -100.8455588 Eh     change       -0.3435240E-03 Eh
 * total energy  :  -100.8458670 Eh     change       -0.3081372E-03 Eh
 * total energy  :  -100.8461015 Eh     change       -0.2345360E-03 Eh
 * total energy  :  -100.8476737 Eh     change       -0.8479918E-06 Eh
 * total energy  :  -100.8476745 Eh     change       -0.8402508E-06 Eh
 * total energy  :  -100.8476754 Eh     change       -0.8385106E-06 Eh
 * total energy  :  -100.8476762 Eh     change       -0.8707765E-06 Eh
 * total energy  :  -100.8476772 Eh     change       -0.9300541E-06 Eh
 * total energy  :  -100.8476782 Eh     change       -0.9951288E-06 Eh
 * total energy  :  -100.8476792 Eh     change       -0.1048485E-05 Eh
 * total energy  :  -100.8476803 Eh     change       -0.1090657E-05 Eh
 * total energy  :  -100.8476803 Eh     change       -0.4480356E-08 Eh
   *** GEOMETRY OPTIMIZATION CONVERGED AFTER 94 ITERATIONS ***

 final structure:
================
70
 xtb: 6.7.1 (edcfbbe)
C           -4.87842095186348       -1.09488587971418        0.27087013710313
C           -5.99521214082275       -0.18679395962336        0.17402627829170
C           -5.86612137834828        1.16952605388534        0.62528450948274
C           -6.61320183387374        2.21316552839514        0.04284956433565
C           -6.45607631287407        3.51604973152656        0.46048049758387
C           -5.56108146265715        3.82937780673039        1.47615163232296
C           -4.81385447416023        2.81636260723069        2.06334324282970
C           -4.95577784509838        1.51182818020785        1.64671300553463
C           -7.24042446837545       -0.69963207937312       -0.31875184729966
C           -7.26279850597333       -1.80593075007833       -1.19283072238203
C           -8.45206852511585       -2.32990359632645       -1.64732157137198
C           -9.66334658813276       -1.78317167096479       -1.24203166512558
C           -9.66532969268220       -0.70386751408884       -0.36733631615941
C           -8.48114705925226       -0.16788861394119        0.08756946692002
C           -3.54554818682056       -0.80447458512709        0.04189785791526
C           -3.08044650974699        0.44029714446974       -0.48944948988355
C           -1.75072213866015        0.70881250237470       -0.60366078614465
C           -0.76171223347784       -0.23657076569348       -0.24573094820857
C            0.64443895933157        0.06881421353844       -0.33996249240103
C            1.11632609942824        1.38762989602753       -0.20730926346284
C            2.45717195220894        1.67364793002874       -0.26578065737650
C            3.41585230637991        0.66462712960346       -0.45136735828521
C            4.81222352754006        1.02413458923561       -0.49965119169346
C            5.88547157173967        0.25307167384402       -0.20913644407947
C            7.24634592476432        0.76074821323911       -0.41817279899331
C            7.54916427345417        1.59935212812046       -1.49285226260811
C            8.83277132267324        2.07740895530724       -1.67582888158484
C            9.84074378521569        1.73060359564297       -0.79033732640497
C            9.55547049764913        0.89429122000279        0.27732966336016
C            8.27440717310152        0.41017166746463        0.45997132582165
C            5.78400652946457       -1.08774084784163        0.39379858353412
C            5.03447679759205       -1.29520471920715        1.55086042439814
C            4.96982253021195       -2.54923870483014        2.12821524513593
C            5.65106115869281       -3.61486216643938        1.56096439528284
C            6.40652899771905       -3.41667928141595        0.41672170079153
C            6.48013334240895       -2.16116144827696       -0.15863724441147
C            2.94516472400033       -0.64491776321961       -0.63248207165045
C            1.60507178325457       -0.93331458437831       -0.57037326750512
C           -1.21409613894172       -1.50148479551509        0.20216338203118
C           -2.53912982576948       -1.77776062508378        0.33777958188793
H           -5.11858264732863       -2.11475164149193        0.54953699492605
H           -7.28063706102402        1.98755041037264       -0.77624392963176
H           -7.02859150024618        4.30171131439348       -0.01243512764916
H           -5.44465478487572        4.85217553190657        1.80257172119807
H           -4.11807559707378        3.05174209157683        2.85636885664343
H           -4.38643372233707        0.72862871803964        2.12508596054717
H           -6.32542531874151       -2.22253719318132       -1.53271032228609
H           -8.44277635643421       -3.17039760023811       -2.32721014248408
H          -10.59486973923502       -2.19765652363946       -1.59801332401888
H          -10.60452158755374       -0.28588571552626       -0.03273305145735
H           -8.49865724076253        0.64380524133609        0.80007756731095
H           -3.80643664103972        1.16523273268303       -0.82344118492432
H           -1.44198566673101        1.65424976789675       -1.02545358083383
H            0.41485842520536        2.18651213180601       -0.01742701934712
H            2.79053169083130        2.69489358433042       -0.13986647476475
H            5.00003212553520        2.05209705849766       -0.78785433505291
H            6.77587721335800        1.85755198046002       -2.20175859028117
H            9.05055116394360        2.72088766043425       -2.51647442750183
H           10.84329108483443        2.10656264193168       -0.93370099902958
H           10.33666337523284        0.61870999480803        0.97147812068638
H            8.05807811770220       -0.23512986242117        1.29952323992638
H            4.50735253050673       -0.46377751678181        1.99624096683772
H            4.38764861210030       -2.69642580240642        3.02669279920006
H            5.59687208513302       -4.59499890624350        2.01219701614465
H            6.94316501999118       -4.24282322403837       -0.02769501626714
H            7.06959329612796       -2.00648756997260       -1.05170939566657
H            3.64779212007325       -1.43476363444630       -0.85002539232921
H            1.28142740090073       -1.94863824244851       -0.74516079574090
H           -0.48689819909333       -2.24948814313368        0.48224705307397
H           -2.85667590153141       -2.74140412410973        0.71153098932794

          :  Hamiltonian                  GFN2-xTB          :
         :: gradient norm              0.000051141275 Eh/a0 ::
         :: HOMO-LUMO gap              0.764133584269 eV    ::
         :: SCC energy              -102.823119749292 Eh    ::
         :: -> dispersion             -0.089697060795 Eh    ::
         :: -> Gsolv                  -0.042503468506 Eh    ::
         :: repulsion energy           1.975439444302 Eh    ::

    * Orbital Energies and Occupations

         #    Occupation            Energy/Eh            Energy/eV
      -------------------------------------------------------------
         1        2.0000           -0.6478432             -17.6287
       ...           ...                  ...                  ...
        84        2.0000           -0.4074827             -11.0882
        85        2.0000           -0.4067599             -11.0685
        86        2.0000           -0.4058175             -11.0429
        87        2.0000           -0.4043918             -11.0041
        88        2.0000           -0.4033610             -10.9760
        89        2.0000           -0.4027647             -10.9598
        90        2.0000           -0.4015085             -10.9256
        91        2.0000           -0.3994326             -10.8691
        92        2.0000           -0.3962827             -10.7834
        93        2.0000           -0.3949613             -10.7474
        94        2.0000           -0.3674199              -9.9980
        95        1.0000           -0.3428184              -9.3286
        96        1.0000           -0.2931022              -7.9757 (HOMO)
        97        0.0000           -0.2650207              -7.2116 (LUMO)
        98                         -0.2267150              -6.1692
        99                         -0.2255318              -6.1370
       100                         -0.2244634              -6.1080
       101                         -0.2238037              -6.0900
       102                         -0.2213438              -6.0231
       103                         -0.2211146              -6.0168
       104                         -0.2184211              -5.9435
       105                         -0.2166212              -5.8946
       106                         -0.2133748              -5.8062
       107                         -0.1931561              -5.2560
       ...                                ...                  ...
       190                          0.7118818              19.3713
      -------------------------------------------------------------
                  HL-Gap            0.0280815 Eh            0.7641 eV

     #   Z          covCN         q      C6AA      α(0)
     1   6 C        2.911    -0.045    29.128     8.850
     2   6 C        2.963    -0.005    28.138     8.701
     3   6 C        2.971     0.016    27.650     8.625
     4   6 C        2.922    -0.035    28.870     8.811
     5   6 C        2.915    -0.031    28.772     8.796
     6   6 C        2.919    -0.033    28.824     8.804
     7   6 C        2.915    -0.030    28.750     8.792
     8   6 C        2.922    -0.032    28.804     8.801
     9   6 C        2.973     0.011    27.776     8.645
    10   6 C        2.923    -0.037    28.922     8.819
    11   6 C        2.915    -0.030    28.759     8.794
    12   6 C        2.919    -0.034    28.848     8.808
    13   6 C        2.915    -0.031    28.777     8.797
    14   6 C        2.921    -0.035    28.874     8.812
    15   6 C        2.962     0.015    27.666     8.627
    16   6 C        2.914    -0.034    28.858     8.809
    17   6 C        2.915    -0.034    28.851     8.808
    18   6 C        2.972     0.007    27.871     8.660
    19   6 C        2.972     0.008    27.840     8.655
    20   6 C        2.920    -0.036    28.897     8.815
    21   6 C        2.923    -0.037    28.923     8.819
    22   6 C        2.968     0.014    27.695     8.632
    23   6 C        2.909    -0.046    29.139     8.851
    24   6 C        2.959     0.001    28.011     8.681
    25   6 C        2.979     0.011    27.769     8.644
    26   6 C        2.924    -0.036    28.886     8.814
    27   6 C        2.918    -0.030    28.759     8.794
    28   6 C        2.919    -0.032    28.793     8.799
    29   6 C        2.917    -0.031    28.762     8.795
    30   6 C        2.925    -0.032    28.805     8.801
    31   6 C        2.977     0.017    27.618     8.620
    32   6 C        2.924    -0.031    28.765     8.795
    33   6 C        2.918    -0.030    28.752     8.793
    34   6 C        2.920    -0.032    28.800     8.800
    35   6 C        2.918    -0.031    28.765     8.795
    36   6 C        2.924    -0.033    28.813     8.803
    37   6 C        2.918    -0.034    28.849     8.808
    38   6 C        2.921    -0.036    28.890     8.814
    39   6 C        2.914    -0.034    28.857     8.809
    40   6 C        2.919    -0.039    28.963     8.825
    41   1 H        0.925     0.037     2.485     2.465
    42   1 H        0.926     0.033     2.545     2.495
    43   1 H        0.926     0.030     2.589     2.516
    44   1 H        0.926     0.029     2.594     2.519
    45   1 H        0.926     0.029     2.603     2.523
    46   1 H        0.926     0.029     2.602     2.522
    47   1 H        0.926     0.031     2.578     2.511
    48   1 H        0.926     0.029     2.607     2.525
    49   1 H        0.926     0.028     2.610     2.526
    50   1 H        0.926     0.029     2.605     2.524
    51   1 H        0.926     0.032     2.552     2.498
    52   1 H        0.926     0.031     2.571     2.507
    53   1 H        0.926     0.031     2.573     2.508
    54   1 H        0.926     0.033     2.548     2.496
    55   1 H        0.925     0.030     2.581     2.512
    56   1 H        0.925     0.037     2.484     2.465
    57   1 H        0.926     0.033     2.537     2.491
    58   1 H        0.926     0.031     2.565     2.505
    59   1 H        0.926     0.031     2.573     2.508
    60   1 H        0.926     0.030     2.582     2.513
    61   1 H        0.926     0.029     2.604     2.523
    62   1 H        0.926     0.029     2.603     2.523
    63   1 H        0.926     0.031     2.577     2.510
    64   1 H        0.926     0.031     2.578     2.511
    65   1 H        0.926     0.031     2.579     2.511
    66   1 H        0.926     0.028     2.612     2.527
    67   1 H        0.926     0.031     2.572     2.508
    68   1 H        0.926     0.032     2.564     2.504
    69   1 H        0.926     0.033     2.547     2.496
    70   1 H        0.925     0.030     2.588     2.516

molecular dipole:
                 x           y           z       tot (Debye)
 q only:        0.334       0.026       0.014
   full:        0.345       0.012       0.042       0.885

 projected vibrational frequencies (cm⁻¹)
eigval :       -0.00    -0.00     0.00     0.00     0.00     0.00
eigval :        9.02    10.89    15.89    21.28    29.30    39.84
eigval :       48.07    52.15    54.76    63.03    64.82    70.83
eigval :       78.52    88.69    96.69   115.88   129.63   170.90
eigval :      175.42   195.40   206.86   214.86   241.09   244.21
eigval :      253.86   281.64   288.14   306.49   314.95   357.40
eigval :      365.96   368.32   368.97   373.73   381.34   385.21
eigval :      389.72   399.29   411.43   429.89   446.81   463.95
eigval :      474.87   514.60   522.28   537.78   554.80   562.97
eigval :      580.63   583.69   586.34   588.16   588.87   600.45
eigval :      612.39   616.13   626.18   655.66   660.88   663.60
eigval :      667.56   674.49   686.35   704.99   734.31   736.20
eigval :      739.79   749.72   755.58   763.85   768.19   797.12
eigval :      816.87   825.26   838.91   848.74   852.66   855.42
eigval :      863.23   867.66   869.54   876.54   883.27   894.65
eigval :      897.79   899.75   909.40   912.83   913.64   915.82
eigval :      918.97   920.20   921.45   924.44   924.98   925.41
eigval :      928.50   928.91   931.35   938.74   962.79   968.99
eigval :      978.93   988.15   999.42  1007.80  1055.53  1077.77
eigval :     1078.21  1082.11  1084.45  1113.75  1119.98  1120.14
eigval :     1122.82  1132.81  1138.87  1153.95  1168.92  1177.32
eigval :     1178.99  1180.20  1180.25  1188.19  1189.01  1193.00
eigval :     1197.77  1203.34  1205.68  1221.41  1232.65  1270.82
eigval :     1273.95  1277.54  1280.48  1280.84  1284.00  1284.92
eigval :     1292.41  1304.91  1312.29  1317.15  1320.68  1323.34
eigval :     1324.56  1328.74  1342.46  1354.02  1410.09  1416.51
eigval :     1418.33  1427.17  1427.75  1429.29  1435.82  1436.95
eigval :     1449.46  1464.34  1471.35  1477.36  1480.84  1483.32
eigval :     1515.33  1534.49  1534.78  1537.56  1563.55  1568.46
eigval :     1572.82  1575.47  1582.90  1590.54  1595.95  1609.79
eigval :     3024.10  3037.25  3061.16  3062.36  3062.69  3063.87
eigval :     3065.14  3065.53  3066.08  3066.38  3067.58  3067.72
eigval :     3074.22  3074.64  3075.89  3076.61  3078.06  3079.20
eigval :     3079.75  3080.35  3080.92  3082.79  3083.27  3084.94
eigval :     3087.77  3087.83  3088.33  3089.89  3096.87  3098.11

   temp. (K)  partition function   enthalpy   heat capacity  entropy
                                   cal/mol     cal/K/mol   cal/K/mol   J/K/mol
 298.15  VIB  0.115E+17            19449.314    121.618    123.120
         ROT  0.699E+08              888.752      2.981     38.875
         INT  0.806E+24            20338.067    124.599    161.995
         TR   0.112E+29             1481.254      4.968     44.558
         TOT                       21819.3207   129.5674   206.5533   864.2190

       T/K    H(0)-H(T)+PV         H(T)/Eh          T*S/Eh         G(T)/Eh
   ------------------------------------------------------------------------
    298.15    0.347713E-01    0.584799E+00    0.981401E-01    0.486659E+00
   ------------------------------------------------------------------------

         :::::::::::::::::::::::::::::::::::::::::::::::::::::
         ::                  THERMODYNAMIC                  ::
         :::::::::::::::::::::::::::::::::::::::::::::::::::::
         :: total free energy        -100.361021314527 Eh   ::
         ::.................................................::
         :: total energy             -100.847680309939 Eh   ::
         :: zero point energy           0.550027833988 Eh   ::
         :: G(RRHO) w/o ZPVE           -0.063368838575 Eh   ::
         :: G(RRHO) contrib.            0.486658995412 Eh   ::
         :::::::::::::::::::::::::::::::::::::::::::::::::::::

           -------------------------------------------------
          | TOTAL ENERGY             -100.847680309939 Eh   |
          | TOTAL ENTHALPY           -100.262881175200 Eh   |
          | TOTAL FREE ENERGY        -100.361021314527 Eh   |
          | GRADIENT NORM               0.000051146430 Eh/α |
          | HOMO-LUMO GAP               0.764136665531 eV   |
           -------------------------------------------------

 * finished run on 2025/09/10 at 19:33:53.539
