   * xtb version 6.7.1 (edcfbbe) compiled by 'albert@albert-system' on 2024-07-22

   ID    Z sym.   atoms
    1    6 C      1-9, 11-44
    2   14 Si     10
    3    1 H      45-76

          program call               : xtb data2507/gas/TPSi-F/TPSi-F_gas_S0_crest.xyz --gfn 2 --ohess vtight --parallel 40 --molden --ceasefiles --namespace data2507/gas/TPSi-F/TPSi-F_gas_S0_finalOpt
          :  Hamiltonian                  GFN2-xTB          :
 * total energy  :  -110.0577833 Eh     change       -0.1320061E-08 Eh
 * total energy  :  -110.0577849 Eh     change       -0.1620235E-05 Eh
 * total energy  :  -110.0577871 Eh     change       -0.2210403E-05 Eh
 * total energy  :  -110.0577881 Eh     change       -0.9775317E-06 Eh
 * total energy  :  -110.0577907 Eh     change       -0.2587418E-05 Eh
 * total energy  :  -110.0577938 Eh     change       -0.3162610E-05 Eh
 * total energy  :  -110.0577955 Eh     change       -0.1684878E-05 Eh
 * total energy  :  -110.0577963 Eh     change       -0.7412506E-06 Eh
 * total energy  :  -110.0577970 Eh     change       -0.7628143E-06 Eh
 * total energy  :  -110.0577984 Eh     change       -0.1349494E-05 Eh
 * total energy  :  -110.0578022 Eh     change       -0.6805360E-06 Eh
 * total energy  :  -110.0578031 Eh     change       -0.8965446E-06 Eh
 * total energy  :  -110.0578041 Eh     change       -0.9740822E-06 Eh
 * total energy  :  -110.0578048 Eh     change       -0.7167620E-06 Eh
 * total energy  :  -110.0578051 Eh     change       -0.3442095E-06 Eh
 * total energy  :  -110.0578054 Eh     change       -0.2510682E-06 Eh
 * total energy  :  -110.0578057 Eh     change       -0.3233683E-06 Eh
 * total energy  :  -110.0578061 Eh     change       -0.3548774E-06 Eh
 * total energy  :  -110.0578062 Eh     change       -0.9342436E-07 Eh
   *** GEOMETRY OPTIMIZATION CONVERGED AFTER 22 ITERATIONS ***

 final structure:
================
76
 xtb: 6.7.1 (edcfbbe)
C            4.75112038429193        4.13605000253015       -0.91600772222478
C            3.62120305213210        3.99252168210479       -0.12906637915223
C            3.10309069668673        2.73531494290387        0.12206320719942
C            3.70361870700752        1.60278474142473       -0.41643814031445
C            3.16773834079624        0.22519719354933       -0.07937593174604
C            1.65449407057373        0.18402914865954       -0.02576242956854
C            0.90062553854327        0.89689501178327       -0.95128918769646
C           -0.47879696180590        0.82320488523720       -0.93985451376685
C           -1.15127031887404        0.03172322315850       -0.01490693715663
Si          -3.04145612937007       -0.05181136605879        0.03794835812366
C           -3.76671386813815        0.59003305958331       -1.59072185808448
C           -3.86219882711211        1.95869160820363       -1.82813619439986
C           -4.37783292076847        2.44339876756666       -3.01617834935435
C           -4.81109469625715        1.56220225780239       -3.99299478349814
C           -4.72582820515921        0.19786864850721       -3.77264308383400
C           -4.20767092958958       -0.28017718077343       -2.58229011076077
C           -3.69590686514818        1.02839794273507        1.45133932980570
C           -5.01899681293005        1.46204915766315        1.45058568668793
C           -5.51913157415507        2.23247498827927        2.48437388863307
C           -4.69914280105996        2.58649682577114        3.54290320498075
C           -3.37936798854942        2.16810976873884        3.55760543500539
C           -2.88599653758159        1.39662944682770        2.52071699369019
C           -3.55950115356915       -1.85457203028315        0.30548220503394
C           -4.66172566259078       -2.18587947992924        1.08667714852198
C           -5.04690342962705       -3.50384623851286        1.25505719780861
C           -4.33202757707279       -4.51842193342679        0.64113161536977
C           -3.22983537509245       -4.20702517795668       -0.13754513516587
C           -2.85002491929330       -2.88745846391543       -0.30138767158205
C           -0.38677817611036       -0.69502059842584        0.89278136366017
C            0.99335410840755       -0.62552924254079        0.88902310032870
C            3.83400970537838       -0.22050117897005        1.20829710092002
C            3.79866950482660        0.38035234310134        2.44833265609360
C            4.51005587585968       -0.19973078886695        3.48991427270431
C            5.24667823927321       -1.35720082830070        3.28955322118658
C            5.29043036701114       -1.96256366004926        2.04420636999122
C            4.58124618437466       -1.38867905612939        1.00201047488582
C            4.44010385804285       -1.78902777091661       -0.38837195740731
C            4.96105814010987       -2.87102863028275       -1.07854790849330
C            4.65531253413923       -3.01064290780676       -2.42257400532924
C            3.84198811758519       -2.08911819670311       -3.06434253248651
C            3.31661229706863       -1.00311492491167       -2.37712635962211
C            3.62384117756760       -0.85479378516575       -1.04160420208770
C            4.84413680087584        1.75373013710339       -1.19392038662357
C            5.36120718610519        3.01251804818378       -1.44531854809258
H            5.15488273309365        5.11816326626464       -1.11326135634563
H            3.14073810332226        4.86353110050465        0.29265810444431
H            2.21712168429323        2.63368576871412        0.73234879964431
H            1.39743959640676        1.52413661476883       -1.67806408324413
H           -1.04694922140861        1.38717544705324       -1.66602770958990
H           -3.53161087415383        2.65066153336864       -1.06576369033992
H           -4.44408610814555        3.50943919480988       -3.18199584049755
H           -5.21589505484925        1.93803615552731       -4.92166374572028
H           -5.06545410335629       -0.49392289005774       -4.53042406547316
H           -4.14776427431894       -1.34622041040268       -2.41383920690354
H           -5.66140755732341        1.19506097100311        0.62269166247102
H           -6.54929475080173        2.55907714511843        2.46589864480300
H           -5.08711927043354        3.18854309933039        4.35193217931116
H           -2.73435615711274        2.44454219634452        4.37967267952075
H           -1.85389882142016        1.07606397659592        2.53600475079553
H           -5.22089607389856       -1.39871173404849        1.57241291391854
H           -5.90582933878156       -3.74174519606429        1.86641810063892
H           -4.63122683436278       -5.54859014829448        0.77062046009923
H           -2.66610837003202       -4.99502840623842       -0.61663707504382
H           -1.98527714698878       -2.64999347060813       -0.90562823637003
H           -0.88324690550249       -1.33219455824926        1.61155682592331
H            1.56173169454888       -1.20334490332216        1.60385064283615
H            3.22837352315062        1.28279843557436        2.61096948646468
H            4.48992219748077        0.25735195315613        4.46841131052246
H            5.79351733715001       -1.79026797076965        4.11451874741705
H            5.86659507082298       -2.86280720403417        1.88991213909278
H            5.59216505701141       -3.59164414911152       -0.57991705211860
H            5.05327775989431       -3.84775189286275       -2.97760628618001
H            3.61380975419623       -2.21724633562137       -4.11234712392764
H            2.68296719042827       -0.28971250639482       -2.88278059346835
H            5.33116173504095        0.88260931644476       -1.60741727391412
H            6.24602529415049        3.11416140050683       -2.05674611604711

          :  Hamiltonian                  GFN2-xTB          :
         :: gradient norm              0.000105554044 Eh/a0 ::
         :: HOMO-LUMO gap              3.437985343075 eV    ::
         :: SCC energy              -112.206328794624 Eh    ::
         :: -> dispersion             -0.107673214580 Eh    ::
         :: repulsion energy           2.148522640781 Eh    ::

    * Orbital Energies and Occupations

         #    Occupation            Energy/Eh            Energy/eV
      -------------------------------------------------------------
         1        2.0000           -0.7515679             -20.4512
       ...           ...                  ...                  ...
        92        2.0000           -0.4025385             -10.9536
        93        2.0000           -0.4006945             -10.9035
        94        2.0000           -0.4004328             -10.8963
        95        2.0000           -0.3998317             -10.8800
        96        2.0000           -0.3995822             -10.8732
        97        2.0000           -0.3993230             -10.8661
        98        2.0000           -0.3954185             -10.7599
        99        2.0000           -0.3941297             -10.7248
       100        2.0000           -0.3890383             -10.5863
       101        2.0000           -0.3829101             -10.4195
       102        2.0000           -0.3813816             -10.3779
       103        2.0000           -0.3804902             -10.3537
       104        2.0000           -0.3773807             -10.2691 (HOMO)
       105                         -0.2510371              -6.8311 (LUMO)
       106                         -0.2392104              -6.5092
       107                         -0.2345466              -6.3823
       108                         -0.2337844              -6.3616
       109                         -0.2272089              -6.1827
       110                         -0.2265508              -6.1648
       111                         -0.2216898              -6.0325
       112                         -0.2199268              -5.9845
       113                         -0.2186511              -5.9498
       114                         -0.2178151              -5.9271
       115                         -0.2174312              -5.9166
       ...                                ...                  ...
       213                          0.7308146              19.8865
      -------------------------------------------------------------
                  HL-Gap            0.1263436 Eh            3.4380 eV

     #   Z          covCN         q      C6AA      α(0)
     1   6 C        2.920    -0.033    28.811     8.802
     2   6 C        2.920    -0.030    28.759     8.794
     3   6 C        2.924    -0.034    28.839     8.807
     4   6 C        2.980     0.017    27.613     8.620
     5   6 C        3.947     0.007    20.391     6.417
     6   6 C        2.981     0.018    27.604     8.618
     7   6 C        2.921    -0.034    28.856     8.809
     8   6 C        2.935    -0.033    28.833     8.806
     9   6 C        2.863    -0.097    30.446     9.044
    10  14 Si       3.615     0.485    98.266    19.028
    11   6 C        2.863    -0.094    30.350     9.030
    12   6 C        2.938    -0.031    28.763     8.796
    13   6 C        2.917    -0.030    28.743     8.792
    14   6 C        2.921    -0.028    28.708     8.786
    15   6 C        2.918    -0.029    28.732     8.790
    16   6 C        2.936    -0.032    28.789     8.800
    17   6 C        2.863    -0.093    30.343     9.029
    18   6 C        2.938    -0.030    28.760     8.795
    19   6 C        2.917    -0.030    28.741     8.791
    20   6 C        2.921    -0.028    28.708     8.786
    21   6 C        2.918    -0.029    28.732     8.790
    22   6 C        2.936    -0.032    28.792     8.800
    23   6 C        2.863    -0.094    30.347     9.030
    24   6 C        2.936    -0.032    28.793     8.800
    25   6 C        2.918    -0.029    28.733     8.790
    26   6 C        2.921    -0.028    28.706     8.786
    27   6 C        2.917    -0.030    28.739     8.791
    28   6 C        2.938    -0.031    28.762     8.796
    29   6 C        2.938    -0.032    28.791     8.800
    30   6 C        2.921    -0.036    28.907     8.817
    31   6 C        3.058     0.005    27.865     8.657
    32   6 C        2.914    -0.033    28.831     8.805
    33   6 C        2.922    -0.032    28.808     8.802
    34   6 C        2.921    -0.033    28.819     8.803
    35   6 C        2.915    -0.034    28.848     8.808
    36   6 C        3.035     0.001    27.971     8.675
    37   6 C        3.035     0.001    27.971     8.675
    38   6 C        2.915    -0.034    28.850     8.808
    39   6 C        2.921    -0.033    28.820     8.804
    40   6 C        2.922    -0.032    28.810     8.802
    41   6 C        2.914    -0.033    28.834     8.805
    42   6 C        3.058     0.005    27.866     8.657
    43   6 C        2.924    -0.036    28.884     8.814
    44   6 C        2.920    -0.030    28.749     8.793
    45   1 H        0.926     0.029     2.594     2.519
    46   1 H        0.926     0.030     2.593     2.518
    47   1 H        0.926     0.030     2.586     2.515
    48   1 H        0.926     0.028     2.609     2.526
    49   1 H        0.926     0.022     2.708     2.573
    50   1 H        0.925     0.019     2.744     2.590
    51   1 H        0.926     0.027     2.630     2.536
    52   1 H        0.926     0.028     2.616     2.530
    53   1 H        0.926     0.027     2.629     2.536
    54   1 H        0.926     0.020     2.726     2.582
    55   1 H        0.925     0.019     2.747     2.592
    56   1 H        0.926     0.027     2.630     2.536
    57   1 H        0.926     0.028     2.616     2.529
    58   1 H        0.926     0.027     2.630     2.536
    59   1 H        0.926     0.021     2.721     2.580
    60   1 H        0.926     0.021     2.720     2.579
    61   1 H        0.926     0.027     2.628     2.535
    62   1 H        0.926     0.028     2.616     2.529
    63   1 H        0.926     0.027     2.630     2.536
    64   1 H        0.925     0.019     2.745     2.591
    65   1 H        0.925     0.020     2.734     2.586
    66   1 H        0.926     0.028     2.616     2.529
    67   1 H        0.926     0.030     2.593     2.518
    68   1 H        0.926     0.030     2.586     2.515
    69   1 H        0.926     0.030     2.589     2.516
    70   1 H        0.926     0.031     2.575     2.509
    71   1 H        0.926     0.031     2.574     2.509
    72   1 H        0.926     0.030     2.589     2.516
    73   1 H        0.926     0.030     2.586     2.515
    74   1 H        0.926     0.030     2.589     2.516
    75   1 H        0.926     0.030     2.588     2.516
    76   1 H        0.926     0.030     2.592     2.518

molecular dipole:
                 x           y           z       tot (Debye)
 q only:       -0.015       0.040      -0.007
   full:       -0.008       0.021      -0.007       0.061

 projected vibrational frequencies (cm⁻¹)
eigval :       -0.00    -0.00    -0.00    -0.00     0.00     0.00
eigval :        6.66    13.56    20.57    24.06    26.92    29.54
eigval :       32.47    35.18    40.38    43.62    45.47    46.17
eigval :       52.16    64.35    81.34    88.09   132.93   137.70
eigval :      148.62   150.90   161.79   181.74   186.63   202.16
eigval :      211.25   217.98   226.67   231.28   247.29   275.92
eigval :      287.34   307.75   315.57   334.24   358.37   358.50
eigval :      360.41   365.84   376.76   388.18   413.76   414.74
eigval :      419.03   423.78   443.86   453.79   462.38   476.52
eigval :      481.05   501.96   509.77   525.96   539.47   587.88
eigval :      588.97   589.21   589.82   590.18   600.32   606.87
eigval :      617.54   647.81   663.16   663.31   663.53   669.96
eigval :      673.91   682.48   692.15   706.11   708.30   724.08
eigval :      730.14   735.69   736.30   737.46   755.01   757.51
eigval :      770.02   784.96   804.31   876.88   878.07   880.55
eigval :      881.39   882.43   883.02   884.94   897.76   905.05
eigval :      906.48   906.63   907.39   908.04   909.23   918.91
eigval :      925.82   926.70   927.70   930.70   931.44   931.70
eigval :      932.53   933.24   934.51   934.84   935.17   935.57
eigval :      937.00   975.78   977.19   977.41   995.13  1007.98
eigval :     1018.59  1076.19  1081.68  1084.84  1085.81  1085.93
eigval :     1088.01  1108.14  1120.96  1121.76  1123.21  1127.11
eigval :     1144.39  1145.68  1149.99  1151.71  1152.38  1156.95
eigval :     1176.13  1176.72  1182.48  1182.86  1182.94  1183.05
eigval :     1184.71  1204.49  1205.85  1207.31  1207.85  1209.74
eigval :     1214.00  1230.33  1242.84  1246.44  1263.76  1282.88
eigval :     1286.03  1288.00  1288.20  1288.44  1291.24  1311.24
eigval :     1311.47  1312.21  1312.77  1321.06  1327.55  1366.37
eigval :     1390.69  1419.62  1420.50  1421.86  1428.21  1431.40
eigval :     1435.89  1462.38  1465.12  1465.91  1466.17  1472.80
eigval :     1475.47  1481.15  1561.91  1576.83  1577.17  1577.71
eigval :     1585.72  1589.10  1593.53  1593.84  1594.01  1594.87
eigval :     1595.73  1600.03  1604.35  1605.03  3060.10  3060.99
eigval :     3061.22  3063.00  3064.28  3064.40  3064.71  3065.73
eigval :     3070.34  3070.74  3070.80  3070.81  3072.91  3073.58
eigval :     3073.83  3076.05  3076.49  3076.51  3077.39  3079.02
eigval :     3080.02  3080.57  3081.31  3085.06  3085.19  3085.80
eigval :     3085.90  3086.97  3087.99  3092.49  3092.70  3093.93

   temp. (K)  partition function   enthalpy   heat capacity  entropy
                                   cal/mol     cal/K/mol   cal/K/mol   J/K/mol
 298.15  VIB  0.439E+19            21808.927    131.836    138.011
         ROT  0.601E+08              888.752      2.981     38.575
         INT  0.264E+27            22697.680    134.817    176.587
         TR   0.134E+29             1481.254      4.968     44.921
         TOT                       24178.9338   139.7851   221.5076   926.7878

       T/K    H(0)-H(T)+PV         H(T)/Eh          T*S/Eh         G(T)/Eh
   ------------------------------------------------------------------------
    298.15    0.385316E-01    0.632830E+00    0.105245E+00    0.527584E+00
   ------------------------------------------------------------------------

         :::::::::::::::::::::::::::::::::::::::::::::::::::::
         ::                  THERMODYNAMIC                  ::
         :::::::::::::::::::::::::::::::::::::::::::::::::::::
         :: total free energy        -109.530221960311 Eh   ::
         ::.................................................::
         :: total energy             -110.057806153842 Eh   ::
         :: zero point energy           0.594298014638 Eh   ::
         :: G(RRHO) w/o ZPVE           -0.066713821107 Eh   ::
         :: G(RRHO) contrib.            0.527584193531 Eh   ::
         :::::::::::::::::::::::::::::::::::::::::::::::::::::

           -------------------------------------------------
          | TOTAL ENERGY             -110.057806153842 Eh   |
          | TOTAL ENTHALPY           -109.424976555624 Eh   |
          | TOTAL FREE ENERGY        -109.530221960311 Eh   |
          | GRADIENT NORM               0.000105576309 Eh/α |
          | HOMO-LUMO GAP               3.437985695427 eV   |
           -------------------------------------------------

 * finished run on 2025/09/11 at 04:42:44.311
