   * xtb version 6.7.1 (edcfbbe) compiled by 'albert@albert-system' on 2024-07-22

   ID    Z sym.   atoms
    1    6 C      1-9, 11-44
    2   14 Si     10
    3    1 H      45-76

          program call               : xtb data2507/gas/TPSi-F/TPSi-F_gas_T1_crest.xyz --gfn 2 --spinpol --tblite --uhf 2 --ohess vtight --parallel 40 --molden --ceasefiles --namespace data2507/gas/TPSi-F/TPSi-F_gas_T1_finalOpt
 * total energy  :  -109.9507977 Eh     change       -0.3415995E-07 Eh
 * total energy  :  -109.9508129 Eh     change       -0.1517828E-04 Eh
 * total energy  :  -109.9508168 Eh     change       -0.3933191E-05 Eh
 * total energy  :  -109.9508182 Eh     change       -0.1384873E-05 Eh
 * total energy  :  -109.9508208 Eh     change       -0.2593009E-05 Eh
 * total energy  :  -109.9508233 Eh     change       -0.2504788E-05 Eh
 * total energy  :  -109.9508259 Eh     change       -0.2635180E-05 Eh
 * total energy  :  -109.9508280 Eh     change       -0.2041308E-05 Eh
 * total energy  :  -109.9508289 Eh     change       -0.9414992E-06 Eh
 * total energy  :  -109.9508302 Eh     change       -0.1231343E-05 Eh
 * total energy  :  -109.9508340 Eh     change       -0.5113385E-06 Eh
 * total energy  :  -109.9508344 Eh     change       -0.4176312E-06 Eh
 * total energy  :  -109.9508350 Eh     change       -0.5951334E-06 Eh
 * total energy  :  -109.9508356 Eh     change       -0.6352322E-06 Eh
 * total energy  :  -109.9508361 Eh     change       -0.4495826E-06 Eh
 * total energy  :  -109.9508363 Eh     change       -0.1997359E-06 Eh
 * total energy  :  -109.9508363 Eh     change        0.5036597E-08 Eh
 * total energy  :  -109.9508365 Eh     change       -0.1949980E-06 Eh
 * total energy  :  -109.9508365 Eh     change       -0.8972592E-08 Eh
   *** GEOMETRY OPTIMIZATION CONVERGED AFTER 22 ITERATIONS ***

 final structure:
================
76
 xtb: 6.7.1 (edcfbbe)
C            4.80256793874106       -4.05581465191352       -1.03305447298741
C            3.65400990555374       -3.96239647243402       -0.26489176881800
C            3.11322537600002       -2.72480398381871        0.03056707882083
C            3.71007437851743       -1.56205881069816       -0.44423008558776
C            3.15943094008496       -0.20354410778786       -0.05452554402556
C            1.64584862361905       -0.17349521612903       -0.00550021095566
C            0.97853722848365        0.58368311003730        0.94844566575052
C           -0.40246282189563        0.64554664271718        0.95546738169667
C           -1.15934243520014       -0.02797224945238        0.00352172155161
Si          -3.05118182147746        0.01921961994639        0.01078444828913
C           -3.73766455813431       -1.61229881482511        0.68964267913882
C           -2.97068192783130       -2.77245778601881        0.71666591482297
C           -3.49139847749459       -3.96170108708355        1.19454505239363
C           -4.79590021039183       -4.01141430805258        1.65583228825046
C           -5.57284292536262       -2.86498035966683        1.64063451746487
C           -5.04548314722090       -1.67927865745849        1.16278332061936
C           -3.64913342915106        0.28221090849636       -1.76819517995902
C           -2.95197644142788        1.13023641908701       -2.62466760711547
C           -3.38705662136229        1.35387655120003       -3.91811880798295
C           -4.53308918232557        0.72871768952962       -4.38072444259344
C           -5.23624138564313       -0.12121421298400       -3.54378710314960
C           -4.79590452315653       -0.33994125950790       -2.25069123570516
C           -3.66833217538957        1.42967943264039        1.11445574929550
C           -4.11401809561485        2.63258167849967        0.57684829566998
C           -4.55442684077413        3.65919365929775        1.39300452699713
C           -4.55535964149177        3.49921516291994        2.76835086652072
C           -4.11616836598188        2.30748325154458        3.32092355324544
C           -3.67865950716420        1.28498126739817        2.49923617830230
C           -0.47986156390438       -0.76213112137670       -0.96583238925515
C            0.89833396572362       -0.83630179434942       -0.97377201364095
C            3.60959615709854        0.91755660260874       -0.97065986134662
C            3.30700512209690        1.13717424775248       -2.27618495631670
C            3.84356023519832        2.26552569127711       -2.92822859674148
C            4.68104771771834        3.16968917208899       -2.23290933922236
C            4.99420317488261        2.98652096002493       -0.92279980258677
C            4.46086579416022        1.84423043385906       -0.23359975662109
C            4.59481537300740        1.41022959788803        1.06555536416689
C            5.32341723598113        1.94169964247025        2.18385326563516
C            5.26906557597496        1.28822783807227        3.37485561632786
C            4.51591796483986        0.10145862632177        3.53545893765617
C            3.79561878907441       -0.44366193261491        2.45354849088088
C            3.82181489319566        0.18839536201718        1.25199324402777
C            4.86994435175698       -1.66325611261995       -1.20140486078491
C            5.40896430062344       -2.90231445871057       -1.49890077115434
H            5.22437923925332       -5.02292665758640       -1.26381397980441
H            3.17721356789857       -4.85816894365679        0.10615779686540
H            2.21399703390861       -2.65973438301260        0.62635218642128
H            1.54544784647690        1.12447410303702        1.69318779754073
H           -0.90396751672484        1.23441175637164        1.71030663028721
H           -1.95030495023393       -2.73933770993879        0.36197334150205
H           -2.87958032695386       -4.85262669426854        1.20800402220404
H           -5.20525600150640       -4.93931920903007        2.02855466927145
H           -6.59067003194879       -2.89685147745717        2.00291277281153
H           -5.65383102900338       -0.78525116494811        1.16058866910525
H           -2.05372091484564        1.61645786911955       -2.26958623994654
H           -2.83269982675990        2.01624082594274       -4.56793935080627
H           -4.87551851263457        0.90178522648613       -5.39083629543816
H           -6.12928527611426       -0.61414159051243       -3.90100584321524
H           -5.34657637776124       -1.00799166568327       -1.60363142264378
H           -4.11914016525414        2.76152491080760       -0.49635750696547
H           -4.89890354941848        4.58612367258923        0.95681135311622
H           -4.89924580541728        4.29940485178190        3.40784881077176
H           -4.11685494539042        2.17641400729454        4.39382386135371
H           -3.34321666131492        0.35381624607218        2.93478635795670
H           -1.04485178555068       -1.27990283432837       -1.72874361242380
H            1.40133855609549       -1.42312953435768       -1.72954297195641
H            2.67040977051564        0.45824108639244       -2.82436803066756
H            3.61725492464199        2.44116383312058       -3.96765440051476
H            5.07165093597780        4.02281348936290       -2.76925787830064
H            5.62677230536650        3.67849930435334       -0.38883810671914
H            5.90222085324463        2.84347588712443        2.05782076330805
H            5.81063359598003        1.67128344211143        4.22809311138141
H            4.49472977566654       -0.39017930236166        4.49477044849006
H            3.22809163185722       -1.35186516218351        2.59466341000326
H            5.35277942188163       -0.76604816658060       -1.56151588137510
H            6.30852807463190       -2.96588926215689       -2.09373619398873

 projected vibrational frequencies (cm⁻¹)
eigval :       -0.00    -0.00    -0.00     0.00     0.00     0.00
eigval :        6.93    12.62    19.92    23.71    24.91    27.24
eigval :       30.61    35.66    38.50    41.99    43.80    46.82
eigval :       52.21    61.41    77.17    79.18   108.68   138.23
eigval :      145.08   148.81   160.16   180.17   186.46   198.83
eigval :      210.90   218.41   222.29   228.73   231.32   249.57
eigval :      281.91   302.25   312.05   319.31   332.02   358.26
eigval :      358.33   360.17   365.62   375.59   381.20   410.88
eigval :      411.85   415.88   421.53   433.02   452.45   457.71
eigval :      476.13   481.28   487.39   506.48   508.50   550.71
eigval :      579.47   588.08   589.18   589.84   590.50   597.66
eigval :      606.06   625.18   654.68   660.72   663.14   663.26
eigval :      663.47   671.84   676.70   684.22   685.59   698.73
eigval :      706.18   708.00   721.11   733.89   735.60   736.23
eigval :      739.05   754.75   784.65   792.30   801.74   868.07
eigval :      873.92   878.50   880.55   882.01   882.25   882.94
eigval :      884.86   900.79   901.18   902.03   904.92   905.79
eigval :      906.42   907.96   914.40   923.74   930.28   931.36
eigval :      932.35   932.72   933.52   934.38   934.62   935.03
eigval :      935.49   937.71   975.69   977.15   977.55   989.63
eigval :     1009.89  1014.00  1027.15  1078.86  1083.29  1085.03
eigval :     1085.81  1085.99  1087.06  1121.04  1122.08  1123.30
eigval :     1124.16  1126.65  1139.16  1145.45  1149.48  1151.15
eigval :     1152.45  1155.73  1158.60  1164.31  1181.92  1182.79
eigval :     1182.86  1182.98  1199.20  1202.01  1207.12  1207.71
eigval :     1210.06  1213.96  1231.65  1238.92  1253.85  1273.70
eigval :     1280.51  1283.91  1288.03  1288.68  1291.18  1293.71
eigval :     1311.56  1311.70  1312.52  1313.41  1322.14  1325.29
eigval :     1347.14  1347.68  1367.77  1390.60  1419.67  1420.36
eigval :     1421.84  1434.13  1465.33  1465.53  1465.87  1472.14
eigval :     1477.69  1491.97  1500.89  1524.16  1559.17  1565.81
eigval :     1576.71  1576.94  1577.57  1585.99  1589.80  1593.63
eigval :     1593.89  1595.00  1597.64  1637.79  3059.93  3060.24
eigval :     3061.12  3061.39  3064.41  3064.66  3064.83  3066.69
eigval :     3070.28  3070.50  3070.72  3071.09  3071.88  3072.23
eigval :     3072.52  3074.54  3076.42  3076.60  3076.91  3077.93
eigval :     3078.98  3080.20  3081.12  3084.15  3085.27  3085.31
eigval :     3086.34  3089.96  3091.97  3093.96  3102.28  3103.79

   temp. (K)  partition function   enthalpy   heat capacity  entropy
                                   cal/mol     cal/K/mol   cal/K/mol   J/K/mol
 298.15  VIB  0.143E+20            22305.869    134.253    141.274
         ROT  0.604E+08              888.752      2.981     38.586
         INT  0.864E+27            23194.621    137.234    179.861
         TR   0.134E+29             1481.254      4.968     44.921
         TOT                       24675.8748   142.2017   224.7818   940.4869

       T/K    H(0)-H(T)+PV         H(T)/Eh          T*S/Eh         G(T)/Eh
   ------------------------------------------------------------------------
    298.15    0.393235E-01    0.628602E+00    0.106801E+00    0.521801E+00
   ------------------------------------------------------------------------

         :::::::::::::::::::::::::::::::::::::::::::::::::::::
         ::                  THERMODYNAMIC                  ::
         :::::::::::::::::::::::::::::::::::::::::::::::::::::
         :: total free energy        -109.429035394352 Eh   ::
         ::.................................................::
         :: total energy             -109.950836463081 Eh   ::
         :: zero point energy           0.589278630267 Eh   ::
         :: G(RRHO) w/o ZPVE           -0.067477561538 Eh   ::
         :: G(RRHO) contrib.            0.521801068729 Eh   ::
         :::::::::::::::::::::::::::::::::::::::::::::::::::::

           -------------------------------------------------
          | TOTAL ENERGY             -109.950836463081 Eh   |
          | TOTAL ENTHALPY           -109.322234323212 Eh   |
          | TOTAL FREE ENERGY        -109.429035394352 Eh   |
          | GRADIENT NORM               0.000077300179 Eh/α |
           -------------------------------------------------

 * finished run on 2025/09/11 at 04:48:46.973
