   * xtb version 6.7.1 (edcfbbe) compiled by 'albert@albert-system' on 2024-07-22

   ID    Z sym.   atoms
    1    6 C      1-9, 11-44
    2   14 Si     10
    3    1 H      45-76

          program call               : xtb data2507/gas/TPSi-F/TPSi-F_gas_S0_finalOpt.xtbopt.xyz --gfn 2 --spinpol --tblite --uhf 2 --ohess vtight --parallel 40 --molden --ceasefiles --namespace data2507/gas/TPSi-F/TPSi-F_gas_T1_preOpt
 * total energy  :  -109.9361122 Eh     change       -0.7403216E-08 Eh
 * total energy  :  -109.9483919 Eh     change       -0.1227969E-01 Eh
 * total energy  :  -109.9507032 Eh     change       -0.2311298E-02 Eh
 * total energy  :  -109.9507731 Eh     change       -0.6987223E-04 Eh
 * total energy  :  -109.9507900 Eh     change       -0.1690780E-04 Eh
 * total energy  :  -109.9507925 Eh     change       -0.2528948E-05 Eh
 * total energy  :  -109.9507942 Eh     change       -0.1677772E-05 Eh
 * total energy  :  -109.9507955 Eh     change       -0.1275200E-05 Eh
 * total energy  :  -109.9507970 Eh     change       -0.1469556E-05 Eh
 * total energy  :  -109.9507987 Eh     change       -0.1757632E-05 Eh
 * total energy  :  -109.9507998 Eh     change       -0.1123827E-05 Eh
 * total energy  :  -109.9508004 Eh     change       -0.5887817E-06 Eh
 * total energy  :  -109.9508008 Eh     change       -0.3509979E-06 Eh
 * total energy  :  -109.9508011 Eh     change       -0.2834509E-06 Eh
 * total energy  :  -109.9508013 Eh     change       -0.2509496E-06 Eh
 * total energy  :  -109.9508016 Eh     change       -0.2560116E-06 Eh
 * total energy  :  -109.9508016 Eh     change       -0.5871124E-07 Eh
   *** GEOMETRY OPTIMIZATION CONVERGED AFTER 17 ITERATIONS ***

 final structure:
================
76
 xtb: 6.7.1 (edcfbbe)
C            4.79463588195775        4.14133730068572       -0.90562613737464
C            3.65144891100967        4.01512019862789       -0.13418600116966
C            3.11184519555862        2.76609997999763        0.11132143853800
C            3.70446295046026        1.62475543788202       -0.41758381815965
C            3.15673789981459        0.25064336585962       -0.08357574711712
C            1.64349382816422        0.21034314094788       -0.03075017407549
C            0.88412809383367        0.92844540629250       -0.94814196927957
C           -0.49436638174382        0.84443867367559       -0.93603698215161
C           -1.16049265633785        0.03807243831775       -0.01843067779968
Si          -3.05014453784813       -0.05499754109654        0.03598265586514
C           -3.77913124461128        0.58471119184411       -1.59188377163308
C           -3.87795868498634        1.95323028250338       -1.82888235812573
C           -4.39497782941838        2.43707378465240       -3.01665361169173
C           -4.82642265738924        1.55512595900134       -3.99359467502181
C           -4.73826947501911        0.19093989982461       -3.77348272235073
C           -4.21869784985931       -0.28625717435786       -2.58339632557515
C           -3.70558526018670        1.02484754648302        1.44942526752245
C           -5.02966019091864        1.45540952851602        1.44971730512205
C           -5.53021872298072        2.22607985360695        2.48312470481505
C           -4.70962988962707        2.58347996089038        3.54004607954660
C           -3.38891633871297        2.16803646979825        3.55367621184264
C           -2.89509277622813        1.39620033549461        2.51725496594903
C           -3.56515840658076       -1.85820910711914        0.30594359211923
C           -4.66480138802967       -2.18958680320479        1.09082141602054
C           -5.04935718057000       -3.50754045511262        1.26058637830353
C           -4.33641903302590       -4.52212938889518        0.64442787607096
C           -3.23666057910493       -4.21071312634416       -0.13767234831469
C           -2.85744413899370       -2.89111454181693       -0.30291869967182
C           -0.39061210572511       -0.69359692723006        0.88114645835883
C            0.98871650997777       -0.61606419590617        0.87420890090753
C            3.82299464492849       -0.19571032836994        1.20356783575339
C            3.79842925755482        0.38410296895621        2.43116149760524
C            4.52104302119126       -0.20637966446299        3.48746648543975
C            5.27481650344186       -1.38454698658037        3.27473250718764
C            5.32693884178602       -1.98665050648856        2.05687326315671
C            4.59518598576681       -1.40883344148774        0.96389040990311
C            4.45640407621097       -1.78862536657882       -0.35163088792427
C            4.98497023236109       -2.90246271079513       -1.08928035493897
C            4.66806305196081       -3.02978738068472       -2.40509821431117
C            3.83121194343529       -2.09527902626552       -3.06008764401593
C            3.29811304599295       -0.99457600368459       -2.35987322885594
C            3.60460168307855       -0.83084226282228       -1.04705931536320
C            4.85928424203290        1.75831725688641       -1.17756612351527
C            5.39704939838158        3.00883207080023       -1.42507190089322
H            5.21533250790430        5.11739724424203       -1.09751158831666
H            3.17750114960753        4.89407980228373        0.27835828786631
H            2.21622386471787        2.67628994365481        0.70923892403160
H            1.37713480862101        1.56681451618315       -1.66776749965296
H           -1.06794478753466        1.41269956764269       -1.65454421890774
H           -3.54913432209322        2.64576523869693       -1.06625279425997
H           -4.46375576957925        3.50300486181572       -3.18211467104892
H           -5.23219869437456        1.93028170494195       -4.92210634440676
H           -5.07655362186986       -0.50140432827774       -4.53135284881892
H           -4.15602015906115       -1.35221156494649       -2.41538988118736
H           -5.67252509395787        1.18581058215483        0.62302833587835
H           -6.56116496288820        2.55025071695700        2.46553437215661
H           -5.09790810755571        3.18585210139885        4.34868482166827
H           -2.74344210971954        2.44715993031806        4.37445891828111
H           -1.86222229326825        1.07806186155034        2.53152592395944
H           -5.22258897338877       -1.40241975021723        1.57812413284396
H           -5.90635445647708       -3.74542675999068        1.87465625197001
H           -4.63515431931576       -5.55229050606484        0.77503408507774
H           -2.67443143258307       -4.99874484754563       -0.61847130190416
H           -1.99477193400288       -2.65365595420261       -0.91011701385428
H           -0.88249208624168       -1.34175012331662        1.59321716021462
H            1.56498088457436       -1.19939349706457        1.57871917422882
H            3.23114754430264        1.28542379365851        2.61189776791352
H            4.50164491029154        0.24384958133105        4.46693059152369
H            5.81876318448334       -1.80304468639040        4.10961288139668
H            5.90639899220921       -2.88156663043375        1.89117117865477
H            5.61660577461063       -3.61808155067633       -0.58623866245381
H            5.05497396570487       -3.86088417279342       -2.97751199271438
H            3.60233714206270       -2.22658940404253       -4.10546404926588
H            2.66103872509205       -0.29171494978336       -2.87658286409390
H            5.33924455489349        0.87743110173285       -1.57939743613855
H            6.29248816103596        3.09765546377282       -2.02290586496183

 projected vibrational frequencies (cm⁻¹)
eigval :       -0.00    -0.00    -0.00     0.00     0.00     0.00
eigval :        6.35    13.07    19.83    23.94    25.51    27.71
eigval :       31.48    33.85    38.22    42.88    44.28    45.74
eigval :       50.37    62.75    77.23    82.29   108.67   135.27
eigval :      143.83   149.54   161.13   180.71   185.14   199.02
eigval :      211.08   217.95   223.99   227.93   231.66   249.24
eigval :      282.73   301.34   312.79   319.33   332.15   358.31
eigval :      358.37   360.29   364.96   375.70   381.25   410.84
eigval :      412.02   415.55   421.60   433.42   452.58   456.94
eigval :      476.57   481.04   487.46   506.36   508.31   550.68
eigval :      579.62   587.95   589.20   589.89   590.49   597.55
eigval :      606.18   625.25   654.70   660.76   663.21   663.31
eigval :      663.50   672.05   676.78   684.22   685.57   698.70
eigval :      706.08   708.27   721.15   733.88   735.46   736.19
eigval :      739.20   754.52   784.56   792.25   801.18   868.20
eigval :      874.02   878.21   879.93   881.85   882.00   883.07
eigval :      884.58   900.82   901.06   901.89   904.95   905.82
eigval :      906.51   907.91   914.45   924.52   930.01   931.29
eigval :      932.14   932.63   933.88   934.34   934.41   934.99
eigval :      935.37   936.41   975.71   977.20   977.43   989.96
eigval :     1010.31  1014.44  1027.31  1079.36  1083.22  1085.35
eigval :     1086.04  1086.11  1087.56  1121.16  1122.13  1123.46
eigval :     1124.44  1126.71  1139.38  1145.56  1149.35  1151.36
eigval :     1152.23  1155.63  1158.70  1164.34  1181.79  1182.69
eigval :     1183.01  1183.08  1199.12  1202.00  1207.09  1207.77
eigval :     1210.11  1214.07  1231.84  1238.93  1254.07  1273.36
eigval :     1280.66  1283.78  1288.09  1288.62  1291.16  1293.75
eigval :     1311.49  1311.68  1312.45  1313.13  1322.00  1325.08
eigval :     1346.57  1346.97  1367.53  1391.39  1419.70  1420.25
eigval :     1421.89  1434.56  1465.30  1465.40  1465.84  1471.93
eigval :     1477.85  1491.80  1500.71  1523.99  1558.83  1565.73
eigval :     1576.69  1577.08  1577.60  1586.12  1589.47  1593.59
eigval :     1593.77  1594.96  1597.78  1637.67  3060.48  3060.56
eigval :     3061.57  3061.81  3064.39  3064.64  3064.76  3065.19
eigval :     3070.27  3070.64  3071.03  3071.05  3071.47  3071.96
eigval :     3072.31  3074.90  3076.48  3076.57  3076.92  3077.14
eigval :     3078.73  3079.56  3080.61  3083.99  3085.30  3085.43
eigval :     3086.41  3089.60  3091.97  3093.79  3102.53  3104.09

   temp. (K)  partition function   enthalpy   heat capacity  entropy
                                   cal/mol     cal/K/mol   cal/K/mol   J/K/mol
 298.15  VIB  0.146E+20            22305.060    134.246    141.272
         ROT  0.604E+08              888.752      2.981     38.585
         INT  0.884E+27            23193.812    137.227    179.857
         TR   0.134E+29             1481.254      4.968     44.921
         TOT                       24675.0662   142.1949   224.7782   940.4719

       T/K    H(0)-H(T)+PV         H(T)/Eh          T*S/Eh         G(T)/Eh
   ------------------------------------------------------------------------
    298.15    0.393222E-01    0.628594E+00    0.106799E+00    0.521795E+00
   ------------------------------------------------------------------------

         :::::::::::::::::::::::::::::::::::::::::::::::::::::
         ::                  THERMODYNAMIC                  ::
         :::::::::::::::::::::::::::::::::::::::::::::::::::::
         :: total free energy        -109.429006619974 Eh   ::
         ::.................................................::
         :: total energy             -109.950801658345 Eh   ::
         :: zero point energy           0.589272183306 Eh   ::
         :: G(RRHO) w/o ZPVE           -0.067477144936 Eh   ::
         :: G(RRHO) contrib.            0.521795038371 Eh   ::
         :::::::::::::::::::::::::::::::::::::::::::::::::::::

           -------------------------------------------------
          | TOTAL ENERGY             -109.950801658345 Eh   |
          | TOTAL ENTHALPY           -109.322207254146 Eh   |
          | TOTAL FREE ENERGY        -109.429006619974 Eh   |
          | GRADIENT NORM               0.000052384980 Eh/α |
           -------------------------------------------------

 * finished run on 2025/09/11 at 04:42:50.803
