   * xtb version 6.7.1 (edcfbbe) compiled by 'albert@albert-system' on 2024-07-22

   ID    Z sym.   atoms
    1    6 C      1-9, 11-44
    2   14 Si     10
    3    1 H      45-76

          program call               : xtb data2507/gas/TPSi-F/TPSi-F.xyz --gfn 2 --ohess vtight --parallel 40 --molden --ceasefiles --namespace data2507/gas/TPSi-F/TPSi-F_gas_S0_preOpt
          :  Hamiltonian                  GFN2-xTB          :
 * total energy  :  -110.0407965 Eh     change       -0.1040911E-07 Eh
 * total energy  :  -110.0538385 Eh     change       -0.1304203E-01 Eh
 * total energy  :  -110.0567719 Eh     change       -0.2933394E-02 Eh
 * total energy  :  -110.0573922 Eh     change       -0.6203174E-03 Eh
 * total energy  :  -110.0576384 Eh     change       -0.2461133E-03 Eh
 * total energy  :  -110.0577023 Eh     change       -0.6394247E-04 Eh
 * total energy  :  -110.0577247 Eh     change       -0.2242245E-04 Eh
 * total energy  :  -110.0577351 Eh     change       -0.1037643E-04 Eh
 * total energy  :  -110.0577494 Eh     change       -0.1425281E-04 Eh
 * total energy  :  -110.0577609 Eh     change       -0.1155274E-04 Eh
 * total energy  :  -110.0578004 Eh     change       -0.3824489E-06 Eh
 * total energy  :  -110.0578008 Eh     change       -0.3808084E-06 Eh
 * total energy  :  -110.0578010 Eh     change       -0.2402352E-06 Eh
 * total energy  :  -110.0578012 Eh     change       -0.1383261E-06 Eh
 * total energy  :  -110.0578013 Eh     change       -0.1330372E-06 Eh
 * total energy  :  -110.0578014 Eh     change       -0.1187989E-06 Eh
 * total energy  :  -110.0578015 Eh     change       -0.1241151E-06 Eh
 * total energy  :  -110.0578016 Eh     change       -0.1120025E-06 Eh
 * total energy  :  -110.0578017 Eh     change       -0.3765244E-07 Eh
   *** GEOMETRY OPTIMIZATION CONVERGED AFTER 40 ITERATIONS ***

 final structure:
================
76
 xtb: 6.7.1 (edcfbbe)
C            4.85006249856268        4.01187741905288       -0.83448060227002
C            3.71539531251735        3.88972125134926       -0.05076873413033
C            3.16942546342723        2.64306161353558        0.19383039452347
C            3.74630645867862        1.50006035490175       -0.34828292945753
C            3.17906101518876        0.13293587521446       -0.01923814566490
C            1.66541786768096        0.12839907222480        0.03637551364575
C            0.93109055316177        0.85447839372388       -0.89542615172507
C           -0.44880732210053        0.81107126924256       -0.88804055567551
C           -1.14309913708704        0.03972214280202        0.04009427298861
Si          -3.03487521117312       -0.01789482045396        0.01086812963585
C           -3.67975588209997        1.73249597450902       -0.32495546023828
C           -4.78669719861728        1.95832985950441       -1.13640267695135
C           -5.26197353782897        3.23899057782500       -1.35551811060296
C           -4.63459109920627        4.32187047181185       -0.76315503242573
C           -3.52877481271299        4.11615063302438        0.04496157984895
C           -3.05883810040226        2.83342460978327        0.25919481679124
C           -3.69790636561389       -0.63794768802029        1.67400286672020
C           -3.69603950263217       -1.99912222572865        1.96694771752096
C           -4.16512621172233       -2.46931827169828        3.17983842780207
C           -4.64890153337752       -1.58105365176597        4.12603990171819
C           -4.66114069411676       -0.22425482356066        3.85012069767773
C           -4.18909419795974        0.23943505663974        2.63519028944269
C           -3.62317346862885       -1.20089089244850       -1.34721976079740
C           -4.92304136857947       -1.69950417829247       -1.32992068196754
C           -5.37566502541935       -2.54886229712918       -2.32287979411076
C           -4.52991793080740       -2.91864164640947       -3.35549871896238
C           -3.23218397109320       -2.43693710068058       -3.38510585875481
C           -2.78639122884339       -1.58619964933620       -2.38944181954917
C           -0.39969274119820       -0.68954159051641        0.96075343073441
C            0.98255147349811       -0.65227690670587        0.95942083407987
C            3.83906018206575       -0.33687886181763        1.26288086898741
C            3.82132118010280        0.25577043334567        2.50725728165397
C            4.52412295362465       -0.34679375181930        3.54185603618497
C            5.23542786117821       -1.51803829397918        3.33030521240751
C            5.26167483267625       -2.11515888689734        2.08050954028422
C            4.56067933960317       -1.51899161827430        1.04531908364910
C            4.40648984296322       -1.90597038073466       -0.34742667787437
C            4.90271774125880       -2.99333325999116       -1.04731936874592
C            4.59013550912152       -3.11656975426382       -2.39135366696179
C            3.79449549105193       -2.17338064170214       -3.02364575426579
C            3.29437647013122       -1.08169174383513       -2.32671660948010
C            3.60815556244751       -0.94979759645343       -0.99098980694830
C            4.89175747753701        1.62930951281054       -1.12242034889766
C            5.43684743240128        2.87754443945338       -1.36710257611558
H            5.27564000635121        4.98576730382960       -1.02656081660518
H            3.25306262873662        4.76933107089209        0.37336337487780
H            2.28033261502901        2.55769862111728        0.80207964306657
H            1.44434920682683        1.46815010688670       -1.62243265372555
H           -1.00255887664279        1.39125702176519       -1.61325704818880
H           -5.27802425396037        1.11770533348186       -1.60555310911145
H           -6.12322740335232        3.39434410081034       -1.98972377668899
H           -5.00433110412814        5.32297167284904       -0.93227097267731
H           -3.03324049815342        4.95810701048978        0.50747838494368
H           -2.19182329088109        2.67816253373837        0.88645323162382
H           -3.32633057983077       -2.69720575158824        1.22848703606703
H           -4.15573399814082       -3.52975636287069        3.38882225163200
H           -5.01747294190988       -1.94573727872169        5.07402958419285
H           -5.04084329617704        0.47273200359584        4.58375007323266
H           -4.20560388929779        1.29930608592757        2.42354531258363
H           -5.58462972856124       -1.42053169603941       -0.52126089301225
H           -6.38852126609230       -2.92498712234657       -2.29257691362826
H           -4.88071229191984       -3.58252460809783       -4.13250015063666
H           -2.56668639806479       -2.72638167942228       -4.18603275304782
H           -1.77064158251182       -1.21756857415809       -2.41515842576097
H           -0.91269521899880       -1.29503189063885        1.69438667512800
H            1.53494315062627       -1.23299689466352        1.68423157400429
H            3.27066103586710        1.16873452553594        2.67863342858768
H            4.51715848930482        0.10343814583205        4.52369541126774
H            5.77621157148857       -1.96844056140352        4.14996133340584
H            5.81833175174312       -3.02606436091382        1.91741321230220
H            5.52029855473058       -3.73054553920064       -0.55608588827898
H            4.96888094587031       -3.95757751282185       -2.95386622734195
H            3.56076518329798       -2.28875629623678       -4.07191858411792
H            2.67534505902317       -0.35105010038940       -2.82574349027299
H            5.36071885310748        0.74945144321803       -1.53831390589899
H            6.32549158895979        2.96240282130382       -1.97553597164793

          :  Hamiltonian                  GFN2-xTB          :
         :: gradient norm              0.000023722223 Eh/a0 ::
         :: HOMO-LUMO gap              3.434296310640 eV    ::
         :: SCC energy              -112.206426640021 Eh    ::
         :: -> dispersion             -0.107763752517 Eh    ::
         :: repulsion energy           2.148624954396 Eh    ::

    * Orbital Energies and Occupations

         #    Occupation            Energy/Eh            Energy/eV
      -------------------------------------------------------------
         1        2.0000           -0.7515623             -20.4511
       ...           ...                  ...                  ...
        92        2.0000           -0.4026219             -10.9559
        93        2.0000           -0.4006769             -10.9030
        94        2.0000           -0.4003739             -10.8947
        95        2.0000           -0.4000651             -10.8863
        96        2.0000           -0.3994369             -10.8692
        97        2.0000           -0.3992294             -10.8636
        98        2.0000           -0.3954374             -10.7604
        99        2.0000           -0.3939825             -10.7208
       100        2.0000           -0.3892147             -10.5911
       101        2.0000           -0.3828977             -10.4192
       102        2.0000           -0.3815799             -10.3833
       103        2.0000           -0.3803847             -10.3508
       104        2.0000           -0.3772084             -10.2644 (HOMO)
       105                         -0.2510003              -6.8301 (LUMO)
       106                         -0.2391080              -6.5065
       107                         -0.2347766              -6.3886
       108                         -0.2334162              -6.3516
       109                         -0.2272699              -6.1843
       110                         -0.2268282              -6.1723
       111                         -0.2216529              -6.0315
       112                         -0.2198226              -5.9817
       113                         -0.2185086              -5.9459
       114                         -0.2179363              -5.9303
       115                         -0.2173683              -5.9149
       ...                                ...                  ...
       213                          0.7308968              19.8887
      -------------------------------------------------------------
                  HL-Gap            0.1262081 Eh            3.4343 eV

     #   Z          covCN         q      C6AA      α(0)
     1   6 C        2.920    -0.033    28.811     8.802
     2   6 C        2.920    -0.030    28.758     8.794
     3   6 C        2.924    -0.034    28.838     8.806
     4   6 C        2.980     0.018    27.612     8.620
     5   6 C        3.947     0.007    20.391     6.417
     6   6 C        2.981     0.018    27.605     8.618
     7   6 C        2.921    -0.035    28.864     8.810
     8   6 C        2.938    -0.032    28.804     8.802
     9   6 C        2.863    -0.097    30.446     9.044
    10  14 Si       3.615     0.485    98.263    19.027
    11   6 C        2.863    -0.094    30.346     9.030
    12   6 C        2.936    -0.032    28.792     8.800
    13   6 C        2.918    -0.029    28.732     8.790
    14   6 C        2.921    -0.028    28.708     8.786
    15   6 C        2.917    -0.030    28.742     8.791
    16   6 C        2.938    -0.030    28.761     8.795
    17   6 C        2.863    -0.094    30.347     9.030
    18   6 C        2.938    -0.030    28.761     8.795
    19   6 C        2.917    -0.030    28.739     8.791
    20   6 C        2.921    -0.028    28.706     8.786
    21   6 C        2.918    -0.029    28.733     8.790
    22   6 C        2.936    -0.032    28.791     8.800
    23   6 C        2.863    -0.094    30.347     9.030
    24   6 C        2.938    -0.031    28.762     8.796
    25   6 C        2.917    -0.030    28.743     8.792
    26   6 C        2.921    -0.028    28.707     8.786
    27   6 C        2.918    -0.029    28.730     8.790
    28   6 C        2.936    -0.032    28.787     8.799
    29   6 C        2.935    -0.033    28.819     8.804
    30   6 C        2.921    -0.036    28.899     8.816
    31   6 C        3.058     0.004    27.867     8.657
    32   6 C        2.914    -0.033    28.829     8.805
    33   6 C        2.922    -0.032    28.807     8.802
    34   6 C        2.921    -0.033    28.818     8.803
    35   6 C        2.915    -0.034    28.848     8.807
    36   6 C        3.035     0.001    27.972     8.675
    37   6 C        3.035     0.001    27.970     8.675
    38   6 C        2.915    -0.034    28.849     8.808
    39   6 C        2.921    -0.033    28.820     8.804
    40   6 C        2.922    -0.032    28.810     8.802
    41   6 C        2.914    -0.033    28.834     8.805
    42   6 C        3.058     0.004    27.866     8.657
    43   6 C        2.924    -0.036    28.884     8.813
    44   6 C        2.920    -0.030    28.748     8.793
    45   1 H        0.926     0.029     2.594     2.519
    46   1 H        0.926     0.030     2.593     2.518
    47   1 H        0.926     0.030     2.589     2.516
    48   1 H        0.926     0.028     2.610     2.527
    49   1 H        0.925     0.020     2.733     2.585
    50   1 H        0.926     0.021     2.717     2.578
    51   1 H        0.926     0.027     2.629     2.535
    52   1 H        0.926     0.028     2.616     2.529
    53   1 H        0.926     0.027     2.632     2.537
    54   1 H        0.925     0.019     2.752     2.594
    55   1 H        0.925     0.019     2.747     2.592
    56   1 H        0.926     0.027     2.630     2.536
    57   1 H        0.926     0.028     2.615     2.529
    58   1 H        0.926     0.027     2.628     2.535
    59   1 H        0.926     0.021     2.721     2.580
    60   1 H        0.925     0.019     2.749     2.593
    61   1 H        0.926     0.027     2.631     2.536
    62   1 H        0.926     0.028     2.616     2.529
    63   1 H        0.926     0.027     2.629     2.536
    64   1 H        0.926     0.021     2.722     2.580
    65   1 H        0.926     0.022     2.709     2.574
    66   1 H        0.926     0.028     2.613     2.528
    67   1 H        0.926     0.030     2.593     2.518
    68   1 H        0.926     0.030     2.586     2.515
    69   1 H        0.926     0.030     2.589     2.516
    70   1 H        0.926     0.031     2.575     2.509
    71   1 H        0.926     0.031     2.575     2.509
    72   1 H        0.926     0.030     2.589     2.516
    73   1 H        0.926     0.030     2.587     2.515
    74   1 H        0.926     0.030     2.591     2.517
    75   1 H        0.926     0.030     2.588     2.516
    76   1 H        0.926     0.030     2.592     2.518

molecular dipole:
                 x           y           z       tot (Debye)
 q only:       -0.013       0.036      -0.006
   full:       -0.007       0.016      -0.005       0.046

 projected vibrational frequencies (cm⁻¹)
eigval :       -0.00    -0.00     0.00     0.00     0.00     0.00
eigval :        6.47    12.99    20.22    24.10    26.85    30.25
eigval :       33.82    36.20    40.40    43.28    45.36    45.89
eigval :       53.34    62.46    76.76    88.03   133.96   138.99
eigval :      149.01   150.30   161.43   181.76   187.93   202.31
eigval :      211.00   218.00   226.15   230.88   247.39   276.22
eigval :      286.21   308.79   315.33   334.11   358.45   358.49
eigval :      360.42   365.71   376.50   388.17   413.55   414.78
eigval :      419.26   423.82   443.67   453.18   462.66   477.17
eigval :      481.24   501.91   509.56   525.38   539.44   587.89
eigval :      588.97   589.21   589.83   590.21   600.31   607.05
eigval :      617.48   647.41   663.15   663.34   663.52   669.89
eigval :      673.59   683.11   692.13   706.30   708.33   724.17
eigval :      729.79   735.67   736.10   737.40   755.02   757.47
eigval :      769.87   784.85   804.05   876.80   877.92   880.41
eigval :      881.44   882.52   882.92   885.01   897.68   904.78
eigval :      906.46   906.59   907.39   908.03   909.09   918.81
eigval :      924.21   926.58   927.64   930.72   931.30   931.61
eigval :      932.58   933.13   934.33   934.80   935.08   935.59
eigval :      937.54   975.78   977.23   977.40   995.09  1008.00
eigval :     1018.59  1076.27  1081.79  1084.86  1085.80  1085.92
eigval :     1087.99  1108.15  1120.81  1121.87  1123.15  1127.04
eigval :     1144.39  1145.73  1149.87  1151.83  1152.31  1157.08
eigval :     1176.13  1176.74  1182.44  1182.89  1182.94  1183.08
eigval :     1184.72  1204.36  1205.84  1207.24  1207.90  1209.79
eigval :     1214.03  1230.28  1242.52  1246.53  1263.77  1282.94
eigval :     1286.06  1287.77  1288.27  1288.54  1291.22  1311.32
eigval :     1311.58  1312.29  1312.87  1321.14  1327.63  1366.40
eigval :     1390.67  1419.72  1420.40  1421.94  1428.26  1431.45
eigval :     1435.92  1462.43  1465.20  1465.93  1466.21  1472.84
eigval :     1475.39  1481.03  1562.17  1576.90  1577.12  1577.77
eigval :     1585.80  1589.12  1593.56  1593.87  1594.04  1594.92
eigval :     1595.78  1600.04  1604.40  1605.07  3059.90  3060.24
eigval :     3061.11  3061.59  3064.25  3064.59  3064.98  3068.79
eigval :     3070.38  3070.62  3070.70  3070.73  3072.92  3073.61
eigval :     3073.73  3075.17  3076.11  3076.53  3076.55  3079.03
eigval :     3080.08  3081.24  3082.25  3085.11  3085.22  3085.83
eigval :     3085.94  3086.96  3088.04  3092.51  3092.72  3093.97

   temp. (K)  partition function   enthalpy   heat capacity  entropy
                                   cal/mol     cal/K/mol   cal/K/mol   J/K/mol
 298.15  VIB  0.466E+19            21812.484    131.848    138.149
         ROT  0.601E+08              888.752      2.981     38.575
         INT  0.280E+27            22701.236    134.829    176.724
         TR   0.134E+29             1481.254      4.968     44.921
         TOT                       24182.4902   139.7968   221.6452   927.3636

       T/K    H(0)-H(T)+PV         H(T)/Eh          T*S/Eh         G(T)/Eh
   ------------------------------------------------------------------------
    298.15    0.385373E-01    0.632825E+00    0.105311E+00    0.527514E+00
   ------------------------------------------------------------------------

         :::::::::::::::::::::::::::::::::::::::::::::::::::::
         ::                  THERMODYNAMIC                  ::
         :::::::::::::::::::::::::::::::::::::::::::::::::::::
         :: total free energy        -109.530287452841 Eh   ::
         ::.................................................::
         :: total energy             -110.057801685605 Eh   ::
         :: zero point energy           0.594287774860 Eh   ::
         :: G(RRHO) w/o ZPVE           -0.066773542097 Eh   ::
         :: G(RRHO) contrib.            0.527514232763 Eh   ::
         :::::::::::::::::::::::::::::::::::::::::::::::::::::

           -------------------------------------------------
          | TOTAL ENERGY             -110.057801685605 Eh   |
          | TOTAL ENTHALPY           -109.424976659540 Eh   |
          | TOTAL FREE ENERGY        -109.530287452841 Eh   |
          | GRADIENT NORM               0.000023638825 Eh/α |
          | HOMO-LUMO GAP               3.434296493652 eV   |
           -------------------------------------------------

 * finished run on 2025/09/11 at 04:36:52.527
