   * xtb version 6.7.1 (edcfbbe) compiled by 'albert@albert-system' on 2024-07-22

   ID    Z sym.   atoms
    1    6 C      1-6, 8-25
    2    5 B      7
    3    1 H      26-52

          program call               : xtb data2507/gas/N-B/N-B.xyz --gfn 2 --ohess vtight --parallel 40 --molden --ceasefiles --namespace data2507/gas/N-B/N-B_gas_S0_preOpt
          :  Hamiltonian                  GFN2-xTB          :
 * total energy  :   -66.3629984 Eh     change       -0.1240537E-08 Eh
 * total energy  :   -66.3813720 Eh     change       -0.1837361E-01 Eh
 * total energy  :   -66.3843426 Eh     change       -0.2970584E-02 Eh
 * total energy  :   -66.3846035 Eh     change       -0.2608398E-03 Eh
 * total energy  :   -66.3848094 Eh     change       -0.2059040E-03 Eh
 * total energy  :   -66.3849345 Eh     change       -0.1251425E-03 Eh
 * total energy  :   -66.3850863 Eh     change       -0.1518006E-03 Eh
 * total energy  :   -66.3852598 Eh     change       -0.1734544E-03 Eh
 * total energy  :   -66.3854307 Eh     change       -0.1709903E-03 Eh
 * total energy  :   -66.3856100 Eh     change       -0.1792503E-03 Eh
 * total energy  :   -66.3864547 Eh     change       -0.3368738E-05 Eh
 * total energy  :   -66.3864554 Eh     change       -0.7709682E-06 Eh
 * total energy  :   -66.3864559 Eh     change       -0.4067025E-06 Eh
 * total energy  :   -66.3864563 Eh     change       -0.4324083E-06 Eh
 * total energy  :   -66.3864565 Eh     change       -0.2562884E-06 Eh
 * total energy  :   -66.3864565 Eh     change        0.1972916E-07 Eh
 * total energy  :   -66.3864568 Eh     change       -0.2969410E-06 Eh
 * total energy  :   -66.3864571 Eh     change       -0.3189517E-06 Eh
 * total energy  :   -66.3864572 Eh     change       -0.9771263E-07 Eh
   *** GEOMETRY OPTIMIZATION CONVERGED AFTER 44 ITERATIONS ***

 final structure:
================
52
 xtb: 6.7.1 (edcfbbe)
C           -5.28908764051994       -2.07885010404256        0.54448623836196
C           -3.93729340051163       -1.44559023090789        0.41178128992169
C           -2.90450925596409       -1.76251378483782        1.28030180558292
C           -1.64550043824643       -1.19695922368584        1.14832182442792
C           -0.57750891764777       -1.56868245487765        2.13541859793398
C           -1.38581717049767       -0.26675297756018        0.12839291491235
B            0.01302204082756        0.43199353853975       -0.00142187337351
C            0.06322788467173        1.99502381450665       -0.01138969568588
C           -0.90009793722681        2.75826812196318        0.65636716343732
C           -0.85227283261976        4.13937706447875        0.65810079043384
C            0.15367292571675        4.79936968639205       -0.02889623785954
C            1.11468817934865        4.06740685538956       -0.70724839343677
C            1.07342007613785        2.68622314639771       -0.68828691517645
C            1.36471614971987       -0.35555050460596       -0.12238340611714
C            2.43091617958114       -0.09254212014726        0.75214069220829
C            2.29933762514237        0.89753369564192        1.87601820467127
C            3.63831124368838       -0.75865766405437        0.61096123269992
C            3.83908690208602       -1.69106302858406       -0.39540981725009
C            5.14821058964163       -2.40911732292616       -0.52401897941172
C            2.78639599827207       -1.95541087749077       -1.25798803196115
C            1.56455694982661       -1.31287212868039       -1.13088621614170
C            0.47360583704905       -1.63144334544264       -2.11145065674310
C           -2.43289536430015        0.05095874005631       -0.75130433961639
C           -2.23919375705555        1.01854636070845       -1.88572068780118
C           -3.67863680062409       -0.53862171038509       -0.60492583055925
H           -5.41389930734682       -2.85610550245462       -0.21031772948476
H           -6.07592389179121       -1.34146388655203        0.39605948862135
H           -5.41208266236138       -2.53340230495816        1.52462841820339
H           -3.08375187118286       -2.47059724187258        2.07821349622701
H           -0.90995274921223       -2.38558572132785        2.77197115061677
H            0.33265377609293       -1.87027856376206        1.62225800837433
H           -0.33326077894321       -0.71856623810420        2.77163793193994
H           -1.69202430837371        2.25014967421008        1.18975120189316
H           -1.60373661450692        4.70633878487817        1.18969025996991
H            0.18856753036772        5.87944758101909       -0.03558884643129
H            1.90096698534196        4.57812079503375       -1.24546293693081
H            1.83075605957542        2.12153142162992       -1.21495317831761
H            2.85959382669840        0.55891398156486        2.74604228463502
H            1.26200495593135        1.04569575013788        2.16050599970487
H            2.70474184170789        1.86297054860517        1.57181087991696
H            4.44285811971752       -0.54390189211026        1.30159386298768
H            5.97889876221138       -1.73746664773490       -0.31611559711758
H            5.19543372846188       -3.23075739013760        0.19181419815573
H            5.26929914480351       -2.82237898813903       -1.52261390850166
H            2.92059796430963       -2.68273442743335       -2.04739777306185
H           -0.45352459848744       -1.86506783899779       -1.59331234273207
H            0.75204451352949       -2.47865336497958       -2.73417455017799
H            0.28403783561528       -0.77818208514286       -2.76199297492492
H           -2.57712196027910        2.01217812588042       -1.59000058407379
H           -2.82438239818497        0.71003489636567       -2.75046242202123
H           -1.19529620566936        1.09349736679563       -2.17492746596412
H           -4.46785376452126       -0.28381037825575       -1.29961654496109

          :  Hamiltonian                  GFN2-xTB          :
         :: gradient norm              0.000051701300 Eh/a0 ::
         :: HOMO-LUMO gap              2.667169682951 eV    ::
         :: SCC energy               -67.594068073440 Eh    ::
         :: -> dispersion             -0.061205624279 Eh    ::
         :: repulsion energy           1.207610833415 Eh    ::

    * Orbital Energies and Occupations

         #    Occupation            Energy/Eh            Energy/eV
      -------------------------------------------------------------
         1        2.0000           -0.6356355             -17.2965
       ...           ...                  ...                  ...
        51        2.0000           -0.4300223             -11.7015
        52        2.0000           -0.4164397             -11.3319
        53        2.0000           -0.4140021             -11.2656
        54        2.0000           -0.4112672             -11.1912
        55        2.0000           -0.4095149             -11.1435
        56        2.0000           -0.3985434             -10.8449
        57        2.0000           -0.3974781             -10.8159
        58        2.0000           -0.3944040             -10.7323
        59        2.0000           -0.3874532             -10.5431
        60        2.0000           -0.3775235             -10.2729
        61        2.0000           -0.3764087             -10.2426
        62        2.0000           -0.3695590             -10.0562
        63        2.0000           -0.3638119              -9.8998 (HOMO)
        64                         -0.2657952              -7.2327 (LUMO)
        65                         -0.2152530              -5.8573
        66                         -0.2100464              -5.7157
        67                         -0.2075584              -5.6480
        68                         -0.2033400              -5.5332
        69                         -0.2023807              -5.5071
        70                         -0.1629942              -4.4353
        71                         -0.0840328              -2.2866
        72                         -0.0835426              -2.2733
        73                         -0.0625735              -1.7027
        74                          0.0940929               2.5604
       ...                                ...                  ...
       127                          0.6710288              18.2596
      -------------------------------------------------------------
                  HL-Gap            0.0980167 Eh            2.6672 eV

     #   Z          covCN         q      C6AA      α(0)
     1   6 C        3.758    -0.107    22.588     6.776
     2   6 C        2.963     0.012    27.734     8.638
     3   6 C        2.928    -0.056    29.397     8.892
     4   6 C        2.967     0.011    27.766     8.643
     5   6 C        3.759    -0.112    22.683     6.790
     6   6 C        2.890    -0.085    30.115     8.997
     7   5 B        2.710     0.248    17.741     7.063
     8   6 C        2.885    -0.060    29.489     8.903
     9   6 C        2.924    -0.027    28.684     8.783
    10   6 C        2.916    -0.031    28.783     8.798
    11   6 C        2.921    -0.027    28.678     8.782
    12   6 C        2.916    -0.031    28.782     8.797
    13   6 C        2.924    -0.027    28.684     8.783
    14   6 C        2.890    -0.085    30.115     8.997
    15   6 C        2.967     0.012    27.754     8.641
    16   6 C        3.759    -0.109    22.636     6.783
    17   6 C        2.930    -0.057    29.417     8.895
    18   6 C        2.963     0.012    27.734     8.638
    19   6 C        3.758    -0.107    22.588     6.776
    20   6 C        2.929    -0.056    29.399     8.892
    21   6 C        2.967     0.011    27.766     8.643
    22   6 C        3.759    -0.112    22.684     6.790
    23   6 C        2.967     0.012    27.755     8.641
    24   6 C        3.759    -0.109    22.636     6.783
    25   6 C        2.930    -0.057    29.419     8.895
    26   1 H        0.924     0.043     2.411     2.428
    27   1 H        0.925     0.040     2.445     2.445
    28   1 H        0.925     0.038     2.478     2.462
    29   1 H        0.925     0.022     2.703     2.571
    30   1 H        0.925     0.037     2.494     2.470
    31   1 H        0.925     0.049     2.331     2.388
    32   1 H        0.925     0.037     2.485     2.465
    33   1 H        0.925     0.025     2.655     2.548
    34   1 H        0.926     0.023     2.683     2.561
    35   1 H        0.926     0.025     2.662     2.551
    36   1 H        0.926     0.023     2.683     2.561
    37   1 H        0.925     0.025     2.654     2.548
    38   1 H        0.925     0.039     2.465     2.455
    39   1 H        0.925     0.037     2.489     2.467
    40   1 H        0.924     0.043     2.412     2.429
    41   1 H        0.925     0.023     2.693     2.566
    42   1 H        0.925     0.040     2.450     2.448
    43   1 H        0.924     0.043     2.409     2.427
    44   1 H        0.925     0.038     2.474     2.460
    45   1 H        0.925     0.022     2.702     2.570
    46   1 H        0.925     0.049     2.331     2.388
    47   1 H        0.925     0.037     2.494     2.470
    48   1 H        0.925     0.037     2.485     2.465
    49   1 H        0.924     0.043     2.412     2.429
    50   1 H        0.925     0.039     2.466     2.456
    51   1 H        0.925     0.037     2.489     2.467
    52   1 H        0.925     0.023     2.692     2.566

molecular dipole:
                 x           y           z       tot (Debye)
 q only:       -0.002      -0.048      -0.000
   full:        0.001       0.054      -0.002       0.137

 projected vibrational frequencies (cm⁻¹)
eigval :       -0.00    -0.00    -0.00     0.00     0.00     0.00
eigval :       -7.42     6.00    27.98    31.55    31.84    35.16
eigval :       43.57    52.53    77.75    81.90   103.61   119.11
eigval :      125.91   127.71   158.82   163.22   182.07   189.01
eigval :      202.48   202.57   207.52   235.16   275.45   277.44
eigval :      309.07   322.96   323.81   343.01   363.11   415.75
eigval :      462.62   479.90   489.14   496.22   496.28   506.86
eigval :      506.95   513.41   537.28   553.26   586.98   598.11
eigval :      599.02   601.43   628.89   671.89   681.22   681.41
eigval :      741.77   839.01   840.52   877.94   882.97   886.24
eigval :      890.07   890.11   910.34   935.02   935.59   964.22
eigval :      964.71   976.33   976.67   988.29  1020.40  1022.10
eigval :     1027.90  1028.19  1030.84  1031.09  1032.66  1033.84
eigval :     1040.03  1041.25  1045.81  1045.92  1085.19  1104.99
eigval :     1120.13  1165.44  1183.13  1193.65  1206.62  1220.13
eigval :     1224.14  1235.89  1236.79  1285.55  1308.53  1308.62
eigval :     1309.77  1333.52  1334.57  1403.10  1403.18  1404.13
eigval :     1404.21  1405.25  1408.03  1419.41  1428.41  1429.83
eigval :     1453.81  1455.71  1463.75  1479.03  1481.00  1482.83
eigval :     1483.85  1484.26  1485.56  1485.86  1487.13  1487.75
eigval :     1489.82  1496.25  1498.45  1561.43  1562.18  1568.69
eigval :     1592.60  1601.15  1603.37  2992.91  2994.48  2996.59
eigval :     2997.01  3003.72  3004.20  3020.37  3020.77  3024.00
eigval :     3026.81  3033.93  3034.19  3037.36  3038.60  3038.81
eigval :     3039.26  3054.64  3054.98  3059.74  3059.88  3060.05
eigval :     3060.40  3061.52  3061.97  3068.42  3073.34  3083.18

   temp. (K)  partition function   enthalpy   heat capacity  entropy
                                   cal/mol     cal/K/mol   cal/K/mol   J/K/mol
 298.15  VIB  0.338E+14            15141.847     86.312     98.471
         ROT  0.104E+08              888.752      2.981     35.095
         INT  0.352E+21            16030.600     89.293    133.566
         TR   0.570E+28             1481.254      4.968     43.223
         TOT                       17511.8534    94.2613   176.7891   739.6854

       T/K    H(0)-H(T)+PV         H(T)/Eh          T*S/Eh         G(T)/Eh
   ------------------------------------------------------------------------
    298.15    0.279069E-01    0.459169E+00    0.839982E-01    0.375171E+00
   ------------------------------------------------------------------------

         :::::::::::::::::::::::::::::::::::::::::::::::::::::
         ::                  THERMODYNAMIC                  ::
         :::::::::::::::::::::::::::::::::::::::::::::::::::::
         :: total free energy         -66.011286693987 Eh   ::
         ::.................................................::
         :: total energy              -66.386457240026 Eh   ::
         :: zero point energy           0.431261815114 Eh   ::
         :: G(RRHO) w/o ZPVE           -0.056091269074 Eh   ::
         :: G(RRHO) contrib.            0.375170546039 Eh   ::
         :::::::::::::::::::::::::::::::::::::::::::::::::::::

           -------------------------------------------------
          | TOTAL ENERGY              -66.386457240026 Eh   |
          | TOTAL ENTHALPY            -65.927288510129 Eh   |
          | TOTAL FREE ENERGY         -66.011286693987 Eh   |
          | GRADIENT NORM               0.000051673473 Eh/α |
          | HOMO-LUMO GAP               2.667171006196 eV   |
           -------------------------------------------------

 * finished run on 2025/08/22 at 08:30:54.889
