   * xtb version 6.7.1 (edcfbbe) compiled by 'albert@albert-system' on 2024-07-22

   ID    Z sym.   atoms
    1    6 C      1-6, 8-25
    2    5 B      7
    3    1 H      26-52

          program call               : xtb data2507/gas/N-B/N-B_gas_T1_crest.xyz --gfn 2 --spinpol --tblite --uhf 2 --ohess vtight --parallel 40 --molden --ceasefiles --namespace data2507/gas/N-B/N-B_gas_T1_finalOpt
 * total energy  :   -66.2899259 Eh     change        0.3492802E-07 Eh
 * total energy  :   -66.2899450 Eh     change       -0.1909924E-04 Eh
 * total energy  :   -66.2899516 Eh     change       -0.6535054E-05 Eh
 * total energy  :   -66.2899535 Eh     change       -0.1938480E-05 Eh
 * total energy  :   -66.2899562 Eh     change       -0.2682477E-05 Eh
 * total energy  :   -66.2899580 Eh     change       -0.1792784E-05 Eh
 * total energy  :   -66.2899584 Eh     change       -0.4689451E-06 Eh
 * total energy  :   -66.2899586 Eh     change       -0.1197249E-06 Eh
 * total energy  :   -66.2899586 Eh     change       -0.2080719E-07 Eh
 * total energy  :   -66.2899587 Eh     change       -0.9889268E-07 Eh
   *** GEOMETRY OPTIMIZATION CONVERGED AFTER 10 ITERATIONS ***

 final structure:
================
52
 xtb: 6.7.1 (edcfbbe)
C           -4.96589167050999       -2.72781278390757        0.24900950767213
C           -3.71862476692191       -1.90300288725606        0.21655422728482
C           -2.63613921405612       -2.18775844894316        1.04246411837692
C           -1.49747198732676       -1.40770238366150        1.03868302813903
C           -0.38559641778733       -1.72728675855008        1.98740176227094
C           -1.36776231236966       -0.32336297129198        0.12268361045154
B           -0.00137378647278        0.39497271228952        0.00096321055729
C            0.00193381246933        1.95815552724883        0.00280011558983
C           -0.99208088093962        2.68302553294162        0.67970322327933
C           -0.98764816125030        4.06210088624755        0.67600922684690
C            0.00138346261068        4.76495111228232        0.00233435609430
C            0.99114606781989        4.06221259925406       -0.67049978016950
C            0.99682634120032        2.68315796533868       -0.67238717657704
C            1.36804416022573       -0.32023848125064       -0.12310321620804
C            2.48843108454982       -0.01725033251247        0.69503815994600
C            2.44936865357402        1.11928448735797        1.66932715764161
C            3.61473157598716       -0.81153037369541        0.64921272227954
C            3.71849096551569       -1.89806142161409       -0.22020188681586
C            4.95821910473466       -2.73425789205675       -0.25282247043898
C            2.63854323493679       -2.17642722340549       -1.05274433645908
C            1.50011244562869       -1.39668178065089       -1.04736178402288
C            0.39130992044945       -1.70825420591774       -2.00239683516409
C           -2.49154912813808       -0.01591629379337       -0.69079978077191
C           -2.45431091986857        1.12605707030266       -1.65885047567838
C           -3.61759065296760       -0.80921937281266       -0.64571977219451
H           -5.84591060656018       -2.09163587603571        0.33597377782215
H           -4.95220141351572       -3.42540602285021        1.08295958439685
H           -5.06232544569617       -3.29853339601538       -0.67587933261535
H           -2.70095873498342       -3.02387347801047        1.72618464219126
H           -0.70647256413238       -2.45364877486512        2.73086865777669
H            0.46867462869333       -2.13901331892414        1.44826160009408
H           -0.04326152610900       -0.82567878701575        2.49253601588790
H           -1.75884656990465        2.15460905245173        1.22774964916077
H           -1.76073569609996        4.59650168317004        1.21163700601693
H            0.00116758044740        5.84483105059432        0.00213106316494
H            1.76396507734022        4.59676544287173       -1.20634721231528
H            1.76457557600247        2.15492075163586       -1.21923935010939
H            1.45561634345476        1.22022553550954        2.10158384531765
H            2.67895612303065        2.06181433804308        1.17189773943714
H            3.17603071350958        0.96750876873824        2.46487748755507
H            4.44606672305432       -0.58772186541990        1.30438359652892
H            4.92495601718784       -3.48041681107302        0.54336777423820
H            5.05113409265652       -3.25801317032568       -1.20160628171715
H            5.84424327586758       -2.12178592981216       -0.09676855505912
H            2.70685226877872       -3.00718027104334       -1.74262075223997
H            0.71369240014210       -2.43051474735802       -2.74917909242275
H            0.05268493260276       -0.80283717884837       -2.50321814477462
H           -0.46568332005224       -2.12168215755417       -1.46896187927937
H           -2.67720840895475        2.06661289745009       -1.15472308050702
H           -3.18648979783790        0.98144150834795       -2.45065630556791
H           -1.46295760042509        1.22585179509243       -2.09679469152393
H           -4.45187105529014       -0.58179353029655       -1.29592113028661

 projected vibrational frequencies (cm⁻¹)
eigval :       -0.00    -0.00    -0.00     0.00     0.00     0.00
eigval :       17.97    23.67    28.65    34.74    35.36    39.60
eigval :       60.45    81.39    85.12   119.57   137.71   156.24
eigval :      159.39   168.08   175.05   176.42   188.07   195.74
eigval :      200.60   202.24   205.23   211.36   271.00   275.33
eigval :      291.52   318.72   320.53   342.11   378.03   392.72
eigval :      459.21   467.73   473.40   473.86   485.37   494.23
eigval :      497.70   509.32   511.74   534.75   542.56   574.55
eigval :      592.85   594.32   623.72   628.08   656.88   664.79
eigval :      735.12   836.79   838.53   843.53   852.54   860.69
eigval :      862.67   871.24   871.84   912.39   921.44   958.53
eigval :      959.95   961.30   971.55   972.67   973.76  1008.31
eigval :     1014.38  1019.15  1019.38  1021.76  1024.53  1027.77
eigval :     1028.55  1034.05  1041.20  1042.65  1063.15  1077.24
eigval :     1094.38  1113.33  1134.71  1174.50  1177.24  1190.76
eigval :     1203.44  1226.42  1227.22  1259.73  1276.74  1305.84
eigval :     1316.84  1320.78  1321.05  1387.47  1398.71  1399.51
eigval :     1402.23  1403.44  1403.94  1404.05  1408.34  1412.52
eigval :     1415.11  1419.02  1433.04  1451.71  1452.27  1466.90
eigval :     1469.87  1470.87  1472.13  1477.66  1478.36  1480.44
eigval :     1482.85  1484.94  1488.83  1490.28  1491.91  1510.15
eigval :     1539.01  1554.55  1566.13  2978.42  2985.24  2985.98
eigval :     2986.52  2993.11  2993.40  3012.92  3018.29  3018.62
eigval :     3022.23  3022.86  3025.51  3027.20  3027.46  3031.21
eigval :     3031.45  3034.11  3039.41  3054.22  3055.04  3055.51
eigval :     3056.04  3059.26  3060.19  3073.21  3074.15  3084.16

   temp. (K)  partition function   enthalpy   heat capacity  entropy
                                   cal/mol     cal/K/mol   cal/K/mol   J/K/mol
 298.15  VIB  0.517E+12            15015.811     88.917     93.907
         ROT  0.103E+08              888.752      2.981     35.072
         INT  0.533E+19            15904.563     91.898    128.979
         TR   0.570E+28             1481.254      4.968     43.223
         TOT                       17385.8174    96.8657   172.2026   720.4958

       T/K    H(0)-H(T)+PV         H(T)/Eh          T*S/Eh         G(T)/Eh
   ------------------------------------------------------------------------
    298.15    0.277061E-01    0.455020E+00    0.818190E-01    0.373201E+00
   ------------------------------------------------------------------------

         :::::::::::::::::::::::::::::::::::::::::::::::::::::
         ::                  THERMODYNAMIC                  ::
         :::::::::::::::::::::::::::::::::::::::::::::::::::::
         :: total free energy         -65.916757441295 Eh   ::
         ::.................................................::
         :: total energy              -66.289958700988 Eh   ::
         :: zero point energy           0.427314226783 Eh   ::
         :: G(RRHO) w/o ZPVE           -0.054112967089 Eh   ::
         :: G(RRHO) contrib.            0.373201259693 Eh   ::
         :::::::::::::::::::::::::::::::::::::::::::::::::::::

           -------------------------------------------------
          | TOTAL ENERGY              -66.289958700988 Eh   |
          | TOTAL ENTHALPY            -65.834938410660 Eh   |
          | TOTAL FREE ENERGY         -65.916757441295 Eh   |
          | GRADIENT NORM               0.000087465168 Eh/α |
           -------------------------------------------------

 * finished run on 2025/08/22 at 08:34:54.880
