   * xtb version 6.7.1 (edcfbbe) compiled by 'albert@albert-system' on 2024-07-22

   ID    Z sym.   atoms
    1    6 C      1-6, 8-25
    2    5 B      7
    3    1 H      26-52

          program call               : xtb data2507/gas/N-B/N-B_gas_S0_finalOpt.xtbopt.xyz --gfn 2 --spinpol --tblite --uhf 2 --ohess vtight --parallel 40 --molden --ceasefiles --namespace data2507/gas/N-B/N-B_gas_T1_preOpt
 * total energy  :   -66.2840267 Eh     change       -0.2776147E-08 Eh
 * total energy  :   -66.2865601 Eh     change       -0.2533445E-02 Eh
 * total energy  :   -66.2874526 Eh     change       -0.8924198E-03 Eh
 * total energy  :   -66.2877317 Eh     change       -0.2791332E-03 Eh
 * total energy  :   -66.2881637 Eh     change       -0.4319998E-03 Eh
 * total energy  :   -66.2884339 Eh     change       -0.2702007E-03 Eh
 * total energy  :   -66.2886410 Eh     change       -0.2071266E-03 Eh
 * total energy  :   -66.2888341 Eh     change       -0.1930904E-03 Eh
 * total energy  :   -66.2889668 Eh     change       -0.1326964E-03 Eh
 * total energy  :   -66.2890817 Eh     change       -0.1149364E-03 Eh
 * total energy  :   -66.2899615 Eh     change       -0.4055052E-06 Eh
 * total energy  :   -66.2899617 Eh     change       -0.1875212E-06 Eh
 * total energy  :   -66.2899619 Eh     change       -0.2443961E-06 Eh
 * total energy  :   -66.2899621 Eh     change       -0.1745517E-06 Eh
 * total energy  :   -66.2899623 Eh     change       -0.1819158E-06 Eh
 * total energy  :   -66.2899622 Eh     change        0.7317618E-07 Eh
 * total energy  :   -66.2899623 Eh     change       -0.1150439E-06 Eh
 * total energy  :   -66.2899624 Eh     change       -0.1322900E-06 Eh
 * total energy  :   -66.2899625 Eh     change       -0.8004204E-07 Eh
   *** GEOMETRY OPTIMIZATION CONVERGED AFTER 121 ITERATIONS ***

 final structure:
================
52
 xtb: 6.7.1 (edcfbbe)
C           -4.96633352012251       -2.72285072045729       -0.02334388057093
C           -3.72440226905873       -1.89022228100593        0.01416535889792
C           -2.68964387987783       -2.17273975369906        0.90043184476306
C           -1.55270221695145       -1.39269085814491        0.95863652313086
C           -0.49556962161553       -1.70971835540814        1.96881244183097
C           -1.37233818402385       -0.31117488348927        0.04819280758698
B            0.00052837224587        0.40497859081808       -0.00025778655945
C            0.00176536417504        1.96814360621890        0.00138789842731
C           -1.02740072127422        2.69344549220224        0.62296191285622
C           -1.02112312760738        4.07252405886648        0.62137419238579
C            0.00403529371141        4.77495197634655        0.00349756172921
C            1.02807538362505        4.07180153130503       -0.61538678109423
C            1.03214823111128        2.69271666001668       -0.61900074461090
C            1.37236911222905       -0.31317372793700       -0.04995737270349
C            2.44905339960685       -0.01002762993063        0.82552797562849
C            2.35997537757619        1.12860955442625        1.79407677073820
C            3.57519806942065       -0.80530967283484        0.84041735030318
C            3.72296333462177       -1.89451213926616       -0.01968846986458
C            4.96282114910126       -2.73038206596985        0.01556427532513
C            2.68775229370866       -2.17392272303758       -0.90666920499018
C            1.55149531439293       -1.39289080566545       -0.96277010234424
C            0.49381205974112       -1.70646671965732       -1.97351450388927
C           -2.44878881570860       -0.00475037660182       -0.82654374235412
C           -2.35843712490147        1.13599152517342       -1.79247606256384
C           -3.57555399165161       -0.79886159823233       -0.84335450266099
H           -5.84973762232171       -2.09614563201182       -0.13352582836655
H           -5.06514449228434       -3.31855259030910        0.88115657894807
H           -4.93394378275802       -3.40256962370818       -0.87677878320799
H           -2.79318616588815       -3.00706854264109        1.58155937550473
H           -0.85702447404670       -2.43537320404592        2.69412985599549
H            0.38792694668622       -2.12133932632253        1.47896717022339
H           -0.18295505331993       -0.80709817214228        2.49112474466832
H           -1.82364602597476        2.16543498240008        1.12761043656646
H           -1.82163526909842        4.60728189938379        1.11468740464506
H            0.00493116379641        5.85483292246275        0.00435831191454
H            1.82957615946950        4.60596581021678       -1.10773431176870
H            1.82761307525835        2.16421997120191       -1.12437952134415
H            3.04607568137303        0.97947057074074        2.62533068155893
H            1.34571530943884        1.22925493926322        2.17582742865191
H            2.61299033529161        2.07039576831221        1.30671883375166
H            4.37156238870064       -0.58103768348162        1.53753078664798
H            5.08079105430286       -3.29351151665972       -0.90747461945758
H            5.84444985460205       -2.11039377002513        0.16843799528541
H            4.90946964436194       -3.44123825286343        0.84233146038679
H            2.79069566164312       -3.00668079124356       -1.58979537995805
H            0.85441325563460       -2.43077470937920       -2.70059337073027
H            0.18209487806126       -0.80228115641468       -2.49364737638422
H           -0.39001317386096       -2.11832577859754       -1.48449150224560
H           -2.61051455470462        2.07692122792192       -1.30298488329725
H           -3.04462297416167        0.98947126873543       -2.62413039130437
H           -1.34404624174803        1.23643773896976       -2.17391868510316
H           -4.37182754649437       -0.57236457438881       -1.53986270885370

 projected vibrational frequencies (cm⁻¹)
eigval :       -0.00    -0.00    -0.00    -0.00     0.00     0.00
eigval :       19.06    24.23    30.46    31.01    35.54    39.61
eigval :       60.92    81.58    87.18   119.63   137.49   156.23
eigval :      159.19   168.19   174.87   176.22   187.65   195.80
eigval :      200.92   204.52   205.91   211.40   271.06   275.65
eigval :      291.81   318.55   320.50   341.98   378.06   392.98
eigval :      458.86   467.02   473.36   474.32   485.39   494.24
eigval :      497.70   509.42   511.98   534.57   542.91   574.54
eigval :      592.03   594.23   623.85   627.99   657.73   664.86
eigval :      735.22   836.55   838.43   843.38   852.71   860.81
eigval :      862.45   871.19   871.36   912.13   921.33   958.64
eigval :      959.71   961.24   972.12   972.43   973.70  1008.55
eigval :     1014.29  1019.10  1019.37  1022.05  1024.17  1027.82
eigval :     1028.57  1033.96  1041.21  1042.48  1063.11  1077.18
eigval :     1094.38  1113.19  1134.95  1174.39  1177.36  1190.50
eigval :     1203.30  1226.38  1227.19  1259.16  1276.52  1305.82
eigval :     1316.84  1320.88  1321.07  1387.40  1399.04  1399.15
eigval :     1401.70  1403.20  1403.66  1404.04  1408.28  1412.21
eigval :     1415.08  1418.78  1433.22  1451.71  1452.22  1466.28
eigval :     1469.25  1470.26  1471.60  1477.70  1478.69  1479.80
eigval :     1482.34  1484.53  1488.47  1490.03  1490.89  1510.07
eigval :     1538.95  1554.60  1566.39  2978.83  2980.34  2986.03
eigval :     2986.46  2992.91  2993.27  3018.25  3018.56  3020.45
eigval :     3021.92  3022.35  3022.76  3026.89  3027.16  3030.70
eigval :     3030.93  3034.93  3036.52  3054.17  3055.02  3055.19
eigval :     3055.90  3059.66  3060.16  3073.28  3074.30  3084.16

   temp. (K)  partition function   enthalpy   heat capacity  entropy
                                   cal/mol     cal/K/mol   cal/K/mol   J/K/mol
 298.15  VIB  0.482E+12            15010.220     88.908     93.778
         ROT  0.515E+07              888.752      2.981     33.694
         INT  0.248E+19            15898.973     91.889    127.472
         TR   0.570E+28             1481.254      4.968     43.223
         TOT                       17380.2266    96.8567   170.6954   714.1897

       T/K    H(0)-H(T)+PV         H(T)/Eh          T*S/Eh         G(T)/Eh
   ------------------------------------------------------------------------
    298.15    0.276972E-01    0.454993E+00    0.811029E-01    0.373890E+00
   ------------------------------------------------------------------------

         :::::::::::::::::::::::::::::::::::::::::::::::::::::
         ::                  THERMODYNAMIC                  ::
         :::::::::::::::::::::::::::::::::::::::::::::::::::::
         :: total free energy         -65.916072753449 Eh   ::
         ::.................................................::
         :: total energy              -66.289962525107 Eh   ::
         :: zero point energy           0.427295525858 Eh   ::
         :: G(RRHO) w/o ZPVE           -0.053405754199 Eh   ::
         :: G(RRHO) contrib.            0.373889771659 Eh   ::
         :::::::::::::::::::::::::::::::::::::::::::::::::::::

           -------------------------------------------------
          | TOTAL ENERGY              -66.289962525107 Eh   |
          | TOTAL ENTHALPY            -65.834969845217 Eh   |
          | TOTAL FREE ENERGY         -65.916072753449 Eh   |
          | GRADIENT NORM               0.000092837572 Eh/α |
           -------------------------------------------------

 * finished run on 2025/08/22 at 08:32:48.639
