   * xtb version 6.7.1 (edcfbbe) compiled by 'albert@albert-system' on 2024-07-22

   ID    Z sym.   atoms
    1    6 C      1-6, 8-25
    2    5 B      7
    3    1 H      26-52

          program call               : xtb data2507/gas/N-B/N-B_gas_S0_crest.xyz --gfn 2 --ohess vtight --parallel 40 --molden --ceasefiles --namespace data2507/gas/N-B/N-B_gas_S0_finalOpt
          :  Hamiltonian                  GFN2-xTB          :
 * total energy  :   -66.3864730 Eh     change       -0.5490222E-09 Eh
 * total energy  :   -66.3864741 Eh     change       -0.1055052E-05 Eh
 * total energy  :   -66.3864751 Eh     change       -0.1070181E-05 Eh
 * total energy  :   -66.3864774 Eh     change       -0.2246295E-05 Eh
 * total energy  :   -66.3864796 Eh     change       -0.2245872E-05 Eh
 * total energy  :   -66.3864804 Eh     change       -0.7326472E-06 Eh
 * total energy  :   -66.3864806 Eh     change       -0.2562818E-06 Eh
 * total energy  :   -66.3864808 Eh     change       -0.1760168E-06 Eh
 * total energy  :   -66.3864809 Eh     change       -0.1392744E-06 Eh
 * total energy  :   -66.3864812 Eh     change       -0.2168190E-06 Eh
 * total energy  :   -66.3864815 Eh     change       -0.3162125E-06 Eh
 * total energy  :   -66.3864818 Eh     change       -0.3161048E-06 Eh
 * total energy  :   -66.3864820 Eh     change       -0.2314163E-06 Eh
 * total energy  :   -66.3864822 Eh     change       -0.1385515E-06 Eh
 * total energy  :   -66.3864822 Eh     change       -0.8551848E-07 Eh
   *** GEOMETRY OPTIMIZATION CONVERGED AFTER 15 ITERATIONS ***

 final structure:
================
52
 xtb: 6.7.1 (edcfbbe)
C           -5.23209480890870       -2.38276254892753        0.27103685340288
C           -3.90209100188892       -1.69669113865792        0.19138378427085
C           -2.90499041430217       -1.98407362823896        1.11386187076564
C           -1.66209937710375       -1.37703127794603        1.05179636718477
C           -0.63399582651179       -1.71917384908057        2.09061674725346
C           -1.37996327235270       -0.43191675758833        0.04947085949554
B            0.00058651966172        0.31192729386866        0.00043605816931
C            0.00219856547508        1.87590445448790        0.00031999621345
C           -1.02783060753032        2.60478292698424        0.60411244563950
C           -1.02407744090709        3.98662408972896        0.61386426451278
C            0.00452504633532        4.68179947692388       -0.00111827311895
C            1.03204371183009        3.98429797482620       -0.61525283601311
C            1.03350651039163        2.60245567870997       -0.60407425939026
C            1.37957230181027       -0.43483664036580       -0.04915421993550
C            2.38832383995009       -0.15102969765477        0.88247932328466
C            2.17347260481442        0.82476000583626        2.00602134459840
C            3.62011119361170       -0.78636750958413        0.80489745325316
C            3.89836029115803       -1.70629779863998       -0.19127401199987
C            5.22966826848461       -2.38878576590526       -0.27978005245534
C            2.90034696572420       -1.99074208670880       -1.11400218753643
C            1.65919340376677       -1.38060022927624       -1.05178931490069
C            0.62950532170996       -1.72101308190233       -2.08962167447876
C           -2.38790957921426       -0.14539196085828       -0.88243219707268
C           -2.17066207858036        0.83090569589141       -2.00508441715372
C           -3.62116411636925       -0.77745538860089       -0.80498007449208
H           -5.94728563219091       -1.92650224798630       -0.40911327770274
H           -5.62903234296775       -2.33275568558219        1.28377342976932
H           -5.12862236607257       -3.43536181036773        0.00628540629958
H           -3.10542410950007       -2.70294213011803        1.89697250251038
H           -0.98323808106308       -2.53173200501454        2.72373404591266
H            0.30152456694398       -2.01599333673792        1.62194271514183
H           -0.42815048812733       -0.85682916094742        2.72355053555528
H           -1.83730497693576        2.06898377692597        1.08098057356349
H           -1.82733152053960        4.52669616908236        1.09534822444971
H            0.00539236664422        5.76246552272379       -0.00172738790693
H            1.83622694830128        4.52252782861808       -1.09724660296897
H            1.84209792735049        2.06482319015846       -1.08037696770580
H            2.64508918845683        0.46070219369646        2.91755416530248
H            1.11796644400625        0.99112193763703        2.19792308147499
H            2.62571499488585        1.78520851750497        1.75687983858850
H            4.37721645619074       -0.55423373505625        1.54199285871639
H            5.70257006841572       -2.17532515834314       -1.23795131642705
H            5.89187368532314       -2.05656488615746        0.51597758640542
H            5.10815298090124       -3.46894298725763       -0.20341882735435
H            3.09903932776647       -2.71043167186497       -1.89681577260219
H            0.97797026843882       -2.53221852354733       -2.72486664647098
H            0.42213987003217       -0.85756032083617       -2.72049109562922
H           -0.30506247707005       -2.01916551457866       -1.61986331965898
H           -2.61727182032540        1.79332809176033       -1.75344803576796
H           -2.64625704502788        0.47064644308226       -2.91603831831328
H           -1.11476038516363        0.99220782188931       -2.19916618370751
H           -4.37802756192803       -0.54303996280435       -1.54159917407112

          :  Hamiltonian                  GFN2-xTB          :
         :: gradient norm              0.000039781893 Eh/a0 ::
         :: HOMO-LUMO gap              2.669967167791 eV    ::
         :: SCC energy               -67.594129037622 Eh    ::
         :: -> dispersion             -0.061208053224 Eh    ::
         :: repulsion energy           1.207646797571 Eh    ::

    * Orbital Energies and Occupations

         #    Occupation            Energy/Eh            Energy/eV
      -------------------------------------------------------------
         1        2.0000           -0.6355958             -17.2954
       ...           ...                  ...                  ...
        51        2.0000           -0.4299806             -11.7004
        52        2.0000           -0.4163904             -11.3306
        53        2.0000           -0.4139543             -11.2643
        54        2.0000           -0.4109974             -11.1838
        55        2.0000           -0.4095141             -11.1434
        56        2.0000           -0.3985818             -10.8460
        57        2.0000           -0.3974624             -10.8155
        58        2.0000           -0.3941087             -10.7242
        59        2.0000           -0.3874925             -10.5442
        60        2.0000           -0.3772730             -10.2661
        61        2.0000           -0.3764461             -10.2436
        62        2.0000           -0.3693119             -10.0495
        63        2.0000           -0.3639550              -9.9037 (HOMO)
        64                         -0.2658356              -7.2338 (LUMO)
        65                         -0.2151675              -5.8550
        66                         -0.2098155              -5.7094
        67                         -0.2071310              -5.6363
        68                         -0.2035002              -5.5375
        69                         -0.2024635              -5.5093
        70                         -0.1628274              -4.4308
        71                         -0.0839371              -2.2840
        72                         -0.0835436              -2.2733
        73                         -0.0623733              -1.6973
        74                          0.0941912               2.5631
       ...                                ...                  ...
       127                          0.6713905              18.2695
      -------------------------------------------------------------
                  HL-Gap            0.0981194 Eh            2.6700 eV

     #   Z          covCN         q      C6AA      α(0)
     1   6 C        3.758    -0.107    22.588     6.776
     2   6 C        2.963     0.012    27.735     8.638
     3   6 C        2.929    -0.057    29.412     8.894
     4   6 C        2.967     0.011    27.767     8.643
     5   6 C        3.759    -0.112    22.687     6.791
     6   6 C        2.890    -0.084    30.113     8.997
     7   5 B        2.710     0.247    17.743     7.064
     8   6 C        2.885    -0.060    29.501     8.905
     9   6 C        2.924    -0.027    28.684     8.783
    10   6 C        2.916    -0.031    28.780     8.797
    11   6 C        2.921    -0.027    28.675     8.781
    12   6 C        2.916    -0.031    28.780     8.797
    13   6 C        2.924    -0.027    28.684     8.783
    14   6 C        2.890    -0.084    30.113     8.997
    15   6 C        2.967     0.012    27.753     8.641
    16   6 C        3.759    -0.109    22.633     6.782
    17   6 C        2.929    -0.057    29.405     8.893
    18   6 C        2.963     0.012    27.735     8.638
    19   6 C        3.758    -0.107    22.588     6.776
    20   6 C        2.929    -0.057    29.413     8.894
    21   6 C        2.967     0.011    27.767     8.643
    22   6 C        3.759    -0.112    22.687     6.791
    23   6 C        2.967     0.012    27.753     8.641
    24   6 C        3.759    -0.109    22.632     6.782
    25   6 C        2.929    -0.057    29.407     8.893
    26   1 H        0.925     0.037     2.484     2.465
    27   1 H        0.925     0.041     2.437     2.441
    28   1 H        0.924     0.043     2.415     2.430
    29   1 H        0.925     0.023     2.695     2.567
    30   1 H        0.925     0.037     2.496     2.471
    31   1 H        0.925     0.049     2.332     2.388
    32   1 H        0.925     0.038     2.479     2.462
    33   1 H        0.925     0.026     2.651     2.546
    34   1 H        0.926     0.023     2.682     2.561
    35   1 H        0.926     0.025     2.661     2.551
    36   1 H        0.926     0.023     2.682     2.561
    37   1 H        0.925     0.025     2.651     2.546
    38   1 H        0.925     0.039     2.462     2.454
    39   1 H        0.925     0.037     2.490     2.468
    40   1 H        0.924     0.043     2.416     2.431
    41   1 H        0.925     0.022     2.701     2.570
    42   1 H        0.925     0.042     2.424     2.435
    43   1 H        0.925     0.037     2.487     2.466
    44   1 H        0.925     0.042     2.424     2.435
    45   1 H        0.925     0.023     2.694     2.567
    46   1 H        0.925     0.037     2.496     2.471
    47   1 H        0.925     0.038     2.479     2.462
    48   1 H        0.925     0.049     2.333     2.388
    49   1 H        0.924     0.043     2.416     2.430
    50   1 H        0.925     0.039     2.463     2.454
    51   1 H        0.925     0.037     2.491     2.468
    52   1 H        0.925     0.022     2.700     2.570

molecular dipole:
                 x           y           z       tot (Debye)
 q only:        0.001      -0.053      -0.005
   full:        0.003       0.040      -0.009       0.105

 projected vibrational frequencies (cm⁻¹)
eigval :       -0.00    -0.00    -0.00    -0.00     0.00     0.00
eigval :       10.14    10.79    24.85    29.30    31.17    35.65
eigval :       43.56    53.61    69.12    75.40   103.71   120.17
eigval :      125.88   127.84   159.62   163.13   182.02   189.08
eigval :      202.75   203.56   208.57   236.17   274.71   276.54
eigval :      308.88   323.10   324.24   343.78   363.03   415.59
eigval :      462.45   477.23   491.99   496.52   496.93   505.70
eigval :      506.38   512.94   535.33   555.83   587.01   596.96
eigval :      599.53   602.08   628.11   671.87   681.45   681.54
eigval :      741.80   839.74   841.06   878.37   882.79   885.91
eigval :      890.16   890.22   910.27   934.90   935.58   964.26
eigval :      964.48   976.03   976.26   988.21  1020.77  1022.43
eigval :     1028.13  1028.51  1030.67  1031.61  1033.06  1033.33
eigval :     1039.94  1041.50  1045.18  1045.30  1085.23  1105.16
eigval :     1120.21  1165.73  1183.13  1193.29  1206.74  1221.17
eigval :     1223.61  1235.45  1235.84  1285.60  1304.91  1306.21
eigval :     1309.74  1336.30  1338.57  1402.78  1402.85  1403.95
eigval :     1404.07  1405.39  1408.27  1419.49  1428.28  1429.44
eigval :     1453.76  1455.79  1463.56  1478.78  1481.08  1482.88
eigval :     1483.26  1483.37  1485.90  1485.93  1488.05  1488.72
eigval :     1489.02  1496.26  1497.91  1562.26  1562.83  1568.69
eigval :     1592.59  1601.59  1603.75  2995.98  2996.34  2997.83
eigval :     3001.84  3007.14  3007.64  3014.56  3018.26  3018.54
eigval :     3019.73  3033.46  3033.85  3037.39  3037.95  3039.69
eigval :     3040.67  3056.60  3056.87  3059.97  3060.11  3060.26
eigval :     3060.88  3061.39  3061.85  3068.67  3073.56  3083.20

   temp. (K)  partition function   enthalpy   heat capacity  entropy
                                   cal/mol     cal/K/mol   cal/K/mol   J/K/mol
 298.15  VIB  0.192E+14            15152.183     86.170     97.896
         ROT  0.104E+08              888.752      2.981     35.095
         INT  0.201E+21            16040.936     89.151    132.991
         TR   0.570E+28             1481.254      4.968     43.223
         TOT                       17522.1897    94.1188   176.2146   737.2817

       T/K    H(0)-H(T)+PV         H(T)/Eh          T*S/Eh         G(T)/Eh
   ------------------------------------------------------------------------
    298.15    0.279234E-01    0.459176E+00    0.837252E-01    0.375450E+00
   ------------------------------------------------------------------------

         :::::::::::::::::::::::::::::::::::::::::::::::::::::
         ::                  THERMODYNAMIC                  ::
         :::::::::::::::::::::::::::::::::::::::::::::::::::::
         :: total free energy         -66.011031963890 Eh   ::
         ::.................................................::
         :: total energy              -66.386482240048 Eh   ::
         :: zero point energy           0.431252113998 Eh   ::
         :: G(RRHO) w/o ZPVE           -0.055801837840 Eh   ::
         :: G(RRHO) contrib.            0.375450276158 Eh   ::
         :::::::::::::::::::::::::::::::::::::::::::::::::::::

           -------------------------------------------------
          | TOTAL ENERGY              -66.386482240048 Eh   |
          | TOTAL ENTHALPY            -65.927306739389 Eh   |
          | TOTAL FREE ENERGY         -66.011031963890 Eh   |
          | GRADIENT NORM               0.000039766558 Eh/α |
          | HOMO-LUMO GAP               2.669964210148 eV   |
           -------------------------------------------------

 * finished run on 2025/08/22 at 08:32:41.486
