   * xtb version 6.7.1 (edcfbbe) compiled by 'albert@albert-system' on 2024-07-22

   ID    Z sym.   atoms
    1    6 C      1-9, 11-14, 16-20, 22-29, 31-33, 35-42
    2    7 N      10, 15, 21, 30, 34
    3    1 H      43-65

          program call               : xtb data2507/gas/Ac-BPCN/Ac-BPCN_gas_T1_crest.xyz --gfn 2 --spinpol --tblite --uhf 2 --ohess vtight --parallel 40 --molden --ceasefiles --namespace data2507/gas/Ac-BPCN/Ac-BPCN_gas_T1_finalOpt
 * total energy  :  -105.5273921 Eh     change        0.3426381E-07 Eh
 * total energy  :  -105.5274150 Eh     change       -0.2283466E-04 Eh
 * total energy  :  -105.5274145 Eh     change        0.4604003E-06 Eh
 * total energy  :  -105.5274115 Eh     change        0.2974489E-05 Eh
 * total energy  :  -105.5274204 Eh     change       -0.8927953E-05 Eh
 * total energy  :  -105.5274203 Eh     change        0.1097692E-06 Eh
 * total energy  :  -105.5274170 Eh     change        0.3380820E-05 Eh
 * total energy  :  -105.5274223 Eh     change       -0.5326352E-05 Eh
 * total energy  :  -105.5274228 Eh     change       -0.5274245E-06 Eh
 * total energy  :  -105.5274232 Eh     change       -0.3920975E-06 Eh
 * total energy  :  -105.5274243 Eh     change       -0.1103332E-05 Eh
 * total energy  :  -105.5274248 Eh     change       -0.5396898E-06 Eh
 * total energy  :  -105.5274249 Eh     change       -0.2419014E-07 Eh
   *** GEOMETRY OPTIMIZATION CONVERGED AFTER 13 ITERATIONS ***

 final structure:
================
65
 xtb: 6.7.1 (edcfbbe)
C           -7.44766313558853       -0.84231249618448       -0.06761022327543
C           -6.30949750933762        0.19319767605765        0.00181098921278
C           -6.88986062973270        1.61768694081359        0.08114463805147
C           -5.49234257532280       -0.06722482168404        1.25076865279688
C           -6.10130810923002       -0.00454067535981        2.49642482985374
C           -5.40063893912134       -0.23130748181882        3.66671618431968
C           -4.04913106451092       -0.52858720845224        3.60495567190237
C           -3.41794597974765       -0.59761593931905        2.38289121257886
C           -4.12538506924270       -0.37161403570770        1.19561241197429
N           -3.46535022221829       -0.45007677906256       -0.01465296020370
C           -2.07900603717817       -0.78021016565963       -0.02306433563517
C           -1.69003747254185       -2.11580183983019       -0.05782502645326
C           -0.34883159727043       -2.44709167680078       -0.06443652414349
C            0.63307789426789       -1.45730527088075       -0.03751640748031
N            1.93481758730865       -1.74293511469260       -0.04216025436738
C            2.86013685751934       -0.79431663340765       -0.01689896807276
C            4.25211378971578       -1.12220556678840       -0.02186851587945
C            4.62637193823320       -2.47094227164390       -0.05235981990966
C            5.95967292452942       -2.82951579405457       -0.05800762702944
C            6.33286137555710       -4.19114716336449       -0.08843723390493
N            6.64396218266557       -5.29476644733604       -0.11321013051881
C            6.95084400757372       -1.83033206809661       -0.03309870147076
C            6.59001766683501       -0.50955830226662       -0.00313844275605
C            5.24215454959677       -0.10671427302587        0.00378753294484
C            4.83808203976204        1.27381523958812        0.03539702547702
C            5.75672472777038        2.33894097197410        0.06152369192799
C            5.34934980039781        3.64608883555285        0.09141158321774
C            3.97590193522245        3.95431820066398        0.09666588945792
C            3.55679094199600        5.30248465044682        0.12742648479636
N            3.22440270157134        6.39990816938942        0.15247465737960
C            3.04560863299790        2.93438696403086        0.07167895583168
C            3.45668520809226        1.59637837447807        0.04105015459195
C            2.46008012655526        0.57075572014689        0.01552148085854
N            1.16942625252557        0.87274463115047        0.02108449554853
C            0.22687336681233       -0.07080096413797       -0.00316990330178
C           -1.13143981727668        0.23355601105932        0.00403840395267
C           -4.10816661837807       -0.23404497570732       -1.21741440542914
C           -3.38562743469065       -0.33218731778748       -2.41300930958891
C           -3.99891765931341       -0.12139386420679       -3.62794297967858
C           -5.34761447118336        0.19110026244205       -3.67408950837744
C           -6.06439172156499        0.28641531230615       -2.49549223210672
C           -5.47370318172519        0.07913549306846       -1.25672909027060
H           -7.03229451834252       -1.84666934169859       -0.12483716662774
H           -8.06827493492065       -0.67736344184121       -0.94365824242889
H           -8.08000797296776       -0.78229381205950        0.81350609814713
H           -6.08175798950039        2.34495432968019        0.13004044297412
H           -7.49699791515987        1.83760416310942       -0.79227779990235
H           -7.51032357277957        1.73430672552258        0.96504114753848
H           -7.15317135160598        0.22775709239143        2.56233518093718
H           -5.90555048982815       -0.17511839773046        4.61863614825650
H           -3.48634777024367       -0.70635171047955        4.50860259345611
H           -2.36509820195135       -0.82795939587797        2.33717715567344
H           -2.44355718204308       -2.88799734662841       -0.07871924701094
H           -0.03372344162734       -3.47789575150254       -0.09084348975627
H            3.85098598947908       -3.22195853203781       -0.07113539270820
H            7.99179875148001       -2.11714910384823       -0.03786072613464
H            7.37258511082366        0.23167007375507        0.01546181587299
H            6.81539705674339        2.13558364419489        0.05821816759268
H            6.07198284090625        4.44813369326959        0.11107649969518
H            1.98772226883495        3.14985207359349        0.07518811004983
H           -1.43551180598995        1.26802820418656        0.03064995785783
H           -2.33549471321338       -0.57653518025919       -2.37943148482443
H           -3.42453151736948       -0.20119943231638       -4.53822214370696
H           -5.83836901938617        0.35864266058008       -4.62031052793620
H           -7.11452884046843        0.52939629410421       -2.54919530353593

 projected vibrational frequencies (cm⁻¹)
eigval :       -0.00    -0.00    -0.00     0.00     0.00     0.00
eigval :        3.86    16.37    18.02    35.35    41.31    50.30
eigval :       60.09    71.78    74.99    82.32    94.57   100.19
eigval :      119.62   128.87   136.78   137.95   143.56   172.93
eigval :      191.65   200.63   202.39   217.84   223.97   238.10
eigval :      253.33   276.78   286.16   303.73   303.76   327.93
eigval :      332.56   342.87   348.45   376.48   376.71   386.43
eigval :      392.73   394.08   409.61   418.67   439.83   441.63
eigval :      444.47   449.33   475.50   482.32   497.01   508.88
eigval :      523.68   533.02   539.17   542.07   544.90   562.82
eigval :      571.00   583.21   585.57   595.81   601.03   615.84
eigval :      629.32   634.64   651.80   654.10   664.04   669.41
eigval :      685.39   687.06   697.94   708.25   722.90   723.80
eigval :      774.12   775.80   793.69   800.70   812.31   812.42
eigval :      819.08   820.72   825.98   850.83   867.02   867.42
eigval :      876.16   878.86   881.09   901.75   911.12   914.32
eigval :      914.67   915.38   921.24   922.21   922.40   937.86
eigval :      957.95   979.94   992.21  1013.72  1019.62  1063.85
eigval :     1076.29  1084.53  1108.72  1115.12  1132.39  1139.39
eigval :     1154.17  1154.76  1160.34  1163.97  1177.52  1184.22
eigval :     1185.22  1185.72  1198.31  1218.55  1220.80  1238.64
eigval :     1245.36  1248.66  1253.02  1260.56  1273.07  1279.01
eigval :     1285.31  1294.23  1297.88  1302.99  1323.08  1328.18
eigval :     1333.39  1334.73  1335.84  1358.54  1371.16  1387.99
eigval :     1402.31  1404.19  1405.68  1420.17  1430.55  1432.85
eigval :     1435.14  1451.29  1462.26  1467.03  1479.87  1487.77
eigval :     1488.63  1489.09  1498.59  1502.23  1510.55  1513.71
eigval :     1526.15  1538.41  1557.78  1561.78  1576.54  1582.44
eigval :     1582.91  1593.78  2368.52  2369.09  3029.32  3031.48
eigval :     3043.95  3046.39  3052.51  3055.97  3085.34  3085.49
eigval :     3089.84  3089.93  3089.93  3091.82  3095.19  3098.26
eigval :     3098.59  3100.02  3100.32  3103.02  3104.60  3106.75
eigval :     3106.84  3107.27  3113.50

   temp. (K)  partition function   enthalpy   heat capacity  entropy
                                   cal/mol     cal/K/mol   cal/K/mol   J/K/mol
 298.15  VIB  0.737E+15            19534.264    124.230    121.341
         ROT  0.633E+08              888.752      2.981     38.679
         INT  0.466E+23            20423.016    127.211    160.020
         TR   0.121E+29             1481.254      4.968     44.711
         TOT                       21904.2701   132.1792   204.7311   856.5948

       T/K    H(0)-H(T)+PV         H(T)/Eh          T*S/Eh         G(T)/Eh
   ------------------------------------------------------------------------
    298.15    0.349067E-01    0.519202E+00    0.972743E-01    0.421928E+00
   ------------------------------------------------------------------------

         :::::::::::::::::::::::::::::::::::::::::::::::::::::
         ::                  THERMODYNAMIC                  ::
         :::::::::::::::::::::::::::::::::::::::::::::::::::::
         :: total free energy        -105.105496769492 Eh   ::
         ::.................................................::
         :: total energy             -105.527424900793 Eh   ::
         :: zero point energy           0.484295791297 Eh   ::
         :: G(RRHO) w/o ZPVE           -0.062367659995 Eh   ::
         :: G(RRHO) contrib.            0.421928131301 Eh   ::
         :::::::::::::::::::::::::::::::::::::::::::::::::::::

           -------------------------------------------------
          | TOTAL ENERGY             -105.527424900793 Eh   |
          | TOTAL ENTHALPY           -105.008222433130 Eh   |
          | TOTAL FREE ENERGY        -105.105496769492 Eh   |
          | GRADIENT NORM               0.000072238580 Eh/α |
           -------------------------------------------------

 * finished run on 2025/09/08 at 05:46:43.407
