   * xtb version 6.7.1 (edcfbbe) compiled by 'albert@albert-system' on 2024-07-22

   ID    Z sym.   atoms
    1    6 C      1-9, 11-14, 16-20, 22-29, 31-33, 35-42
    2    7 N      10, 15, 21, 30, 34
    3    1 H      43-65

          program call               : xtb data2507/gas/Ac-BPCN/Ac-BPCN_gas_S0_finalOpt.xtbopt.xyz --gfn 2 --spinpol --tblite --uhf 2 --ohess vtight --parallel 40 --molden --ceasefiles --namespace data2507/gas/Ac-BPCN/Ac-BPCN_gas_T1_preOpt
 * total energy  :  -105.5184269 Eh     change       -0.1433591E-08 Eh
 * total energy  :  -105.5217651 Eh     change       -0.3338189E-02 Eh
 * total energy  :  -105.5230996 Eh     change       -0.1334492E-02 Eh
 * total energy  :  -105.5231173 Eh     change       -0.1777088E-04 Eh
 * total energy  :  -105.5233218 Eh     change       -0.2044193E-03 Eh
 * total energy  :  -105.5233497 Eh     change       -0.2794090E-04 Eh
 * total energy  :  -105.5233412 Eh     change        0.8501118E-05 Eh
 * total energy  :  -105.5233568 Eh     change       -0.1558831E-04 Eh
 * total energy  :  -105.5233603 Eh     change       -0.3542747E-05 Eh
 * total energy  :  -105.5233638 Eh     change       -0.3492185E-05 Eh
 * total energy  :  -105.5234038 Eh     change       -0.3610522E-06 Eh
 * total energy  :  -105.5234041 Eh     change       -0.3719155E-06 Eh
 * total energy  :  -105.5234047 Eh     change       -0.5493418E-06 Eh
 * total energy  :  -105.5234051 Eh     change       -0.3808186E-06 Eh
 * total energy  :  -105.5234054 Eh     change       -0.3769879E-06 Eh
 * total energy  :  -105.5234058 Eh     change       -0.3783498E-06 Eh
 * total energy  :  -105.5234061 Eh     change       -0.3118515E-06 Eh
 * total energy  :  -105.5234061 Eh     change        0.6183217E-07 Eh
 * total energy  :  -105.5234061 Eh     change       -0.2924834E-07 Eh
   *** GEOMETRY OPTIMIZATION CONVERGED AFTER 45 ITERATIONS ***

 final structure:
================
65
 xtb: 6.7.1 (edcfbbe)
C           -6.78306465713691        0.54852659893009        2.00095780376160
C           -5.46576945534758        0.18226311555856        1.31817515834936
C           -4.41973820502854       -0.09838771186364        2.41619090266648
C           -5.59262751295341       -1.04321114261797        0.43040460234822
C           -6.67217226973193       -1.91233323058024        0.43987813488589
C           -6.71512884618064       -3.00226270863256       -0.41346052726996
C           -5.68920451534242       -3.22189706678710       -1.31533814791222
C           -4.60813436466652       -2.36160339364246       -1.34897046668538
C           -4.54333120125962       -1.29587886525870       -0.45945175777098
N           -3.47740113347740       -0.37481940939515       -0.50237792765840
C           -2.15117706841630       -0.73684966373700       -0.39927454602191
C           -1.77413115144108       -2.08378876460994       -0.27709648321662
C           -0.44947703061027       -2.44609476501166       -0.16305144490896
C            0.57058435007196       -1.49977482700931       -0.16618872564162
N            1.86148068494099       -1.80339430917040       -0.08142006198567
C            2.81134465723536       -0.88745732704489       -0.02974558731587
C            4.19415493084037       -1.24196325350241        0.03130248691893
C            4.54063854327448       -2.59846342168100        0.02425896042092
C            5.86454519412587       -2.98552333076431        0.08697475263133
C            6.20839850209823       -4.35477116346814        0.07966876384517
N            6.49521751156253       -5.46532210077124        0.07264733820473
C            6.87476630342246       -2.00726355905588        0.15870323230664
C            6.54146942026758       -0.67946889393105        0.16652038438385
C            5.20363816827231       -0.24714566727619        0.10357572959692
C            4.82834177948956        1.14012291215213        0.10842571880885
C            5.76534374009161        2.18700617359239        0.18799434712326
C            5.38493207285333        3.50207738204036        0.18417685281802
C            4.01984675594509        3.83877888451593        0.09903379647324
C            3.62738875408130        5.19490483657585        0.09003493571475
N            3.31557643221165        6.29873156482331        0.08373899208724
C            3.07178572381971        2.83863706649239        0.02404117157727
C            3.45513702043843        1.49125217187950        0.02754345045291
C            2.43957824121758        0.49061329618405       -0.04792148606934
N            1.16234520912398        0.80854541944089       -0.16978933638793
C            0.19205979085772       -0.10169383785408       -0.23211927695587
C           -1.14730343948186        0.23582767855782       -0.32084748943979
C           -3.92190237464711        0.96214003668370       -0.47352386130411
C           -3.43081256121602        1.90419418890253       -1.36973044164669
C           -3.91549606685009        3.19840465734335       -1.34291199075814
C           -4.90736429372887        3.54258845834489       -0.44218967280942
C           -5.42954668331502        2.59082667273275        0.41826628675933
C           -4.95028126103139        1.29062644663774        0.41663811193747
H           -7.55861006801377        0.75788302627758        1.26762484459560
H           -6.64695591461624        1.42229176261818        2.63317467283688
H           -7.11129913894902       -0.26531182329310        2.64262224901656
H           -3.45423901069374       -0.36684707420162        1.99643947102539
H           -4.28869973599798        0.78695045062764        3.03478925006577
H           -4.75809211920007       -0.91817535392480        3.04644544367368
H           -7.49551635534920       -1.75042618571353        1.11617895986986
H           -7.56142892791736       -3.67159338194991       -0.38314010848220
H           -5.73518422782541       -4.05297994601160       -2.00258612558014
H           -3.82249782488476       -2.49896866981553       -2.07670911758019
H           -2.52549569031791       -2.85479874955585       -0.24182937261884
H           -0.17618049287095       -3.48617612675843       -0.07851941152917
H            3.75204789159780       -3.33408972502300       -0.02984948096164
H            7.90813936481674       -2.31651932094703        0.20693737446401
H            7.33761832405166        0.04532364895244        0.22121784555695
H            6.81738399730878        1.96136590348540        0.25486769402186
H            6.12125386579266        4.28937546657214        0.24521511956494
H            2.02050473826000        3.07689187552971       -0.03934434968384
H           -1.39368993820315        1.28397729867270       -0.27641163657282
H           -2.68914168470445        1.61366378379783       -2.09831472727370
H           -3.52728243463082        3.93112202875312       -2.03377966241421
H           -5.28906381155449        4.55190014375199       -0.41724315599240
H           -6.21708388872938        2.87993546934794        1.09480138360015

 projected vibrational frequencies (cm⁻¹)
eigval :       -0.00    -0.00    -0.00     0.00     0.00     0.00
eigval :       10.48    18.53    35.10    36.92    51.30    60.68
eigval :       62.71    70.74    72.88    83.53   108.32   120.10
eigval :      133.78   135.34   146.29   156.47   168.83   176.43
eigval :      188.02   194.22   218.34   227.41   240.78   251.56
eigval :      272.44   285.49   302.20   307.81   311.83   328.75
eigval :      341.29   347.12   358.74   365.41   369.61   379.86
eigval :      403.03   407.57   414.61   422.09   431.09   440.56
eigval :      445.80   457.37   473.14   481.04   492.06   498.73
eigval :      523.69   537.40   541.57   554.28   559.57   561.16
eigval :      574.43   579.81   582.74   593.09   596.88   605.33
eigval :      613.60   629.59   638.82   650.57   662.31   666.60
eigval :      669.67   692.88   707.51   718.34   719.21   724.84
eigval :      773.42   780.34   789.44   791.67   803.17   810.99
eigval :      811.67   818.33   818.93   847.20   870.12   874.82
eigval :      877.53   888.37   892.10   900.88   908.74   910.49
eigval :      917.39   919.25   921.61   934.68   936.55   944.39
eigval :      967.28   979.36   993.29  1010.03  1018.13  1063.36
eigval :     1073.96  1079.36  1099.96  1107.13  1137.93  1147.31
eigval :     1152.70  1158.32  1162.10  1173.64  1178.71  1182.84
eigval :     1185.42  1190.56  1198.92  1221.26  1227.90  1231.42
eigval :     1241.50  1250.71  1254.43  1260.38  1269.09  1273.98
eigval :     1276.02  1281.63  1293.29  1302.30  1306.87  1322.03
eigval :     1327.24  1333.58  1343.40  1374.41  1381.14  1390.47
eigval :     1399.62  1413.90  1416.10  1418.45  1437.18  1438.87
eigval :     1441.91  1452.11  1458.17  1472.46  1476.16  1484.94
eigval :     1492.65  1495.24  1505.58  1507.19  1517.03  1523.07
eigval :     1523.67  1550.37  1555.43  1574.46  1581.56  1582.70
eigval :     1587.12  1597.02  2367.30  2367.98  3028.55  3030.68
eigval :     3033.10  3035.96  3047.45  3054.48  3083.39  3085.05
eigval :     3089.48  3090.24  3090.96  3092.18  3095.91  3096.08
eigval :     3097.36  3098.81  3100.33  3104.55  3110.82  3113.86
eigval :     3113.95  3114.41  3121.04

   temp. (K)  partition function   enthalpy   heat capacity  entropy
                                   cal/mol     cal/K/mol   cal/K/mol   J/K/mol
 298.15  VIB  0.380E+14            19248.456    124.622    117.426
         ROT  0.618E+08              888.752      2.981     38.630
         INT  0.235E+22            20137.208    127.603    156.056
         TR   0.121E+29             1481.254      4.968     44.711
         TOT                       21618.4622   132.5711   200.7675   840.0113

       T/K    H(0)-H(T)+PV         H(T)/Eh          T*S/Eh         G(T)/Eh
   ------------------------------------------------------------------------
    298.15    0.344512E-01    0.519570E+00    0.953911E-01    0.424179E+00
   ------------------------------------------------------------------------

         :::::::::::::::::::::::::::::::::::::::::::::::::::::
         ::                  THERMODYNAMIC                  ::
         :::::::::::::::::::::::::::::::::::::::::::::::::::::
         :: total free energy        -105.099227100460 Eh   ::
         ::.................................................::
         :: total energy             -105.523406099693 Eh   ::
         :: zero point energy           0.485118908554 Eh   ::
         :: G(RRHO) w/o ZPVE           -0.060939909321 Eh   ::
         :: G(RRHO) contrib.            0.424178999233 Eh   ::
         :::::::::::::::::::::::::::::::::::::::::::::::::::::

           -------------------------------------------------
          | TOTAL ENERGY             -105.523406099693 Eh   |
          | TOTAL ENTHALPY           -105.003835978768 Eh   |
          | TOTAL FREE ENERGY        -105.099227100460 Eh   |
          | GRADIENT NORM               0.000187454068 Eh/α |
           -------------------------------------------------

 * finished run on 2025/09/08 at 05:43:15.152
