   * xtb version 6.7.1 (edcfbbe) compiled by 'albert@albert-system' on 2024-07-22

   ID    Z sym.   atoms
    1    6 C      1-9, 11-14, 16-20, 22-29, 31-33, 35-42
    2    7 N      10, 15, 21, 30, 34
    3    1 H      43-65

          program call               : xtb data2507/gas/Ac-BPCN/Ac-BPCN_gas_S0_crest.xyz --gfn 2 --ohess vtight --parallel 40 --molden --ceasefiles --namespace data2507/gas/Ac-BPCN/Ac-BPCN_gas_S0_finalOpt
          :  Hamiltonian                  GFN2-xTB          :
 * total energy  :  -105.5671196 Eh     change       -0.2644100E-08 Eh
 * total energy  :  -105.5671191 Eh     change        0.4780616E-06 Eh
 * total energy  :  -105.5671198 Eh     change       -0.6688159E-06 Eh
 * total energy  :  -105.5671199 Eh     change       -0.1208811E-06 Eh
 * total energy  :  -105.5671199 Eh     change       -0.6510945E-08 Eh
 * total energy  :  -105.5671201 Eh     change       -0.1820136E-06 Eh
 * total energy  :  -105.5671199 Eh     change        0.1523492E-06 Eh
 * total energy  :  -105.5671204 Eh     change       -0.5010958E-06 Eh
 * total energy  :  -105.5671205 Eh     change       -0.7646241E-07 Eh
   *** GEOMETRY OPTIMIZATION CONVERGED AFTER 9 ITERATIONS ***

 final structure:
================
65
 xtb: 6.7.1 (edcfbbe)
C           -6.76965783569758        0.47400109305050        2.02216545430460
C           -5.44905314873466        0.14677501408906        1.32603504857373
C           -4.39511107335692       -0.14410281843174        2.41359965801359
C           -5.56054752526302       -1.05793702457212        0.40780764583496
C           -6.62690952662571       -1.94334818423024        0.39747753577493
C           -6.65513123117514       -3.01221004444759       -0.48281507211019
C           -5.62741589786526       -3.19556151819191       -1.39060922566705
C           -4.55984880633615       -2.31776823355450       -1.40528214898766
C           -4.51113210073797       -1.27230773625630       -0.49132075863103
N           -3.45829789178895       -0.33416260876587       -0.51427944158671
C           -2.13029396906865       -0.67121487720131       -0.39800155311987
C           -1.75597935806900       -2.04153675224039       -0.26770948276818
C           -0.45636401305340       -2.42334030777306       -0.15660024124655
C            0.57649959786035       -1.45867019617376       -0.15037166114052
N            1.85230604145381       -1.83242513235778       -0.06257272128121
C            2.77324046608934       -0.88130670703405       -0.02426537397003
C            4.16577811803270       -1.25810525402095        0.06518643547136
C            4.49986861723732       -2.61181409913378        0.10227410719211
C            5.82490910885233       -3.00468521232594        0.18762985431007
C            6.16452530335892       -4.37637304605255        0.22543571943216
N            6.44961196338807       -5.48635319333836        0.25648723320737
C            6.83396791796464       -2.03325704099052        0.23658416763999
C            6.50526776285881       -0.69989266436891        0.20023064859663
C            5.17262071880373       -0.27034606834139        0.11434912674222
C            4.80647573546209        1.13577939799894        0.07508826164819
C            5.75994353113225        2.16413862375517        0.12191267508259
C            5.39727595384322        3.48852619096474        0.08224072771076
C            4.04430298910316        3.84224790381381       -0.00713939708772
C            3.67198244905387        5.20519445342019       -0.04920370548031
N            3.37903120274062        6.31306222465441       -0.08355583556590
C            3.07979796084456        2.84928529255169       -0.05417486453315
C            3.44798078522821        1.50540310627733       -0.01386760100094
C            2.41245543390752        0.49405406123377       -0.06628524869623
N            1.15260282068789        0.87759572694968       -0.15554158805773
C            0.20880901670885       -0.07707481210027       -0.20718066017334
C           -1.13794292776666        0.28989085602373       -0.31765655677872
C           -3.92951462357541        0.99621170426050       -0.45484075579044
C           -3.46697215276792        1.96293121984970       -1.33810947093503
C           -3.97764781261566        3.24626064118646       -1.28230849055656
C           -4.96608580269590        3.55372130603284       -0.36471392093226
C           -5.46116063150578        2.57578389036706        0.48155570850612
C           -4.95579089184479        1.28541901139166        0.44960553252536
H           -7.55140261942939        0.68856845010973        1.29695368298439
H           -6.64560753591920        1.33404678276816        2.67532586558649
H           -7.08187177537312       -0.36085753987309        2.64461995457513
H           -3.42387101812561       -0.37668669985418        1.98584955497473
H           -4.28311895248271        0.72478551005177        3.05864614750020
H           -4.71369251078359       -0.99014986927719        3.01912705089190
H           -7.45104204427689       -1.81123419863880        1.07927632459078
H           -7.49146499284676       -3.69449914506108       -0.46775642656519
H           -5.66117081529460       -4.01171100330290       -2.09620332368979
H           -3.77032784586009       -2.42772402889503       -2.13392346178172
H           -2.52962306010898       -2.79199442060837       -0.22619088853716
H           -0.18528135207708       -3.46271928359169       -0.05589481266626
H            3.70313872170504       -3.33839826931731        0.06291935697933
H            7.86690789828475       -2.34146415048298        0.30282408319453
H            7.30646730877545        0.02022987382108        0.23966553414526
H            6.80955640357996        1.92848888125704        0.19081892635574
H            6.14869572490069        4.26343551939424        0.11931880084536
H            2.03046177627157        3.09125291402799       -0.12245779439012
H           -1.36207062395634        1.34334735430648       -0.31723723405034
H           -2.72498128673334        1.70233639823256       -2.07730023360495
H           -3.61154475979497        3.99941920027376       -1.96318902054651
H           -5.36679089107959        4.55485399100605       -0.31611874559201
H           -6.24879619344288        2.83543620628584        1.16984500293082

          :  Hamiltonian                  GFN2-xTB          :
         :: gradient norm              0.000028293911 Eh/a0 ::
         :: HOMO-LUMO gap              1.244252695609 eV    ::
         :: SCC energy              -107.543588192842 Eh    ::
         :: -> dispersion             -0.093299182785 Eh    ::
         :: repulsion energy           1.976467693674 Eh    ::

    * Orbital Energies and Occupations

         #    Occupation            Energy/Eh            Energy/eV
      -------------------------------------------------------------
         1        2.0000           -0.6829520             -18.5841
       ...           ...                  ...                  ...
        86        2.0000           -0.4288390             -11.6693
        87        2.0000           -0.4249044             -11.5622
        88        2.0000           -0.4229996             -11.5104
        89        2.0000           -0.4215242             -11.4703
        90        2.0000           -0.4166950             -11.3388
        91        2.0000           -0.4139634             -11.2645
        92        2.0000           -0.4137426             -11.2585
        93        2.0000           -0.4107869             -11.1781
        94        2.0000           -0.4092443             -11.1361
        95        2.0000           -0.4081289             -11.1058
        96        2.0000           -0.4031080             -10.9691
        97        2.0000           -0.3665605              -9.9746
        98        2.0000           -0.3551465              -9.6640 (HOMO)
        99                         -0.3094210              -8.4198 (LUMO)
       100                         -0.2880850              -7.8392
       101                         -0.2770669              -7.5394
       102                         -0.2565731              -6.9817
       103                         -0.2409089              -6.5555
       104                         -0.2394683              -6.5163
       105                         -0.2362941              -6.4299
       106                         -0.2333894              -6.3508
       107                         -0.2308990              -6.2831
       108                         -0.2181868              -5.9372
       109                         -0.2096339              -5.7044
       ...                                ...                  ...
       191                          1.1707408              31.8575
      -------------------------------------------------------------
                  HL-Gap            0.0457254 Eh            1.2443 eV

     #   Z          covCN         q      C6AA      α(0)
     1   6 C        3.759    -0.107    22.604     6.778
     2   6 C        3.911     0.023    20.131     6.377
     3   6 C        3.762    -0.099    22.431     6.751
     4   6 C        2.987    -0.006    28.159     8.705
     5   6 C        2.923    -0.037    28.930     8.820
     6   6 C        2.919    -0.036    28.885     8.813
     7   6 C        2.920    -0.033    28.811     8.802
     8   6 C        2.920    -0.045    29.129     8.851
     9   6 C        2.951     0.055    26.763     8.485
    10   7 N        2.755    -0.061    22.428     7.034
    11   6 C        2.908     0.071    26.406     8.426
    12   6 C        2.919    -0.047    29.159     8.855
    13   6 C        2.914    -0.040    28.996     8.830
    14   6 C        2.969     0.078    26.249     8.404
    15   7 N        1.848    -0.239    27.096     7.715
    16   6 C        2.966     0.075    26.325     8.416
    17   6 C        2.987     0.004    27.933     8.670
    18   6 C        2.931    -0.020    28.502     8.755
    19   6 C        2.971     0.021    27.538     8.608
    20   6 C        1.912     0.113    28.310     8.593
    21   7 N        0.911    -0.230    26.028     7.379
    22   6 C        2.923    -0.022    28.559     8.764
    23   6 C        2.921    -0.031    28.772     8.796
    24   6 C        2.976     0.009    27.804     8.649
    25   6 C        2.975     0.011    27.767     8.644
    26   6 C        2.921    -0.031    28.776     8.797
    27   6 C        2.923    -0.021    28.536     8.760
    28   6 C        2.971     0.021    27.544     8.609
    29   6 C        1.912     0.113    28.310     8.593
    30   7 N        0.911    -0.230    26.033     7.379
    31   6 C        2.931    -0.019    28.481     8.752
    32   6 C        2.987     0.003    27.949     8.672
    33   6 C        2.962     0.082    26.169     8.391
    34   7 N        1.850    -0.249    27.336     7.749
    35   6 C        2.964     0.083    26.158     8.389
    36   6 C        2.923    -0.079    29.984     8.980
    37   6 C        2.952     0.055    26.768     8.486
    38   6 C        2.920    -0.044    29.093     8.845
    39   6 C        2.920    -0.031    28.783     8.798
    40   6 C        2.919    -0.035    28.865     8.810
    41   6 C        2.923    -0.037    28.929     8.820
    42   6 C        2.988    -0.006    28.158     8.705
    43   1 H        0.925     0.039     2.456     2.451
    44   1 H        0.925     0.042     2.417     2.431
    45   1 H        0.925     0.042     2.425     2.435
    46   1 H        0.925     0.035     2.512     2.479
    47   1 H        0.925     0.041     2.439     2.442
    48   1 H        0.925     0.039     2.456     2.451
    49   1 H        0.926     0.042     2.420     2.433
    50   1 H        0.926     0.036     2.504     2.474
    51   1 H        0.926     0.037     2.490     2.468
    52   1 H        0.926     0.039     2.459     2.452
    53   1 H        0.926     0.047     2.361     2.403
    54   1 H        0.926     0.055     2.264     2.353
    55   1 H        0.926     0.068     2.102     2.267
    56   1 H        0.926     0.044     2.399     2.422
    57   1 H        0.926     0.042     2.423     2.434
    58   1 H        0.926     0.043     2.414     2.430
    59   1 H        0.926     0.044     2.392     2.418
    60   1 H        0.926     0.069     2.091     2.261
    61   1 H        0.926     0.053     2.282     2.362
    62   1 H        0.926     0.042     2.418     2.432
    63   1 H        0.926     0.039     2.462     2.454
    64   1 H        0.926     0.037     2.491     2.468
    65   1 H        0.926     0.042     2.423     2.434

molecular dipole:
                 x           y           z       tot (Debye)
 q only:       -2.007       0.028       0.165
   full:       -1.927      -0.003       0.156       4.915

 projected vibrational frequencies (cm⁻¹)
eigval :       -0.00    -0.00    -0.00    -0.00     0.00     0.00
eigval :       10.55    17.95    34.97    36.76    50.44    57.91
eigval :       62.80    70.99    72.37    83.36   103.44   116.79
eigval :      133.83   134.70   146.77   157.28   171.12   178.44
eigval :      187.03   203.35   222.08   230.34   249.95   252.62
eigval :      282.11   288.88   303.99   308.67   315.23   335.36
eigval :      341.64   349.83   361.83   369.65   373.43   383.60
eigval :      403.78   409.40   417.53   429.78   434.43   442.30
eigval :      446.20   457.17   478.09   484.85   493.90   498.75
eigval :      525.20   539.04   547.49   558.07   563.73   566.88
eigval :      575.23   584.96   594.92   598.87   605.42   610.64
eigval :      615.57   627.75   655.71   677.34   679.74   680.04
eigval :      693.42   713.29   722.67   725.52   732.30   766.97
eigval :      778.34   784.71   806.32   810.34   813.30   817.99
eigval :      824.46   827.75   857.11   868.35   884.97   885.67
eigval :      888.33   890.59   906.89   907.67   912.06   914.73
eigval :      918.46   921.56   922.96   936.60   942.01   945.09
eigval :      967.41   984.05   989.06  1010.28  1033.78  1067.09
eigval :     1073.83  1077.70  1099.89  1107.51  1138.29  1152.15
eigval :     1159.17  1160.39  1163.32  1174.04  1176.64  1182.44
eigval :     1184.56  1190.82  1200.20  1222.37  1230.11  1234.04
eigval :     1249.58  1257.73  1269.03  1273.71  1278.89  1279.99
eigval :     1284.13  1290.06  1301.36  1309.81  1319.79  1324.29
eigval :     1327.51  1345.40  1365.12  1373.07  1400.12  1410.24
eigval :     1416.32  1417.40  1432.07  1437.91  1439.45  1443.59
eigval :     1453.55  1461.31  1470.94  1481.14  1486.31  1492.96
eigval :     1495.65  1498.12  1507.63  1520.33  1523.62  1539.76
eigval :     1548.56  1572.14  1576.46  1584.72  1589.21  1589.33
eigval :     1595.60  1605.02  2373.54  2375.03  3027.99  3030.94
eigval :     3033.00  3035.95  3047.34  3055.17  3082.01  3085.01
eigval :     3087.81  3088.56  3090.17  3091.67  3095.99  3098.05
eigval :     3100.92  3104.90  3108.65  3109.13  3109.21  3113.50
eigval :     3113.97  3114.60  3123.76

   temp. (K)  partition function   enthalpy   heat capacity  entropy
                                   cal/mol     cal/K/mol   cal/K/mol   J/K/mol
 298.15  VIB  0.349E+14            19069.894    123.326    116.512
         ROT  0.616E+08              888.752      2.981     38.625
         INT  0.215E+22            19958.646    126.307    155.137
         TR   0.121E+29             1481.254      4.968     44.711
         TOT                       21439.9002   131.2748   199.8486   836.1666

       T/K    H(0)-H(T)+PV         H(T)/Eh          T*S/Eh         G(T)/Eh
   ------------------------------------------------------------------------
    298.15    0.341667E-01    0.521782E+00    0.949545E-01    0.426827E+00
   ------------------------------------------------------------------------

         :::::::::::::::::::::::::::::::::::::::::::::::::::::
         ::                  THERMODYNAMIC                  ::
         :::::::::::::::::::::::::::::::::::::::::::::::::::::
         :: total free energy        -105.140293418667 Eh   ::
         ::.................................................::
         :: total energy             -105.567120499163 Eh   ::
         :: zero point energy           0.487614949305 Eh   ::
         :: G(RRHO) w/o ZPVE           -0.060787868809 Eh   ::
         :: G(RRHO) contrib.            0.426827080496 Eh   ::
         :::::::::::::::::::::::::::::::::::::::::::::::::::::

           -------------------------------------------------
          | TOTAL ENERGY             -105.567120499163 Eh   |
          | TOTAL ENTHALPY           -105.045338894146 Eh   |
          | TOTAL FREE ENERGY        -105.140293418667 Eh   |
          | GRADIENT NORM               0.000028242365 Eh/α |
          | HOMO-LUMO GAP               1.244252418948 eV   |
           -------------------------------------------------

 * finished run on 2025/09/08 at 05:43:08.435
