   * xtb version 6.7.1 (edcfbbe) compiled by 'albert@albert-system' on 2024-07-22

   ID    Z sym.   atoms
    1    6 C      1-9, 11-14, 16-20, 22-29, 31-33, 35-42
    2    7 N      10, 15, 21, 30, 34
    3    1 H      43-65

          program call               : xtb data2507/gas/Ac-BPCN/Ac-BPCN.xyz --gfn 2 --ohess vtight --parallel 40 --molden --ceasefiles --namespace data2507/gas/Ac-BPCN/Ac-BPCN_gas_S0_preOpt
          :  Hamiltonian                  GFN2-xTB          :
 * total energy  :  -105.5399923 Eh     change       -0.3382596E-08 Eh
 * total energy  :  -105.5590788 Eh     change       -0.1908646E-01 Eh
 * total energy  :  -105.5645005 Eh     change       -0.5421746E-02 Eh
 * total energy  :  -105.5652600 Eh     change       -0.7595179E-03 Eh
 * total energy  :  -105.5656071 Eh     change       -0.3470671E-03 Eh
 * total energy  :  -105.5656729 Eh     change       -0.6580041E-04 Eh
 * total energy  :  -105.5656377 Eh     change        0.3517396E-04 Eh
 * total energy  :  -105.5656973 Eh     change       -0.5957965E-04 Eh
 * total energy  :  -105.5657000 Eh     change       -0.2681991E-05 Eh
 * total energy  :  -105.5656871 Eh     change        0.1284217E-04 Eh
 * total energy  :  -105.5657034 Eh     change       -0.3820595E-06 Eh
 * total energy  :  -105.5657039 Eh     change       -0.4598638E-06 Eh
 * total energy  :  -105.5657044 Eh     change       -0.5159099E-06 Eh
 * total energy  :  -105.5657048 Eh     change       -0.4358025E-06 Eh
 * total energy  :  -105.5657052 Eh     change       -0.3658573E-06 Eh
 * total energy  :  -105.5657056 Eh     change       -0.3541704E-06 Eh
 * total energy  :  -105.5657059 Eh     change       -0.3550088E-06 Eh
 * total energy  :  -105.5657061 Eh     change       -0.2059407E-06 Eh
 * total energy  :  -105.5657061 Eh     change       -0.1611966E-08 Eh
   *** GEOMETRY OPTIMIZATION CONVERGED AFTER 22 ITERATIONS ***

 final structure:
================
65
 xtb: 6.7.1 (edcfbbe)
C           -6.09418341150346        1.65196658173519        0.00001642332408
C           -5.54079596014018        0.21540069608896       -0.00000304467115
C           -6.69670583299580       -0.80149932915384       -0.00001122450037
C           -4.71634275366041        0.01370436779227       -1.25755513900840
C           -5.31958254006363        0.14380785205400       -2.50088347569291
C           -4.61780234477345       -0.02968374201833       -3.67956504385952
C           -3.27191663262507       -0.34289568786060       -3.62658413741697
C           -2.64629658044028       -0.47580044896254       -2.40475259868944
C           -3.35428035353760       -0.29888581998632       -1.21310763013297
N           -2.69717871762468       -0.43590852410574       -0.00002008868074
C           -1.31264061100652       -0.75015875286824       -0.00002377753840
C           -0.92223313299394       -2.11106673869902        0.00000060421336
C            0.39536363240345       -2.46040814263452       -0.00000179436658
C            1.38823063322983       -1.45547658314891       -0.00002368418871
N            2.68283280217859       -1.79554661351317       -0.00003029763698
C            3.57867310391244       -0.82703565948483       -0.00003239548990
C            4.98477788238331       -1.17131872925565       -0.00004516241880
C            5.35047794060742       -2.51663166540034       -0.00007135139519
C            6.68758194541247       -2.87839218028113       -0.00008056540794
C            7.06086321821367       -4.24256769104439       -0.00005949088216
N            7.37206652751289       -5.34553545117693       -0.00014577463048
C            7.67350619490541       -1.88319451553831       -0.00007631078815
C            7.31245946493980       -0.55720543079407       -0.00005718581939
C            5.96752307105469       -0.15924487816903       -0.00003107143605
C            5.56753119096774        1.23938302389821        0.00001767987547
C            6.49884047780788        2.28817612871860        0.00007914298267
C            6.10419204229539        3.60454280664766        0.00014021659321
C            4.74120066841876        3.92816326867285        0.00014389198912
C            4.33820368735247        5.28390013466098        0.00024608874720
N            4.02270325311634        6.38566757842082        0.00021870406632
C            3.79738560466038        2.91430036284114        0.00007714871874
C            4.19839666792481        1.57907500152258        0.00001859650133
C            3.18652026843065        0.54346243877785       -0.00001995260925
N            1.91463421854124        0.89229624206833       -0.00003223345411
C            0.99516159795392       -0.08162602378474       -0.00003830574357
C           -0.37575667624857        0.24828632609019       -0.00004353207474
C           -3.35427913901019       -0.29893889424188        1.21307418150471
C           -2.64629323480177       -0.47590690747374        2.40470993152855
C           -3.27190564833935       -0.34303498380676        3.62654877803020
C           -4.61778459803323       -0.02979690860033        3.67954709514819
C           -5.31956812304172        0.14374352468620        2.50087459447931
C           -4.71633731516368        0.01366694545183        1.25753905999509
H           -5.27201710051346        2.36517610035715        0.00002125602773
H           -6.70440249160593        1.83236752841940        0.88069098752146
H           -6.70440890065396        1.83238742537489       -0.88064959705123
H           -6.29856844462173       -1.81456049622565       -0.00002064889605
H           -7.32195870051469       -0.67917543827963        0.87989935436588
H           -7.32196159822132       -0.67915926592229       -0.87991729247301
H           -6.36929283146345        0.38891392971219       -2.55817363570821
H           -5.11874267844284        0.07901174214712       -4.62927009453456
H           -2.70527444480815       -0.48399118160084       -4.53483081742399
H           -1.59497203473515       -0.71926985191998       -2.37002343500069
H           -1.69634382037281       -2.86407401189747        0.00001950282340
H            0.71248244229260       -3.49139061392615        0.00001216000229
H            4.57037314332019       -3.26202141872660       -0.00007456533518
H            8.71559393921071       -2.16647069318823       -0.00007949511707
H            8.09762179213542        0.18112760239902       -0.00006335560521
H            7.55564336693044        2.07660203510271        0.00009122375334
H            6.83897266504086        4.39593823569044        0.00019365072412
H            2.74111807810443        3.13440125494803        0.00008324711100
H           -0.66288486218887        1.28821369171638       -0.00005628882221
H           -1.59497249840235       -0.71939054090160        2.36996745806943
H           -2.70526139560437       -0.48417273150175        4.53478755521039
H           -5.11871660532436        0.07888186225141        4.62925850190717
H           -6.36927350778156        0.38886785784667        2.55817845928662

          :  Hamiltonian                  GFN2-xTB          :
         :: gradient norm              0.000111981014 Eh/a0 ::
         :: HOMO-LUMO gap              0.656562433040 eV    ::
         :: SCC energy              -107.543291662123 Eh    ::
         :: -> dispersion             -0.092618247640 Eh    ::
         :: repulsion energy           1.977585539101 Eh    ::

    * Orbital Energies and Occupations

         #    Occupation            Energy/Eh            Energy/eV
      -------------------------------------------------------------
         1        2.0000           -0.6973326             -18.9754
       ...           ...                  ...                  ...
        86        2.0000           -0.4311525             -11.7323
        87        2.0000           -0.4301395             -11.7047
        88        2.0000           -0.4291700             -11.6783
        89        2.0000           -0.4248236             -11.5600
        90        2.0000           -0.4191390             -11.4054
        91        2.0000           -0.4154442             -11.3048
        92        2.0000           -0.4103138             -11.1652
        93        2.0000           -0.4099301             -11.1548
        94        2.0000           -0.4056652             -11.0387
        95        2.0000           -0.4001988             -10.8900
        96        2.0000           -0.3949139             -10.7462
        97        2.0000           -0.3715910             -10.1115
        98        2.0000           -0.3498967              -9.5212 (HOMO)
        99        0.0000           -0.3257685              -8.8646 (LUMO)
       100                         -0.3002396              -8.1699
       101                         -0.2917359              -7.9385
       102                         -0.2665601              -7.2535
       103                         -0.2499594              -6.8017
       104                         -0.2416186              -6.5748
       105                         -0.2304766              -6.2716
       106                         -0.2262393              -6.1563
       107                         -0.2213113              -6.0222
       108                         -0.2203112              -5.9950
       109                         -0.2160021              -5.8777
       ...                                ...                  ...
       191                          1.1631764              31.6516
      -------------------------------------------------------------
                  HL-Gap            0.0241282 Eh            0.6566 eV

     #   Z          covCN         q      C6AA      α(0)
     1   6 C        3.761    -0.103    22.519     6.765
     2   6 C        3.909     0.021    20.156     6.381
     3   6 C        3.761    -0.103    22.522     6.765
     4   6 C        2.979    -0.013    28.338     8.732
     5   6 C        2.928    -0.035    28.883     8.814
     6   6 C        2.917    -0.044    29.094     8.845
     7   6 C        2.920    -0.032    28.805     8.801
     8   6 C        2.924    -0.059    29.459     8.901
     9   6 C        2.929     0.058    26.697     8.474
    10   7 N        2.756    -0.073    22.662     7.070
    11   6 C        2.925     0.079    26.230     8.399
    12   6 C        2.918    -0.032    28.809     8.802
    13   6 C        2.915    -0.037    28.923     8.819
    14   6 C        2.968     0.083    26.147     8.387
    15   7 N        1.849    -0.232    26.926     7.691
    16   6 C        2.963     0.083    26.138     8.386
    17   6 C        2.987     0.004    27.930     8.669
    18   6 C        2.931    -0.018    28.461     8.749
    19   6 C        2.971     0.023    27.478     8.598
    20   6 C        1.911     0.113    28.305     8.592
    21   7 N        0.911    -0.222    25.854     7.354
    22   6 C        2.923    -0.019    28.490     8.753
    23   6 C        2.921    -0.030    28.746     8.792
    24   6 C        2.975     0.012    27.737     8.639
    25   6 C        2.975     0.012    27.735     8.639
    26   6 C        2.921    -0.030    28.746     8.792
    27   6 C        2.923    -0.019    28.488     8.753
    28   6 C        2.971     0.024    27.474     8.598
    29   6 C        1.911     0.113    28.304     8.592
    30   7 N        0.911    -0.222    25.845     7.353
    31   6 C        2.931    -0.018    28.456     8.748
    32   6 C        2.987     0.004    27.929     8.669
    33   6 C        2.963     0.084    26.119     8.383
    34   7 N        1.849    -0.232    26.935     7.692
    35   6 C        2.968     0.085    26.105     8.381
    36   6 C        2.920    -0.048    29.198     8.861
    37   6 C        2.929     0.058    26.697     8.474
    38   6 C        2.924    -0.059    29.459     8.901
    39   6 C        2.920    -0.032    28.805     8.801
    40   6 C        2.917    -0.044    29.094     8.845
    41   6 C        2.928    -0.035    28.883     8.814
    42   6 C        2.979    -0.013    28.338     8.732
    43   1 H        0.925     0.032     2.557     2.500
    44   1 H        0.925     0.040     2.451     2.448
    45   1 H        0.925     0.040     2.451     2.448
    46   1 H        0.925     0.031     2.571     2.507
    47   1 H        0.925     0.040     2.451     2.448
    48   1 H        0.925     0.040     2.451     2.448
    49   1 H        0.926     0.031     2.567     2.505
    50   1 H        0.926     0.028     2.621     2.532
    51   1 H        0.926     0.028     2.618     2.530
    52   1 H        0.926     0.018     2.757     2.597
    53   1 H        0.926     0.055     2.256     2.349
    54   1 H        0.926     0.063     2.164     2.301
    55   1 H        0.926     0.072     2.069     2.249
    56   1 H        0.926     0.048     2.340     2.392
    57   1 H        0.926     0.046     2.372     2.409
    58   1 H        0.926     0.046     2.372     2.408
    59   1 H        0.926     0.049     2.338     2.391
    60   1 H        0.926     0.072     2.063     2.246
    61   1 H        0.926     0.066     2.134     2.284
    62   1 H        0.926     0.018     2.757     2.597
    63   1 H        0.926     0.028     2.618     2.530
    64   1 H        0.926     0.028     2.621     2.532
    65   1 H        0.926     0.031     2.567     2.505

molecular dipole:
                 x           y           z       tot (Debye)
 q only:       -0.065      -0.062       0.000
   full:        0.038      -0.080       0.000       0.226

 projected vibrational frequencies (cm⁻¹)
eigval :       -0.00    -0.00    -0.00    -0.00     0.00     0.00
eigval :      -17.82    13.71    16.95    33.33    35.23    38.74
eigval :       59.60    67.63    75.10    82.18    96.15   100.61
eigval :      108.91   128.47   132.41   138.85   143.61   171.84
eigval :      190.64   200.40   211.55   219.34   224.63   238.13
eigval :      262.14   284.66   285.98   303.07   304.06   330.79
eigval :      332.38   344.80   348.82   371.98   376.02   379.35
eigval :      390.35   393.53   408.97   428.72   438.16   440.83
eigval :      442.72   447.95   478.53   484.43   484.61   515.26
eigval :      524.21   534.39   539.93   544.65   547.45   568.74
eigval :      581.91   585.04   588.34   601.63   606.19   616.94
eigval :      627.33   642.40   655.30   670.30   680.18   681.31
eigval :      688.20   692.72   713.07   727.49   737.13   773.04
eigval :      775.78   776.98   808.29   813.15   819.30   822.41
eigval :      825.63   827.81   863.77   864.26   868.85   876.99
eigval :      885.32   888.18   909.09   912.71   913.54   915.97
eigval :      916.55   919.26   920.97   921.00   922.13   938.76
eigval :      957.36   983.91   986.31  1014.41  1032.95  1065.29
eigval :     1077.36  1081.23  1113.01  1119.09  1141.04  1141.06
eigval :     1154.91  1159.85  1160.92  1162.57  1175.18  1183.43
eigval :     1187.43  1187.53  1198.72  1210.95  1228.58  1239.99
eigval :     1246.26  1249.60  1268.90  1278.01  1279.49  1286.11
eigval :     1294.47  1297.01  1300.19  1304.76  1325.76  1334.64
eigval :     1339.18  1345.48  1351.19  1367.25  1402.94  1403.36
eigval :     1413.33  1419.26  1421.29  1436.20  1438.04  1444.24
eigval :     1460.13  1470.57  1482.11  1485.43  1489.78  1490.59
eigval :     1496.66  1500.47  1505.31  1507.73  1521.74  1540.50
eigval :     1548.87  1572.11  1576.62  1589.36  1591.39  1593.38
eigval :     1599.50  1604.45  2375.65  2377.02  3026.94  3029.30
eigval :     3040.06  3043.04  3048.74  3053.12  3078.55  3078.67
eigval :     3083.17  3083.29  3090.76  3091.05  3091.05  3091.72
eigval :     3092.42  3098.53  3099.31  3105.43  3106.12  3107.70
eigval :     3110.07  3110.50  3117.18

   temp. (K)  partition function   enthalpy   heat capacity  entropy
                                   cal/mol     cal/K/mol   cal/K/mol   J/K/mol
 298.15  VIB  0.329E+15            19453.505    122.898    119.797
         ROT  0.631E+08              888.752      2.981     38.674
         INT  0.208E+23            20342.257    125.879    158.471
         TR   0.121E+29             1481.254      4.968     44.711
         TOT                       21823.5110   130.8474   203.1826   850.1159

       T/K    H(0)-H(T)+PV         H(T)/Eh          T*S/Eh         G(T)/Eh
   ------------------------------------------------------------------------
    298.15    0.347780E-01    0.521223E+00    0.965386E-01    0.424684E+00
   ------------------------------------------------------------------------

         :::::::::::::::::::::::::::::::::::::::::::::::::::::
         ::                  THERMODYNAMIC                  ::
         :::::::::::::::::::::::::::::::::::::::::::::::::::::
         :: total free energy        -105.141021702989 Eh   ::
         ::.................................................::
         :: total energy             -105.565706123021 Eh   ::
         :: zero point energy           0.486445041953 Eh   ::
         :: G(RRHO) w/o ZPVE           -0.061760621921 Eh   ::
         :: G(RRHO) contrib.            0.424684420031 Eh   ::
         :::::::::::::::::::::::::::::::::::::::::::::::::::::

           -------------------------------------------------
          | TOTAL ENERGY             -105.565706123021 Eh   |
          | TOTAL ENTHALPY           -105.044483102648 Eh   |
          | TOTAL FREE ENERGY        -105.141021702989 Eh   |
          | GRADIENT NORM               0.000112042508 Eh/α |
          | HOMO-LUMO GAP               0.656562545601 eV   |
           -------------------------------------------------

 * finished run on 2025/09/08 at 05:39:58.784
