   * xtb version 6.7.1 (edcfbbe) compiled by 'albert@albert-system' on 2024-07-22

   ID    Z sym.   atoms
    1    6 C      1-16, 18-25, 27-46
    2    7 N      17
    3   16 S      26
    4    1 H      47-73

          program call               : xtb data2507/toluene/ATDBT/ATDBT_toluene_T1_crest.xyz --gfn 2 --uhf 2 --gbsa toluene --ohess vtight --parallel 40 --molden --ceasefiles --namespace data2507/toluene/ATDBT/ATDBT_toluene_T1_finalOpt
      * Solvation model:               GBSA
        Solvent                        toluene
        Solvent mass                       9.2140E+01 g/mol
          :  Hamiltonian                  GFN2-xTB          :
 * total energy  :  -114.1972762 Eh     change       -0.3786624E-08 Eh
 * total energy  :  -114.1973058 Eh     change       -0.2958597E-04 Eh
 * total energy  :  -114.1973211 Eh     change       -0.1534714E-04 Eh
 * total energy  :  -114.1973258 Eh     change       -0.4674490E-05 Eh
 * total energy  :  -114.1973279 Eh     change       -0.2097531E-05 Eh
 * total energy  :  -114.1973293 Eh     change       -0.1425606E-05 Eh
 * total energy  :  -114.1973312 Eh     change       -0.1858454E-05 Eh
 * total energy  :  -114.1973329 Eh     change       -0.1747106E-05 Eh
 * total energy  :  -114.1973343 Eh     change       -0.1339542E-05 Eh
 * total energy  :  -114.1973352 Eh     change       -0.9265507E-06 Eh
 * total energy  :  -114.1973372 Eh     change       -0.3668522E-06 Eh
 * total energy  :  -114.1973375 Eh     change       -0.3007605E-06 Eh
 * total energy  :  -114.1973379 Eh     change       -0.3285213E-06 Eh
 * total energy  :  -114.1973382 Eh     change       -0.3022491E-06 Eh
 * total energy  :  -114.1973384 Eh     change       -0.2561284E-06 Eh
 * total energy  :  -114.1973387 Eh     change       -0.2793918E-06 Eh
 * total energy  :  -114.1973390 Eh     change       -0.2863076E-06 Eh
 * total energy  :  -114.1973392 Eh     change       -0.2172684E-06 Eh
 * total energy  :  -114.1973392 Eh     change       -0.3266180E-08 Eh
   *** GEOMETRY OPTIMIZATION CONVERGED AFTER 22 ITERATIONS ***

 final structure:
================
73
 xtb: 6.7.1 (edcfbbe)
C          -10.20343793054339       -1.17116505559002       -0.02178529210986
C           -9.62532650121095       -0.42679012702194       -1.03845970463303
C           -8.26607840149767       -0.17960522801036       -1.03521993122255
C           -7.45036754584383       -0.68374276567704       -0.01817051217223
C           -6.00985103918534       -0.42711824965471       -0.01412760370273
C           -5.09448551987937       -1.52161576282342       -0.01540363204383
C           -5.53428676226498       -2.84718588226876       -0.09692226513690
C           -4.64645648140195       -3.91634419743453       -0.00131689775573
C           -3.30305638387379       -3.67493706252221        0.19054091997488
C           -2.83168154057112       -2.36332765404551        0.21823972335474
C           -3.69035446714269       -1.27271813771243        0.05564139320876
C           -3.20416900081702        0.07199104316265        0.00380310277821
C           -1.77259923819339        0.32762426884943        0.01424983384307
C           -1.19985228410790        1.20618832430237        0.94505687496956
C            0.15648128889826        1.44351416164167        0.96274711798865
C            0.99125873841243        0.82737754504465        0.03015642710545
N            2.36926389481372        1.08074939789122        0.03519085508513
C            2.95872014092864        2.33011357718564        0.05773192804283
C            2.37186492959744        3.58786176674002        0.04189941490188
C            3.20634323944991        4.68942477725137        0.04256736612713
C            4.59360558954079        4.55292646684495        0.04899386567789
C            5.18536233973784        3.30550939276715        0.03850900918446
C            4.36548899952289        2.18393192256415        0.03805702087285
C            4.62290822456517        0.77451682073471        0.00621662778800
C            5.76938218875509       -0.00865902879558       -0.00856414169320
S            7.42461723821381        0.55184729251434       -0.01834239238362
C            8.00687950846959       -1.10138030751691       -0.03657756813109
C            9.33550549634748       -1.48987975548837       -0.05395049611807
C            9.62578505254679       -2.84127276434521       -0.06714172152086
C            8.60357026121210       -3.78587906166736       -0.06289173504528
C            7.28010667144248       -3.39544104061637       -0.04564133940872
C            6.96050290141663       -2.03965412951149       -0.03188914908240
C            5.66646558502461       -1.40875817850997       -0.01372346402426
C            4.40535187317183       -2.01618918339470        0.01346967607942
C            3.25383994534192       -1.26201566706833        0.02635000541498
C            3.36459247763444        0.12807617926891        0.00332556864686
C            0.43540415492592       -0.04116614426400       -0.90957219466930
C           -0.91814239268781       -0.29426915137752       -0.90733823297268
C           -4.12368165393916        1.16660485357213       -0.05780546026852
C           -3.69150446023945        2.48700719181978       -0.20941677868417
C           -4.58614740510868        3.55575302158646       -0.18649714706151
C           -5.93276007435689        3.31866199789385       -0.01273404228623
C           -6.39887156626245        2.00856638520342        0.06958433765319
C           -5.52831170051537        0.91601446275072       -0.00524661123120
C           -8.04586975245689       -1.43853209767153        0.99654102643110
C           -9.40731995651751       -1.67317900279956        0.99612385637162
H          -11.26710590458668       -1.35911620809560       -0.02292431718680
H          -10.23837870899469       -0.03838556612006       -1.83938038985695
H           -7.81620182913451        0.38646502268622       -1.83860527886034
H           -6.58526597526243       -3.04855364001653       -0.23761043601383
H           -5.02098919082198       -4.92766462303679       -0.06154782855204
H           -2.60802818198586       -4.49338354639873        0.30795050699762
H           -1.77826484979658       -2.19168012016124        0.37753004840089
H           -1.83190419565532        1.66655815971676        1.69017946840319
H            0.58488695921030        2.09073003593492        1.71360893570235
H            1.29938560498155        3.70580464659841        0.01850110333860
H            2.77347668495564        5.67904881879773        0.03395569913978
H            5.21147476246060        5.43868799569264        0.05213452494712
H            6.25939664727035        3.19549776365540        0.02581420561221
H           10.12076425398896       -0.74918319644398       -0.05719667606474
H           10.65579244705896       -3.16507719691654       -0.08089707684229
H            8.85137532830301       -4.83711695583534       -0.07350396648850
H            6.49146853752462       -4.13270516322450       -0.04287988383631
H            4.34213068001749       -3.09328419470881        0.02942646943356
H            2.28659114331395       -1.73788384279762        0.06582080945823
H            1.07152147056251       -0.49466128766665       -1.65533457813884
H           -1.34042413483491       -0.94515181392707       -1.65879148357136
H           -2.64158584575551        2.68959894990494       -0.35460248417151
H           -4.21428595861794        4.56418615378535       -0.29321364873403
H           -6.63364969816514        4.13855987485242        0.04346155845794
H           -7.45659453792826        1.83491516250513        0.19583415635451
H           -7.43082735690205       -1.81599743665750        1.80126204025947
H           -9.85163413606019       -2.24872676132336        1.79579588426830

          :  Hamiltonian                  GFN2-xTB          :
         :: gradient norm              0.000037997396 Eh/a0 ::
         :: HOMO-LUMO gap              0.902809144765 eV    ::
         :: SCC energy              -116.347153430534 Eh    ::
         :: -> dispersion             -0.108318233610 Eh    ::
         :: -> Gsolv                  -0.046290319797 Eh    ::
         :: repulsion energy           2.149814224181 Eh    ::

    * Orbital Energies and Occupations

         #    Occupation            Energy/Eh            Energy/eV
      -------------------------------------------------------------
         1        2.0000           -0.7245331             -19.7155
       ...           ...                  ...                  ...
        96        2.0000           -0.4150031             -11.2928
        97        2.0000           -0.4073644             -11.0849
        98        2.0000           -0.4052270             -11.0268
        99        2.0000           -0.4047574             -11.0140
       100        2.0000           -0.4002469             -10.8913
       101        2.0000           -0.4001608             -10.8889
       102        2.0000           -0.3965693             -10.7912
       103        2.0000           -0.3959810             -10.7752
       104        2.0000           -0.3899575             -10.6113
       105        2.0000           -0.3689062             -10.0384
       106        1.9998           -0.3651045              -9.9350
       107        1.0002           -0.3486191              -9.4864
       108        1.0000           -0.2880275              -7.8376 (HOMO)
       109                         -0.2548498              -6.9348 (LUMO)
       110                         -0.2494268              -6.7872
       111                         -0.2354234              -6.4062
       112                         -0.2313845              -6.2963
       113                         -0.2288719              -6.2279
       114                         -0.2267350              -6.1698
       115                         -0.2257514              -6.1430
       116                         -0.2235706              -6.0837
       117                         -0.2206580              -6.0044
       118                         -0.2159550              -5.8764
       119                         -0.2053162              -5.5869
       ...                                ...                  ...
       216                          0.7484640              20.3667
      -------------------------------------------------------------
                  HL-Gap            0.0331777 Eh            0.9028 eV

     #   Z          covCN         q      C6AA      α(0)
     1   6 C        2.919    -0.033    28.817     8.803
     2   6 C        2.917    -0.031    28.767     8.795
     3   6 C        2.924    -0.032    28.810     8.802
     4   6 C        2.974     0.015    27.667     8.628
     5   6 C        2.973    -0.012    28.313     8.728
     6   6 C        2.977     0.008    27.839     8.655
     7   6 C        2.921    -0.039    28.974     8.827
     8   6 C        2.913    -0.032    28.810     8.802
     9   6 C        2.914    -0.033    28.825     8.804
    10   6 C        2.921    -0.040    28.997     8.831
    11   6 C        2.976     0.008    27.845     8.656
    12   6 C        2.972    -0.013    28.329     8.731
    13   6 C        2.972     0.015    27.684     8.631
    14   6 C        2.923    -0.031    28.783     8.798
    15   6 C        2.918    -0.043    29.061     8.840
    16   6 C        2.912     0.058    26.689     8.471
    17   7 N        2.804    -0.034    21.900     6.950
    18   6 C        3.078     0.047    26.873     8.499
    19   6 C        2.910    -0.049    29.219     8.864
    20   6 C        2.924    -0.034    28.835     8.806
    21   6 C        2.920    -0.039    28.974     8.827
    22   6 C        2.912    -0.033    28.815     8.802
    23   6 C        3.066    -0.015    28.308     8.724
    24   6 C        3.084    -0.027    28.587     8.765
    25   6 C        2.995     0.035    27.213     8.557
    26  16 S        2.207    -0.110   145.669    20.314
    27   6 C        3.003     0.037    27.169     8.550
    28   6 C        2.935    -0.040    28.993     8.831
    29   6 C        2.923    -0.033    28.820     8.804
    30   6 C        2.918    -0.036    28.887     8.814
    31   6 C        2.917    -0.035    28.870     8.811
    32   6 C        3.105    -0.003    27.971     8.666
    33   6 C        3.101    -0.015    28.267     8.712
    34   6 C        2.920    -0.038    28.945     8.823
    35   6 C        2.908    -0.055    29.363     8.885
    36   6 C        3.074     0.046    26.894     8.503
    37   6 C        2.918    -0.043    29.068     8.841
    38   6 C        2.923    -0.031    28.785     8.798
    39   6 C        2.976     0.008    27.845     8.656
    40   6 C        2.921    -0.040    28.994     8.830
    41   6 C        2.914    -0.033    28.821     8.803
    42   6 C        2.913    -0.032    28.808     8.801
    43   6 C        2.921    -0.039    28.973     8.827
    44   6 C        2.977     0.008    27.839     8.655
    45   6 C        2.924    -0.032    28.809     8.802
    46   6 C        2.917    -0.031    28.767     8.795
    47   1 H        0.926     0.030     2.582     2.513
    48   1 H        0.926     0.031     2.569     2.506
    49   1 H        0.926     0.031     2.565     2.505
    50   1 H        0.926     0.032     2.563     2.504
    51   1 H        0.926     0.028     2.608     2.525
    52   1 H        0.926     0.029     2.604     2.523
    53   1 H        0.926     0.033     2.551     2.498
    54   1 H        0.926     0.043     2.414     2.430
    55   1 H        0.926     0.043     2.406     2.425
    56   1 H        0.926     0.035     2.520     2.482
    57   1 H        0.926     0.034     2.526     2.485
    58   1 H        0.926     0.032     2.558     2.501
    59   1 H        0.926     0.036     2.500     2.473
    60   1 H        0.926     0.038     2.482     2.464
    61   1 H        0.926     0.037     2.482     2.464
    62   1 H        0.926     0.036     2.500     2.473
    63   1 H        0.926     0.038     2.481     2.463
    64   1 H        0.926     0.040     2.443     2.444
    65   1 H        0.926     0.039     2.463     2.454
    66   1 H        0.926     0.042     2.417     2.431
    67   1 H        0.926     0.042     2.417     2.431
    68   1 H        0.926     0.033     2.547     2.495
    69   1 H        0.926     0.029     2.599     2.521
    70   1 H        0.926     0.029     2.606     2.524
    71   1 H        0.926     0.032     2.562     2.503
    72   1 H        0.926     0.031     2.567     2.505
    73   1 H        0.926     0.031     2.569     2.507

molecular dipole:
                 x           y           z       tot (Debye)
 q only:       -0.689      -0.204       0.007
   full:       -0.796      -0.421       0.006       2.289

 projected vibrational frequencies (cm⁻¹)
eigval :       -0.00    -0.00    -0.00    -0.00     0.00     0.00
eigval :       10.71    13.68    14.69    25.40    46.26    47.02
eigval :       52.53    58.65    73.24    76.28    82.25    90.12
eigval :      101.77   117.16   124.96   133.50   143.40   173.70
eigval :      193.98   196.00   210.77   215.28   227.38   234.16
eigval :      248.57   249.25   266.18   281.99   318.94   343.17
eigval :      351.63   365.76   370.70   383.12   386.08   389.71
eigval :      393.58   402.43   406.49   411.01   419.94   423.72
eigval :      441.69   460.05   469.56   469.70   480.79   488.69
eigval :      493.77   504.51   509.24   543.21   564.40   566.11
eigval :      576.61   578.80   583.31   587.16   593.17   596.60
eigval :      604.60   616.35   621.48   647.81   660.21   662.53
eigval :      671.31   672.36   679.95   686.56   692.12   701.27
eigval :      704.42   715.19   727.56   745.17   754.89   759.09
eigval :      773.11   773.70   776.50   816.88   824.25   836.52
eigval :      840.93   844.88   867.46   869.72   874.39   880.28
eigval :      886.32   889.92   892.20   897.86   899.43   902.22
eigval :      903.97   904.84   905.68   906.11   908.49   920.83
eigval :      923.00   923.32   930.24   930.75   933.12   938.47
eigval :      944.52   966.17   990.63  1001.81  1024.88  1046.72
eigval :     1072.20  1075.87  1081.32  1100.80  1103.40  1112.68
eigval :     1114.53  1118.36  1124.60  1127.63  1132.53  1147.23
eigval :     1158.86  1175.99  1177.49  1178.43  1181.28  1182.33
eigval :     1183.78  1186.48  1195.65  1202.42  1205.74  1229.29
eigval :     1229.81  1241.53  1253.80  1262.24  1265.12  1274.38
eigval :     1282.34  1291.44  1298.27  1300.40  1309.91  1311.66
eigval :     1312.74  1335.75  1337.85  1352.10  1357.59  1362.18
eigval :     1370.84  1374.95  1378.97  1398.71  1408.62  1409.40
eigval :     1411.46  1420.41  1422.38  1423.59  1446.88  1458.62
eigval :     1460.33  1472.27  1480.63  1480.97  1485.62  1522.14
eigval :     1523.56  1528.18  1551.74  1554.19  1560.22  1566.90
eigval :     1569.47  1571.16  1582.86  1582.94  1589.12  1605.01
eigval :     3065.58  3066.37  3071.49  3071.94  3075.28  3075.46
eigval :     3075.91  3077.92  3078.06  3079.48  3080.59  3081.01
eigval :     3081.79  3082.31  3087.70  3088.65  3089.39  3089.87
eigval :     3090.52  3091.73  3092.71  3093.12  3095.53  3095.80
eigval :     3096.65  3097.10  3102.60

   temp. (K)  partition function   enthalpy   heat capacity  entropy
                                   cal/mol     cal/K/mol   cal/K/mol   J/K/mol
 298.15  VIB  0.177E+16            20442.494    133.810    125.731
         ROT  0.918E+08              888.752      2.981     39.417
         INT  0.162E+24            21331.246    136.791    165.147
         TR   0.143E+29             1481.254      4.968     45.047
         TOT                       22812.5002   141.7593   210.1944   879.4535

       T/K    H(0)-H(T)+PV         H(T)/Eh          T*S/Eh         G(T)/Eh
   ------------------------------------------------------------------------
    298.15    0.363540E-01    0.587876E+00    0.998702E-01    0.488006E+00
   ------------------------------------------------------------------------

         :::::::::::::::::::::::::::::::::::::::::::::::::::::
         ::                  THERMODYNAMIC                  ::
         :::::::::::::::::::::::::::::::::::::::::::::::::::::
         :: total free energy        -113.709333037512 Eh   ::
         ::.................................................::
         :: total energy             -114.197339205432 Eh   ::
         :: zero point energy           0.551522292922 Eh   ::
         :: G(RRHO) w/o ZPVE           -0.063516125003 Eh   ::
         :: G(RRHO) contrib.            0.488006167920 Eh   ::
         :::::::::::::::::::::::::::::::::::::::::::::::::::::

           -------------------------------------------------
          | TOTAL ENERGY             -114.197339205432 Eh   |
          | TOTAL ENTHALPY           -113.609462879394 Eh   |
          | TOTAL FREE ENERGY        -113.709333037512 Eh   |
          | GRADIENT NORM               0.000037999515 Eh/α |
          | HOMO-LUMO GAP               0.902810237886 eV   |
           -------------------------------------------------

 * finished run on 2025/08/29 at 11:38:26.525
