   * xtb version 6.7.1 (edcfbbe) compiled by 'albert@albert-system' on 2024-07-22

   ID    Z sym.   atoms
    1    6 C      1-16, 18-25, 27-46
    2    7 N      17
    3   16 S      26
    4    1 H      47-73

          program call               : xtb data2507/toluene/ATDBT/ATDBT_toluene_S0_finalOpt.xtbopt.xyz --gfn 2 --uhf 2 --gbsa toluene --ohess vtight --parallel 40 --molden --ceasefiles --namespace data2507/toluene/ATDBT/ATDBT_toluene_T1_preOpt
      * Solvation model:               GBSA
        Solvent                        toluene
        Solvent mass                       9.2140E+01 g/mol
          :  Hamiltonian                  GFN2-xTB          :
 * total energy  :  -114.1879108 Eh     change       -0.6670476E-08 Eh
 * total energy  :  -114.1938399 Eh     change       -0.5929050E-02 Eh
 * total energy  :  -114.1952528 Eh     change       -0.1412934E-02 Eh
 * total energy  :  -114.1954017 Eh     change       -0.1489441E-03 Eh
 * total energy  :  -114.1955982 Eh     change       -0.1964910E-03 Eh
 * total energy  :  -114.1957390 Eh     change       -0.1407667E-03 Eh
 * total energy  :  -114.1959288 Eh     change       -0.1897712E-03 Eh
 * total energy  :  -114.1961109 Eh     change       -0.1821463E-03 Eh
 * total energy  :  -114.1962400 Eh     change       -0.1290902E-03 Eh
 * total energy  :  -114.1963080 Eh     change       -0.6805198E-04 Eh
 * total energy  :  -114.1973656 Eh     change       -0.4149226E-06 Eh
 * total energy  :  -114.1973659 Eh     change       -0.3047585E-06 Eh
 * total energy  :  -114.1973662 Eh     change       -0.2573114E-06 Eh
 * total energy  :  -114.1973664 Eh     change       -0.1967715E-06 Eh
 * total energy  :  -114.1973665 Eh     change       -0.1786630E-06 Eh
 * total energy  :  -114.1973667 Eh     change       -0.1371910E-06 Eh
 * total energy  :  -114.1973668 Eh     change       -0.1428314E-06 Eh
 * total energy  :  -114.1973669 Eh     change       -0.1367431E-06 Eh
 * total energy  :  -114.1973669 Eh     change       -0.1360291E-08 Eh
   *** GEOMETRY OPTIMIZATION CONVERGED AFTER 68 ITERATIONS ***

 final structure:
================
73
 xtb: 6.7.1 (edcfbbe)
C          -10.21124772224983       -1.13545886320509       -0.00342995508827
C           -9.62429971580296       -0.42082935309617       -1.03629185371844
C           -8.26334157138452       -0.18334914388287       -1.03429573434687
C           -7.45469127147465       -0.66861284496961       -0.00252959723162
C           -6.01277467232842       -0.42011282843294        0.00159709805555
C           -5.10344153177738       -1.51910377065204        0.03129488607990
C           -5.55019974342465       -2.84378370283268       -0.02141964889414
C           -4.66875419941964       -3.91509182012293        0.10415462897116
C           -3.32519971122368       -3.67631057860643        0.29845577593013
C           -2.84675399738291       -2.36693979424286        0.29799990497170
C           -3.69835134132419       -1.27605750441457        0.10353199921806
C           -3.20431279559562        0.06432266920405        0.01981729143838
C           -1.77172880417856        0.31250645267280        0.02565924839712
C           -1.19555908309187        1.21782092859593        0.92855741569513
C            0.16098107086290        1.45436350501411        0.93547422223815
C            0.99300827066645        0.80762368945673        0.02132915295678
N            2.37030539323899        1.06523431037256        0.01039215430037
C            2.95377894290584        2.31705661658940       -0.02435048475816
C            2.36030072241778        3.57027989441072       -0.08500461274884
C            3.18922685019275        4.67481299980376       -0.13672766103755
C            4.57716910878385        4.54508785531837       -0.13776163619891
C            5.17516200855536        3.30106972719625       -0.10365327184113
C            4.36096103767772        2.17655622717676       -0.05147074384503
C            4.62482819192498        0.76816112922683       -0.02872074324567
C            5.77471406667002       -0.01004541881052       -0.02549756334888
S            7.42692080501123        0.55681754493605       -0.07879840206600
C            8.01674548279390       -1.09336842062164       -0.04112447366505
C            9.34684380972628       -1.47654879117234       -0.06337157839469
C            9.64344838562966       -2.82617005264246       -0.02818632870970
C            8.62602698579007       -3.77422780537001        0.02929276515580
C            7.30107120266228       -3.38908300296350        0.05114865158257
C            6.97508278882320       -2.03519782022720        0.01597424875063
C            5.67833369204500       -1.40966195004787        0.02627387525896
C            4.42042892707698       -2.02106142137489        0.09095001400314
C            3.26546869383074       -1.27204993284099        0.08550801136943
C            3.36966759345041        0.11654232789387        0.00702380488509
C            0.43477552615013       -0.09226652780625       -0.88697228860922
C           -0.91931913822603       -0.34195775528503       -0.87521269919663
C           -4.11787901120485        1.16206125097940       -0.07279724835127
C           -3.67863693673288        2.47586360838451       -0.25739099390692
C           -4.56766128400412        3.54948254068769       -0.26464562875216
C           -5.91595483779528        3.32396919263880       -0.08857940113050
C           -6.38916683360809        2.01875886863434        0.02467705753045
C           -5.52404152520435        0.92024124580313       -0.01972775370445
C           -8.05876917512059       -1.39536700231909        1.02747162229363
C           -9.42197308163026       -1.61959819036851        1.02837815057838
H          -11.27638723312897       -1.31485324524775       -0.00322902356408
H          -10.23204176837963       -0.04730464697492       -1.84825336816798
H           -7.80663064097917        0.36027963721568       -1.84922424300442
H           -6.60147712189236       -3.04264572550374       -0.16349745516127
H           -5.04838755513749       -4.92556969628548        0.06528731568100
H           -2.63544791864629       -4.49551405434987        0.43936009818637
H           -1.79333645590728       -2.19728206258833        0.45930232467993
H           -1.82555402268529        1.70175876695193        1.66037096513231
H            0.59176592784391        2.12568127932673        1.66352869777953
H            1.28702329634326        3.68182284573979       -0.10287112315354
H            2.75137778532313        5.66127524562933       -0.18104978421329
H            5.19057086405079        5.43314614577342       -0.17566132205077
H            6.24960964839128        3.19575614940671       -0.12095503237235
H           10.12831479218519       -0.73318102871717       -0.10769632440972
H           10.67468741048534       -3.14586995134757       -0.04521902877595
H            8.87880736616939       -4.82399027441358        0.05605727313958
H            6.51613101426043       -4.12899527335518        0.09494263205505
H            4.36271608573867       -3.09698912293814        0.14967711975264
H            2.30056229416619       -1.74984731025883        0.15200761603780
H            1.06914119115674       -0.57269752182459       -1.61716626228910
H           -1.34415365445807       -1.01539552608412       -1.60507301448188
H           -2.62743553603937        2.66948220418458       -0.40516154163781
H           -4.19012610759786        4.55282881538029       -0.39641273401425
H           -6.61274258563520        4.14858157285686       -0.05530057180337
H           -7.44825694372647        1.85387466614920        0.15120628853005
H           -7.44880736802069       -1.75858719181089        1.84256543886834
H           -9.87311978803744       -2.17277151619329        1.83991581998525

          :  Hamiltonian                  GFN2-xTB          :
         :: gradient norm              0.000037790654 Eh/a0 ::
         :: HOMO-LUMO gap              0.905232967334 eV    ::
         :: SCC energy              -116.347161108648 Eh    ::
         :: -> dispersion             -0.108322189414 Eh    ::
         :: -> Gsolv                  -0.046326718603 Eh    ::
         :: repulsion energy           2.149794159333 Eh    ::

    * Orbital Energies and Occupations

         #    Occupation            Energy/Eh            Energy/eV
      -------------------------------------------------------------
         1        2.0000           -0.7245244             -19.7153
       ...           ...                  ...                  ...
        96        2.0000           -0.4150198             -11.2933
        97        2.0000           -0.4073768             -11.0853
        98        2.0000           -0.4051876             -11.0257
        99        2.0000           -0.4047727             -11.0144
       100        2.0000           -0.4002463             -10.8913
       101        2.0000           -0.4001589             -10.8889
       102        2.0000           -0.3965436             -10.7905
       103        2.0000           -0.3959723             -10.7750
       104        2.0000           -0.3899586             -10.6113
       105        2.0000           -0.3688902             -10.0380
       106        1.9998           -0.3651095              -9.9351
       107        1.0002           -0.3486051              -9.4860
       108        1.0000           -0.2880804              -7.8391 (HOMO)
       109                         -0.2548137              -6.9338 (LUMO)
       110                         -0.2494096              -6.7868
       111                         -0.2354277              -6.4063
       112                         -0.2313778              -6.2961
       113                         -0.2288640              -6.2277
       114                         -0.2267641              -6.1706
       115                         -0.2257567              -6.1432
       116                         -0.2235747              -6.0838
       117                         -0.2206558              -6.0044
       118                         -0.2159609              -5.8766
       119                         -0.2053095              -5.5868
       ...                                ...                  ...
       216                          0.7485248              20.3684
      -------------------------------------------------------------
                  HL-Gap            0.0332667 Eh            0.9052 eV

     #   Z          covCN         q      C6AA      α(0)
     1   6 C        2.919    -0.033    28.817     8.803
     2   6 C        2.917    -0.031    28.767     8.795
     3   6 C        2.924    -0.032    28.810     8.802
     4   6 C        2.974     0.015    27.667     8.628
     5   6 C        2.973    -0.012    28.314     8.728
     6   6 C        2.977     0.008    27.839     8.655
     7   6 C        2.921    -0.039    28.973     8.827
     8   6 C        2.913    -0.032    28.810     8.802
     9   6 C        2.914    -0.033    28.825     8.804
    10   6 C        2.921    -0.040    28.997     8.831
    11   6 C        2.976     0.008    27.845     8.656
    12   6 C        2.972    -0.013    28.329     8.731
    13   6 C        2.972     0.015    27.685     8.631
    14   6 C        2.923    -0.031    28.784     8.798
    15   6 C        2.918    -0.043    29.059     8.840
    16   6 C        2.912     0.058    26.690     8.472
    17   7 N        2.804    -0.034    21.901     6.951
    18   6 C        3.079     0.047    26.872     8.499
    19   6 C        2.910    -0.049    29.219     8.864
    20   6 C        2.924    -0.034    28.835     8.806
    21   6 C        2.920    -0.039    28.975     8.827
    22   6 C        2.912    -0.033    28.815     8.802
    23   6 C        3.066    -0.015    28.308     8.725
    24   6 C        3.084    -0.027    28.588     8.765
    25   6 C        2.995     0.035    27.213     8.557
    26  16 S        2.207    -0.110   145.670    20.314
    27   6 C        3.003     0.037    27.169     8.550
    28   6 C        2.935    -0.040    28.993     8.831
    29   6 C        2.923    -0.033    28.821     8.804
    30   6 C        2.918    -0.036    28.887     8.814
    31   6 C        2.917    -0.035    28.870     8.811
    32   6 C        3.105    -0.003    27.971     8.666
    33   6 C        3.101    -0.015    28.268     8.712
    34   6 C        2.920    -0.038    28.945     8.823
    35   6 C        2.908    -0.055    29.362     8.885
    36   6 C        3.074     0.046    26.894     8.503
    37   6 C        2.918    -0.043    29.066     8.841
    38   6 C        2.923    -0.031    28.785     8.798
    39   6 C        2.976     0.008    27.845     8.656
    40   6 C        2.921    -0.040    28.995     8.830
    41   6 C        2.914    -0.033    28.822     8.803
    42   6 C        2.913    -0.032    28.808     8.801
    43   6 C        2.921    -0.039    28.973     8.827
    44   6 C        2.977     0.008    27.839     8.655
    45   6 C        2.924    -0.032    28.809     8.802
    46   6 C        2.917    -0.031    28.767     8.795
    47   1 H        0.926     0.030     2.582     2.513
    48   1 H        0.926     0.031     2.569     2.506
    49   1 H        0.926     0.031     2.565     2.505
    50   1 H        0.926     0.032     2.563     2.504
    51   1 H        0.926     0.028     2.608     2.525
    52   1 H        0.926     0.029     2.603     2.523
    53   1 H        0.926     0.033     2.549     2.497
    54   1 H        0.926     0.043     2.413     2.429
    55   1 H        0.926     0.043     2.406     2.426
    56   1 H        0.926     0.035     2.521     2.483
    57   1 H        0.926     0.034     2.526     2.485
    58   1 H        0.926     0.032     2.558     2.501
    59   1 H        0.926     0.036     2.501     2.473
    60   1 H        0.926     0.038     2.482     2.464
    61   1 H        0.926     0.037     2.483     2.464
    62   1 H        0.926     0.036     2.500     2.473
    63   1 H        0.926     0.038     2.481     2.463
    64   1 H        0.926     0.040     2.444     2.445
    65   1 H        0.926     0.039     2.464     2.455
    66   1 H        0.926     0.042     2.418     2.432
    67   1 H        0.926     0.043     2.416     2.430
    68   1 H        0.926     0.033     2.545     2.495
    69   1 H        0.926     0.029     2.599     2.521
    70   1 H        0.926     0.029     2.605     2.524
    71   1 H        0.926     0.032     2.561     2.503
    72   1 H        0.926     0.031     2.567     2.505
    73   1 H        0.926     0.031     2.569     2.507

molecular dipole:
                 x           y           z       tot (Debye)
 q only:       -0.693      -0.207       0.022
   full:       -0.800      -0.425       0.028       2.303

 projected vibrational frequencies (cm⁻¹)
eigval :       -0.00    -0.00     0.00     0.00     0.00     0.00
eigval :       10.56    13.71    17.44    28.09    46.04    47.43
eigval :       55.71    59.77    74.25    78.05    82.57    89.81
eigval :      101.87   117.06   125.02   135.63   144.68   174.69
eigval :      193.38   196.06   210.83   214.65   227.51   233.85
eigval :      249.35   251.05   266.37   283.28   317.98   343.27
eigval :      351.34   365.32   372.53   383.09   386.12   389.70
eigval :      393.85   402.65   407.15   410.05   420.40   424.06
eigval :      441.83   459.98   469.49   470.93   480.82   490.08
eigval :      495.70   504.50   509.26   544.37   564.27   566.18
eigval :      577.19   578.69   583.56   587.46   593.70   596.84
eigval :      604.45   616.53   621.68   647.91   660.65   663.56
eigval :      671.57   673.46   679.90   688.11   692.51   702.22
eigval :      704.52   716.15   727.52   744.29   754.37   758.51
eigval :      771.14   774.37   776.48   816.34   824.01   836.48
eigval :      841.12   844.39   867.10   867.49   873.97   880.06
eigval :      885.71   889.24   892.18   897.19   899.12   901.51
eigval :      902.91   903.64   904.62   906.65   908.51   921.53
eigval :      921.95   923.25   929.78   930.74   934.21   938.08
eigval :      944.76   966.19   990.70  1001.73  1024.36  1046.67
eigval :     1072.16  1075.61  1081.74  1100.90  1103.67  1112.49
eigval :     1114.56  1118.87  1124.57  1127.70  1131.41  1146.81
eigval :     1158.71  1176.30  1176.80  1178.51  1180.88  1182.20
eigval :     1184.29  1186.64  1196.28  1202.79  1205.57  1229.41
eigval :     1229.73  1241.45  1254.01  1261.82  1265.07  1274.75
eigval :     1282.62  1291.68  1298.14  1300.67  1309.90  1311.70
eigval :     1312.66  1335.78  1337.93  1352.24  1357.71  1362.17
eigval :     1370.80  1375.25  1379.07  1398.77  1408.68  1409.50
eigval :     1411.55  1420.40  1422.39  1423.63  1446.93  1458.58
eigval :     1460.53  1472.09  1480.64  1481.08  1485.64  1522.21
eigval :     1523.27  1528.31  1551.74  1554.31  1560.16  1567.02
eigval :     1569.45  1571.18  1582.95  1582.97  1589.21  1605.20
eigval :     3065.54  3066.39  3071.26  3072.14  3075.48  3075.54
eigval :     3075.76  3078.07  3078.25  3079.76  3080.47  3081.08
eigval :     3081.79  3082.06  3087.70  3088.27  3089.49  3089.74
eigval :     3090.06  3091.89  3092.67  3093.12  3095.56  3095.71
eigval :     3096.45  3097.12  3101.40

   temp. (K)  partition function   enthalpy   heat capacity  entropy
                                   cal/mol     cal/K/mol   cal/K/mol   J/K/mol
 298.15  VIB  0.121E+16            20414.899    133.918    125.352
         ROT  0.917E+08              888.752      2.981     39.415
         INT  0.111E+24            21303.651    136.899    164.767
         TR   0.143E+29             1481.254      4.968     45.047
         TOT                       22784.9052   141.8669   209.8142   877.8624

       T/K    H(0)-H(T)+PV         H(T)/Eh          T*S/Eh         G(T)/Eh
   ------------------------------------------------------------------------
    298.15    0.363101E-01    0.587883E+00    0.996895E-01    0.488193E+00
   ------------------------------------------------------------------------

         :::::::::::::::::::::::::::::::::::::::::::::::::::::
         ::                  THERMODYNAMIC                  ::
         :::::::::::::::::::::::::::::::::::::::::::::::::::::
         :: total free energy        -113.709173885465 Eh   ::
         ::.................................................::
         :: total energy             -114.197366952246 Eh   ::
         :: zero point energy           0.551572483220 Eh   ::
         :: G(RRHO) w/o ZPVE           -0.063379416439 Eh   ::
         :: G(RRHO) contrib.            0.488193066782 Eh   ::
         :::::::::::::::::::::::::::::::::::::::::::::::::::::

           -------------------------------------------------
          | TOTAL ENERGY             -114.197366952246 Eh   |
          | TOTAL ENTHALPY           -113.609484411432 Eh   |
          | TOTAL FREE ENERGY        -113.709173885465 Eh   |
          | GRADIENT NORM               0.000037791150 Eh/α |
          | HOMO-LUMO GAP               0.905232424371 eV   |
           -------------------------------------------------

 * finished run on 2025/08/29 at 11:34:57.963
