   * xtb version 6.7.1 (edcfbbe) compiled by 'albert@albert-system' on 2024-07-22

   ID    Z sym.   atoms
    1    6 C      1-16, 18-25, 27-46
    2    7 N      17
    3   16 S      26
    4    1 H      47-73

          program call               : xtb data2507/toluene/ATDBT/ATDBT.xyz --gfn 2 --gbsa toluene --ohess vtight --parallel 40 --molden --ceasefiles --namespace data2507/toluene/ATDBT/ATDBT_toluene_S0_preOpt
      * Solvation model:               GBSA
        Solvent                        toluene
        Solvent mass                       9.2140E+01 g/mol
          :  Hamiltonian                  GFN2-xTB          :
 * total energy  :  -114.2379473 Eh     change       -0.2160874E-08 Eh
 * total energy  :  -114.2572134 Eh     change       -0.1926607E-01 Eh
 * total energy  :  -114.2626855 Eh     change       -0.5472130E-02 Eh
 * total energy  :  -114.2638360 Eh     change       -0.1150470E-02 Eh
 * total energy  :  -114.2647539 Eh     change       -0.9178434E-03 Eh
 * total energy  :  -114.2652267 Eh     change       -0.4728702E-03 Eh
 * total energy  :  -114.2655502 Eh     change       -0.3234814E-03 Eh
 * total energy  :  -114.2657565 Eh     change       -0.2063385E-03 Eh
 * total energy  :  -114.2658516 Eh     change       -0.9508363E-04 Eh
 * total energy  :  -114.2659233 Eh     change       -0.7165592E-04 Eh
 * total energy  :  -114.2662652 Eh     change       -0.3289076E-06 Eh
 * total energy  :  -114.2662656 Eh     change       -0.4136166E-06 Eh
 * total energy  :  -114.2662660 Eh     change       -0.4246731E-06 Eh
 * total energy  :  -114.2662664 Eh     change       -0.3502491E-06 Eh
 * total energy  :  -114.2662666 Eh     change       -0.2439444E-06 Eh
 * total energy  :  -114.2662669 Eh     change       -0.2662940E-06 Eh
 * total energy  :  -114.2662671 Eh     change       -0.2283277E-06 Eh
 * total energy  :  -114.2662673 Eh     change       -0.1462015E-06 Eh
 * total energy  :  -114.2662674 Eh     change       -0.9089163E-07 Eh
   *** GEOMETRY OPTIMIZATION CONVERGED AFTER 63 ITERATIONS ***

 final structure:
================
73
 xtb: 6.7.1 (edcfbbe)
C           -9.66917330959138       -1.18109072878256       -0.26579005810412
C           -8.85813660588259       -1.47546423016360       -1.34940514158746
C           -7.49952798360073       -1.21921040251718       -1.29082149188883
C           -6.93594421257970       -0.66847215692888       -0.14425172080964
C           -5.48096132884695       -0.39816401062667       -0.07832323337217
C           -4.64259805666034       -1.26826742039934        0.63190393110169
C           -5.14691898507912       -2.42573226860761        1.28232725416311
C           -4.32289366482178       -3.26873656700884        1.96248012860400
C           -2.93837975247120       -3.01030184228805        2.02913878020597
C           -2.41355504492856       -1.91658506240012        1.41235151443356
C           -3.23811925587451       -1.00730179328593        0.69779173480873
C           -2.70761673599364        0.11565155338961        0.04877665448541
C           -1.25228880876521        0.38319028867470        0.11096967877557
C           -0.68317542291271        0.94011112187725        1.25215241789463
C            0.67479808027297        1.18869101704357        1.31338385972150
C            1.48743720379411        0.88697847435339        0.22507004729634
N            2.86873929897817        1.14232002524720        0.28255148377375
C            3.45129235360054        2.35106698690419        0.60546118375407
C            2.85627020441436        3.56926110138632        0.90262081769956
C            3.68430604986246        4.64245321725067        1.17007598225076
C            5.07274592556350        4.51790556012034        1.13755831277558
C            5.67184718049386        3.31489112644274        0.82329792981990
C            4.85876300806495        2.22126130759236        0.55040896116029
C            5.12250548080228        0.86243419446525        0.18131179116009
C            6.27131924136838        0.10800472645384       -0.01961809369930
S            7.92530719383937        0.65818607369134        0.11335050930886
C            8.51282221034865       -0.94236449141390       -0.29358389323842
C            9.84287204083350       -1.31485933918442       -0.38865456445482
C           10.13747634888716       -2.62431828770612       -0.71891952409630
C            9.11817874359473       -3.54331226734984       -0.95008837960206
C            7.79332632722763       -3.16872649617090       -0.85501236677435
C            7.46932142615884       -1.85566034994661       -0.52184052514449
C            6.17287136535756       -1.24911362248643       -0.36231507066570
C            4.91347453524873       -1.84806362767717       -0.48968114806857
C            3.75964404115976       -1.12264823555676       -0.29779022302680
C            3.86689760937051        0.23036414663627        0.02232495074530
C            0.92513589155859        0.33255388958757       -0.92061321621038
C           -0.43265452110828        0.08185363827812       -0.97261300310784
C           -3.54525677861574        0.98617272778373       -0.66129745675403
C           -3.04073586087472        2.14301435543300       -1.31274286403578
C           -3.86534825565197        2.98736263709248       -1.99038784177408
C           -5.25044277027181        2.73109037709227       -2.05351776889917
C           -5.77504559328301        1.63710977102630       -1.43685816048917
C           -4.94996869098605        0.72602250416767       -0.72527483964401
C           -7.75687176735299       -0.37647394059229        0.94052003005697
C           -9.11581147485622       -0.62951445620039        0.87808105033733
H          -10.72992585696497       -1.38055599844246       -0.31291115635606
H           -9.28503938670306       -1.90603440599731       -2.24392986876009
H           -6.86480257157299       -1.44899451649294       -2.13514183969886
H           -6.20630217116465       -2.62777169780821        1.22294335253832
H           -4.72193176896256       -4.14513657499591        2.45250730955797
H           -2.29819349897054       -3.69238998804692        2.56991254846592
H           -1.35183293140170       -1.72282511060072        1.45554552162817
H           -1.31248245909150        1.17517406962766        2.09820892653016
H            1.11359516856078        1.60734253576714        2.20686546167543
H            1.78236545712401        3.67855662370424        0.91673614599896
H            3.24631986150972        5.60118405077966        1.40691516361715
H            5.68528288988764        5.38049863806715        1.35496366262732
H            6.74663995285328        3.21790056997488        0.78428583693221
H           10.62591188403755       -0.59417133943925       -0.20774131802804
H           11.16850217430305       -2.93532599512508       -0.79763952245549
H            9.36913737369806       -4.56189376742743       -1.20737327844437
H            7.00700794651380       -3.88619593782482       -1.03555156776133
H            4.85405392855369       -2.89645920556920       -0.73844646381012
H            2.79246662960042       -1.59333159010748       -0.38342782502412
H            1.55408728687350        0.11147848105247       -1.77024823379195
H           -0.86729552463727       -0.34800243319553       -1.86333621478676
H           -1.98094718005064        2.34399977375026       -1.25664114167703
H           -3.46643555750562        3.86349345723843       -2.48109246913462
H           -5.89126011863119        3.41481306155495       -2.59135341325753
H           -6.83707196206928        1.44440495424261       -1.47662503121650
H           -7.32314262501548        0.05343969774524        1.83246759078040
H           -9.74463382058869       -0.39676757714250        1.72560140496833

          :  Hamiltonian                  GFN2-xTB          :
         :: gradient norm              0.000029693644 Eh/a0 ::
         :: HOMO-LUMO gap              2.159979677045 eV    ::
         :: SCC energy              -116.434974415954 Eh    ::
         :: -> dispersion             -0.107878095348 Eh    ::
         :: -> Gsolv                  -0.047067132455 Eh    ::
         :: repulsion energy           2.168707046870 Eh    ::

    * Orbital Energies and Occupations

         #    Occupation            Energy/Eh            Energy/eV
      -------------------------------------------------------------
         1        2.0000           -0.7233171             -19.6825
       ...           ...                  ...                  ...
        95        2.0000           -0.4180521             -11.3758
        96        2.0000           -0.4150992             -11.2954
        97        2.0000           -0.4071296             -11.0786
        98        2.0000           -0.4058241             -11.0430
        99        2.0000           -0.4054369             -11.0325
       100        2.0000           -0.4032449             -10.9729
       101        2.0000           -0.3996161             -10.8741
       102        2.0000           -0.3990344             -10.8583
       103        2.0000           -0.3968526             -10.7989
       104        2.0000           -0.3885731             -10.5736
       105        2.0000           -0.3674894              -9.9999
       106        2.0000           -0.3630065              -9.8779
       107        2.0000           -0.3593801              -9.7792 (HOMO)
       108                         -0.2800023              -7.6192 (LUMO)
       109                         -0.2533844              -6.8949
       110                         -0.2479343              -6.7466
       111                         -0.2346322              -6.3847
       112                         -0.2338896              -6.3645
       113                         -0.2313633              -6.2957
       114                         -0.2279406              -6.2026
       115                         -0.2241949              -6.1007
       116                         -0.2240312              -6.0962
       117                         -0.2206396              -6.0039
       118                         -0.2142188              -5.8292
       ...                                ...                  ...
       216                          0.7502945              20.4166
      -------------------------------------------------------------
                  HL-Gap            0.0793778 Eh            2.1600 eV

     #   Z          covCN         q      C6AA      α(0)
     1   6 C        2.920    -0.033    28.812     8.802
     2   6 C        2.919    -0.030    28.758     8.794
     3   6 C        2.924    -0.033    28.812     8.803
     4   6 C        2.977     0.016    27.656     8.626
     5   6 C        2.977    -0.005    28.152     8.703
     6   6 C        2.984     0.006    27.888     8.662
     7   6 C        2.917    -0.034    28.852     8.808
     8   6 C        2.914    -0.031    28.769     8.795
     9   6 C        2.914    -0.030    28.761     8.794
    10   6 C        2.917    -0.035    28.878     8.812
    11   6 C        2.984     0.006    27.885     8.662
    12   6 C        2.977    -0.007    28.185     8.708
    13   6 C        2.976     0.016    27.648     8.625
    14   6 C        2.924    -0.031    28.762     8.795
    15   6 C        2.920    -0.042    29.034     8.836
    16   6 C        2.913     0.061    26.633     8.463
    17   7 N        2.805    -0.041    22.040     6.973
    18   6 C        3.080     0.047    26.860     8.496
    19   6 C        2.909    -0.051    29.258     8.870
    20   6 C        2.924    -0.034    28.847     8.808
    21   6 C        2.920    -0.041    29.012     8.833
    22   6 C        2.912    -0.033    28.833     8.805
    23   6 C        3.067    -0.016    28.338     8.729
    24   6 C        3.085    -0.028    28.613     8.769
    25   6 C        2.995     0.034    27.220     8.558
    26  16 S        2.207    -0.114   145.823    20.324
    27   6 C        3.003     0.036    27.172     8.551
    28   6 C        2.935    -0.040    29.001     8.832
    29   6 C        2.923    -0.034    28.835     8.806
    30   6 C        2.918    -0.036    28.896     8.815
    31   6 C        2.918    -0.035    28.882     8.813
    32   6 C        3.105    -0.004    27.975     8.666
    33   6 C        3.101    -0.017    28.304     8.718
    34   6 C        2.920    -0.038    28.953     8.824
    35   6 C        2.908    -0.056    29.400     8.891
    36   6 C        3.076     0.047    26.877     8.500
    37   6 C        2.920    -0.042    29.040     8.837
    38   6 C        2.924    -0.031    28.763     8.795
    39   6 C        2.984     0.006    27.884     8.662
    40   6 C        2.917    -0.035    28.877     8.812
    41   6 C        2.914    -0.030    28.760     8.794
    42   6 C        2.914    -0.031    28.768     8.795
    43   6 C        2.917    -0.034    28.852     8.808
    44   6 C        2.984     0.006    27.887     8.662
    45   6 C        2.924    -0.033    28.812     8.802
    46   6 C        2.919    -0.030    28.758     8.794
    47   1 H        0.926     0.031     2.578     2.511
    48   1 H        0.926     0.031     2.567     2.505
    49   1 H        0.926     0.029     2.594     2.519
    50   1 H        0.926     0.031     2.566     2.505
    51   1 H        0.926     0.030     2.582     2.513
    52   1 H        0.926     0.030     2.580     2.512
    53   1 H        0.926     0.031     2.576     2.510
    54   1 H        0.926     0.040     2.443     2.444
    55   1 H        0.926     0.043     2.404     2.424
    56   1 H        0.926     0.032     2.554     2.499
    57   1 H        0.926     0.033     2.550     2.497
    58   1 H        0.926     0.030     2.585     2.514
    59   1 H        0.926     0.034     2.527     2.486
    60   1 H        0.926     0.037     2.492     2.468
    61   1 H        0.926     0.037     2.492     2.469
    62   1 H        0.926     0.035     2.510     2.477
    63   1 H        0.926     0.037     2.492     2.469
    64   1 H        0.926     0.039     2.464     2.455
    65   1 H        0.926     0.037     2.494     2.469
    66   1 H        0.926     0.043     2.413     2.429
    67   1 H        0.926     0.040     2.446     2.446
    68   1 H        0.926     0.031     2.574     2.509
    69   1 H        0.926     0.031     2.578     2.511
    70   1 H        0.926     0.030     2.581     2.512
    71   1 H        0.926     0.031     2.565     2.505
    72   1 H        0.926     0.029     2.594     2.518
    73   1 H        0.926     0.031     2.566     2.505

molecular dipole:
                 x           y           z       tot (Debye)
 q only:       -1.301      -0.287      -0.061
   full:       -1.393      -0.494      -0.113       3.768

 projected vibrational frequencies (cm⁻¹)
eigval :       -0.00    -0.00    -0.00    -0.00     0.00     0.00
eigval :        7.54    12.84    15.06    17.37    29.48    43.93
eigval :       50.30    63.20    68.00    72.22    83.14    87.11
eigval :       99.82   108.79   117.26   128.21   138.84   175.39
eigval :      177.12   201.39   210.65   214.01   214.33   226.32
eigval :      235.60   250.42   263.88   282.14   318.28   345.34
eigval :      353.94   369.58   378.41   386.02   387.13   397.97
eigval :      398.47   407.87   409.18   422.89   438.08   441.15
eigval :      447.70   460.75   461.64   472.62   480.93   489.55
eigval :      495.88   505.03   511.00   543.87   566.30   578.09
eigval :      583.12   585.39   588.72   592.65   594.32   604.27
eigval :      611.58   620.58   636.23   649.82   661.68   664.35
eigval :      674.26   682.37   685.57   694.03   698.79   701.55
eigval :      704.80   729.23   741.27   757.77   769.15   774.75
eigval :      776.52   776.60   778.89   816.01   822.72   836.62
eigval :      866.77   870.87   875.45   877.14   879.36   879.74
eigval :      894.98   896.96   901.08   901.94   903.62   905.86
eigval :      910.82   918.60   918.72   919.51   920.84   924.84
eigval :      925.54   929.02   929.44   930.42   931.70   933.40
eigval :      933.56   969.07   994.79  1004.31  1029.70  1046.96
eigval :     1071.50  1076.42  1078.48  1079.42  1081.77  1113.84
eigval :     1116.69  1125.36  1130.76  1134.88  1144.62  1150.48
eigval :     1159.59  1176.23  1178.53  1179.64  1179.78  1182.53
eigval :     1184.29  1194.13  1196.93  1213.13  1219.65  1226.36
eigval :     1230.86  1243.45  1256.68  1261.22  1263.99  1266.54
eigval :     1278.99  1295.69  1305.81  1308.58  1313.37  1324.37
eigval :     1338.26  1349.14  1350.74  1359.70  1373.29  1379.40
eigval :     1383.51  1399.63  1402.38  1415.55  1418.53  1425.00
eigval :     1426.17  1428.40  1443.75  1449.97  1459.01  1469.29
eigval :     1483.17  1489.09  1498.97  1525.45  1530.57  1542.30
eigval :     1553.73  1562.00  1567.94  1572.98  1578.73  1583.90
eigval :     1591.47  1595.36  1598.47  1607.23  1609.09  1621.71
eigval :     3066.39  3067.13  3069.76  3069.98  3073.43  3074.28
eigval :     3075.42  3076.68  3076.74  3078.10  3078.62  3079.37
eigval :     3080.55  3081.64  3086.95  3087.11  3087.33  3087.44
eigval :     3088.05  3088.96  3090.40  3091.45  3092.47  3093.56
eigval :     3093.95  3095.85  3099.72

   temp. (K)  partition function   enthalpy   heat capacity  entropy
                                   cal/mol     cal/K/mol   cal/K/mol   J/K/mol
 298.15  VIB  0.773E+16            20428.466    132.348    126.702
         ROT  0.918E+08              888.752      2.981     39.417
         INT  0.709E+24            21317.219    135.329    166.119
         TR   0.143E+29             1481.254      4.968     45.047
         TOT                       22798.4724   140.2967   211.1661   883.5190

       T/K    H(0)-H(T)+PV         H(T)/Eh          T*S/Eh         G(T)/Eh
   ------------------------------------------------------------------------
    298.15    0.363317E-01    0.590292E+00    0.100332E+00    0.489960E+00
   ------------------------------------------------------------------------

         :::::::::::::::::::::::::::::::::::::::::::::::::::::
         ::                  THERMODYNAMIC                  ::
         :::::::::::::::::::::::::::::::::::::::::::::::::::::
         :: total free energy        -113.776307201362 Eh   ::
         ::.................................................::
         :: total energy             -114.266267367865 Eh   ::
         :: zero point energy           0.553960314896 Eh   ::
         :: G(RRHO) w/o ZPVE           -0.064000148394 Eh   ::
         :: G(RRHO) contrib.            0.489960166503 Eh   ::
         :::::::::::::::::::::::::::::::::::::::::::::::::::::

           -------------------------------------------------
          | TOTAL ENERGY             -114.266267367865 Eh   |
          | TOTAL ENTHALPY           -113.675975374537 Eh   |
          | TOTAL FREE ENERGY        -113.776307201362 Eh   |
          | GRADIENT NORM               0.000029708487 Eh/α |
          | HOMO-LUMO GAP               2.159979752272 eV   |
           -------------------------------------------------

 * finished run on 2025/08/29 at 11:31:01.639
