   * xtb version 6.7.1 (edcfbbe) compiled by 'albert@albert-system' on 2024-07-22

   ID    Z sym.   atoms
    1    6 C      1-16, 18-25, 27-46
    2    7 N      17
    3   16 S      26
    4    1 H      47-73

          program call               : xtb data2507/toluene/ATDBT/ATDBT_toluene_S0_crest.xyz --gfn 2 --gbsa toluene --ohess vtight --parallel 40 --molden --ceasefiles --namespace data2507/toluene/ATDBT/ATDBT_toluene_S0_finalOpt
      * Solvation model:               GBSA
        Solvent                        toluene
        Solvent mass                       9.2140E+01 g/mol
          :  Hamiltonian                  GFN2-xTB          :
 * total energy  :  -114.2661388 Eh     change       -0.2209291E-08 Eh
 * total energy  :  -114.2661682 Eh     change       -0.2944669E-04 Eh
 * total energy  :  -114.2661918 Eh     change       -0.2353711E-04 Eh
 * total energy  :  -114.2662048 Eh     change       -0.1297765E-04 Eh
 * total energy  :  -114.2662279 Eh     change       -0.2318481E-04 Eh
 * total energy  :  -114.2662393 Eh     change       -0.1138713E-04 Eh
 * total energy  :  -114.2662517 Eh     change       -0.1233008E-04 Eh
 * total energy  :  -114.2662581 Eh     change       -0.6439861E-05 Eh
 * total energy  :  -114.2662620 Eh     change       -0.3921459E-05 Eh
 * total energy  :  -114.2662653 Eh     change       -0.3313745E-05 Eh
 * total energy  :  -114.2662905 Eh     change       -0.4714326E-06 Eh
 * total energy  :  -114.2662912 Eh     change       -0.6898330E-06 Eh
 * total energy  :  -114.2662920 Eh     change       -0.7322758E-06 Eh
 * total energy  :  -114.2662927 Eh     change       -0.7683430E-06 Eh
 * total energy  :  -114.2662936 Eh     change       -0.8511624E-06 Eh
 * total energy  :  -114.2662943 Eh     change       -0.7448902E-06 Eh
 * total energy  :  -114.2662947 Eh     change       -0.3817618E-06 Eh
 * total energy  :  -114.2662949 Eh     change       -0.1728889E-06 Eh
 * total energy  :  -114.2662950 Eh     change       -0.8233090E-07 Eh
   *** GEOMETRY OPTIMIZATION CONVERGED AFTER 33 ITERATIONS ***

 final structure:
================
73
 xtb: 6.7.1 (edcfbbe)
C          -10.18839668919377       -1.18148937663799       -0.08754568744600
C           -9.51066491111640       -0.92250956967290       -1.26762723567384
C           -8.14968573151986       -0.67402680148955       -1.24753151104769
C           -7.44948249074654       -0.68568803412302       -0.04499975604320
C           -5.99314662063032       -0.42107535034185       -0.02173443278545
C           -5.09573669357297       -1.47536499702098        0.19826749089126
C           -5.54400369653121       -2.81103658860574        0.37833422972057
C           -4.66693461456999       -3.82530862280290        0.61072027045878
C           -3.28340154467496       -3.56501716899088        0.68359252984541
C           -2.81155529009032       -2.30186122684933        0.49943180944721
C           -3.68954258737506       -1.21760482999609        0.23302727361285
C           -3.21429388716489        0.08489823267858        0.02219538587361
C           -1.75899588500168        0.34814840288800        0.04357600761222
C           -1.18302436555947        1.06309892929605        1.09022071891898
C            0.17751547444244        1.30230161647806        1.11699284957833
C            0.98625281262647        0.83679614410956        0.08496190480233
N            2.36994987230815        1.08496611970753        0.10471582564932
C            2.96399955356972        2.32404351915406        0.23120153507154
C            2.38039889270115        3.57898207681442        0.33535019089690
C            3.21858875784183        4.67360480455817        0.42525025018632
C            4.60574052119080        4.53324664565102        0.40488710098609
C            5.19348609417289        3.29033786322250        0.28328179751018
C            4.37002738521140        2.17451887562042        0.19154904150749
C            4.62054053534766        0.77183997861062        0.04222433085222
C            5.76179470519941       -0.01584551417911       -0.03889901036248
S            7.42122972275823        0.53235425919864       -0.00227979131723
C            7.99228452197914       -1.11880971671020       -0.14517856166965
C            9.31828037415356       -1.51497994451980       -0.18313796525954
C            9.59907797118372       -2.86376108320020       -0.29586377949847
C            8.57021548116093       -3.79796349886391       -0.37177032993344
C            7.24946677893285       -3.39970246084116       -0.33493083992167
C            6.93932106755043       -2.04660837561792       -0.21992143932351
C            5.64936566718213       -1.40957093711641       -0.15767023725657
C            4.38419792642605       -2.00895641569083       -0.18787104235814
C            3.23771580153729       -1.25106174412154       -0.11384022417267
C            3.35882604787435        0.13440186741958       -0.01173553422873
C            0.41779088738452        0.12746246481995       -0.96855646414569
C           -0.94165623211214       -0.11804123759431       -0.98258426351535
C           -4.11115343788705        1.13748528687272       -0.21060888671132
C           -3.66359437243892        2.46227212274364       -0.45967697940016
C           -4.54437958883634        3.47888441305875       -0.66673706788858
C           -5.93246429231912        3.23499202752684       -0.63523390929903
C           -6.40276019135977        1.97610709571063       -0.42060457530724
C           -5.51837747198993        0.88298426317278       -0.21992104100750
C           -8.13690909320136       -0.94890938400346        1.13583621263810
C           -9.49877615411160       -1.19272370795551        1.11376869849699
H          -11.25145103243563       -1.37349253209830       -0.10405505960561
H          -10.04426796246819       -0.91325663262960       -2.20731228225968
H           -7.61860439629347       -0.47262685472872       -2.16731413917250
H           -6.60455733448026       -3.00852465378817        0.32617638607988
H           -5.02352598313202       -4.83629297349504        0.74510853626976
H           -2.60180418953317       -4.37881674514773        0.88536649747098
H           -1.75144087971045       -2.10420620188026        0.55693585239845
H           -1.80856285903800        1.42128142591259        1.89487709309227
H            0.62172489291387        1.84096319645895        1.94081841570221
H            1.30749455052563        3.69822114807357        0.33902938115249
H            2.78971160570097        5.66147841986469        0.50994946486467
H            5.22642980093639        5.41406409517982        0.47875931634116
H            6.26711923040178        3.17885871871691        0.25412074039499
H           10.10880512491491       -0.78224463813978       -0.12382163964092
H           10.62684098820465       -3.19358498525823       -0.32588088135190
H            8.81064487072409       -4.84729277366371       -0.46005061616230
H            6.45551979156064       -4.12890965501232       -0.39425631965488
H            4.31460486113688       -3.08302475115509       -0.26598411218201
H            2.26564111198628       -1.71932400600310       -0.12379828330687
H            1.04420870957262       -0.21956986991026       -1.77699080778791
H           -1.38142911587587       -0.66597037701389       -1.80320134279155
H           -2.60053752814306        2.65072616435801       -0.48550208215066
H           -4.18726966839447        4.48104636384942       -0.85540363492302
H           -6.61822004968442        4.05609790594480       -0.78651974702383
H           -7.46602684904499        1.78764511631162       -0.39906014210513
H           -7.59701342296461       -0.95621679253439        2.07233285124991
H          -10.02314546871050       -1.39366153027450        2.03706603981555

          :  Hamiltonian                  GFN2-xTB          :
         :: gradient norm              0.000108315400 Eh/a0 ::
         :: HOMO-LUMO gap              2.122780262835 eV    ::
         :: SCC energy              -116.434794080925 Eh    ::
         :: -> dispersion             -0.108103798798 Eh    ::
         :: -> Gsolv                  -0.046911385298 Eh    ::
         :: repulsion energy           2.168499122560 Eh    ::

    * Orbital Energies and Occupations

         #    Occupation            Energy/Eh            Energy/eV
      -------------------------------------------------------------
         1        2.0000           -0.7233320             -19.6829
       ...           ...                  ...                  ...
        95        2.0000           -0.4179487             -11.3730
        96        2.0000           -0.4153661             -11.3027
        97        2.0000           -0.4070757             -11.0771
        98        2.0000           -0.4063384             -11.0570
        99        2.0000           -0.4058251             -11.0431
       100        2.0000           -0.4020394             -10.9400
       101        2.0000           -0.3995711             -10.8729
       102        2.0000           -0.3991185             -10.8606
       103        2.0000           -0.3968488             -10.7988
       104        2.0000           -0.3886247             -10.5750
       105        2.0000           -0.3675307             -10.0010
       106        2.0000           -0.3635409              -9.8925
       107        2.0000           -0.3585868              -9.7576 (HOMO)
       108                         -0.2805760              -7.6349 (LUMO)
       109                         -0.2532848              -6.8922
       110                         -0.2479662              -6.7475
       111                         -0.2346866              -6.3861
       112                         -0.2338209              -6.3626
       113                         -0.2313766              -6.2961
       114                         -0.2279410              -6.2026
       115                         -0.2243932              -6.1060
       116                         -0.2240795              -6.0975
       117                         -0.2205214              -6.0007
       118                         -0.2143075              -5.8316
       ...                                ...                  ...
       216                          0.7502628              20.4157
      -------------------------------------------------------------
                  HL-Gap            0.0780107 Eh            2.1228 eV

     #   Z          covCN         q      C6AA      α(0)
     1   6 C        2.920    -0.032    28.809     8.802
     2   6 C        2.918    -0.030    28.759     8.794
     3   6 C        2.924    -0.032    28.810     8.802
     4   6 C        2.977     0.016    27.660     8.627
     5   6 C        2.977    -0.005    28.153     8.703
     6   6 C        2.984     0.006    27.888     8.662
     7   6 C        2.917    -0.034    28.857     8.809
     8   6 C        2.914    -0.031    28.773     8.796
     9   6 C        2.914    -0.031    28.765     8.795
    10   6 C        2.917    -0.036    28.885     8.813
    11   6 C        2.983     0.006    27.885     8.662
    12   6 C        2.976    -0.007    28.188     8.709
    13   6 C        2.976     0.016    27.655     8.626
    14   6 C        2.924    -0.030    28.760     8.794
    15   6 C        2.920    -0.042    29.035     8.836
    16   6 C        2.913     0.061    26.632     8.462
    17   7 N        2.805    -0.042    22.042     6.973
    18   6 C        3.080     0.047    26.859     8.496
    19   6 C        2.909    -0.051    29.256     8.869
    20   6 C        2.924    -0.034    28.847     8.808
    21   6 C        2.920    -0.041    29.012     8.833
    22   6 C        2.912    -0.033    28.833     8.805
    23   6 C        3.067    -0.016    28.339     8.729
    24   6 C        3.085    -0.029    28.614     8.769
    25   6 C        2.995     0.034    27.220     8.558
    26  16 S        2.207    -0.114   145.821    20.324
    27   6 C        3.003     0.036    27.172     8.551
    28   6 C        2.935    -0.040    29.000     8.832
    29   6 C        2.923    -0.034    28.835     8.806
    30   6 C        2.918    -0.036    28.895     8.815
    31   6 C        2.918    -0.035    28.883     8.813
    32   6 C        3.105    -0.004    27.975     8.666
    33   6 C        3.101    -0.017    28.305     8.718
    34   6 C        2.920    -0.038    28.952     8.824
    35   6 C        2.908    -0.056    29.397     8.891
    36   6 C        3.076     0.047    26.876     8.500
    37   6 C        2.920    -0.042    29.041     8.837
    38   6 C        2.924    -0.030    28.761     8.795
    39   6 C        2.983     0.006    27.883     8.662
    40   6 C        2.917    -0.036    28.884     8.813
    41   6 C        2.914    -0.031    28.763     8.794
    42   6 C        2.914    -0.031    28.771     8.796
    43   6 C        2.917    -0.034    28.857     8.809
    44   6 C        2.984     0.006    27.887     8.662
    45   6 C        2.924    -0.032    28.810     8.802
    46   6 C        2.918    -0.030    28.759     8.794
    47   1 H        0.926     0.031     2.577     2.510
    48   1 H        0.926     0.031     2.567     2.505
    49   1 H        0.926     0.030     2.590     2.517
    50   1 H        0.926     0.032     2.562     2.503
    51   1 H        0.926     0.030     2.585     2.514
    52   1 H        0.926     0.030     2.583     2.513
    53   1 H        0.926     0.031     2.570     2.507
    54   1 H        0.926     0.041     2.435     2.440
    55   1 H        0.926     0.043     2.405     2.425
    56   1 H        0.926     0.032     2.559     2.502
    57   1 H        0.926     0.033     2.550     2.497
    58   1 H        0.926     0.030     2.586     2.515
    59   1 H        0.926     0.034     2.527     2.486
    60   1 H        0.926     0.037     2.492     2.469
    61   1 H        0.926     0.037     2.492     2.469
    62   1 H        0.926     0.035     2.510     2.477
    63   1 H        0.926     0.037     2.492     2.469
    64   1 H        0.926     0.039     2.464     2.454
    65   1 H        0.926     0.036     2.499     2.472
    66   1 H        0.926     0.043     2.415     2.430
    67   1 H        0.926     0.041     2.437     2.441
    68   1 H        0.926     0.031     2.567     2.505
    69   1 H        0.926     0.031     2.579     2.511
    70   1 H        0.926     0.030     2.583     2.513
    71   1 H        0.926     0.032     2.562     2.503
    72   1 H        0.926     0.030     2.590     2.517
    73   1 H        0.926     0.031     2.567     2.505

molecular dipole:
                 x           y           z       tot (Debye)
 q only:       -1.310      -0.279      -0.012
   full:       -1.405      -0.491      -0.030       3.785

 projected vibrational frequencies (cm⁻¹)
eigval :       -0.00    -0.00    -0.00    -0.00     0.00     0.00
eigval :        8.05    13.75    16.53    27.91    30.69    45.80
eigval :       49.00    62.26    69.32    71.30    81.20    84.55
eigval :      100.03   111.03   116.96   124.67   140.28   171.83
eigval :      185.16   198.61   209.41   213.32   214.42   226.43
eigval :      239.24   247.15   264.28   280.94   319.48   347.46
eigval :      356.07   369.51   379.83   383.37   386.82   395.07
eigval :      398.92   406.48   408.21   418.91   438.18   443.30
eigval :      446.32   458.95   460.06   471.90   481.22   491.53
eigval :      496.78   505.26   513.20   542.52   566.04   577.75
eigval :      583.21   585.32   588.26   594.05   594.79   604.54
eigval :      610.29   619.99   635.12   650.47   663.10   664.86
eigval :      674.60   681.96   688.41   692.46   699.33   701.96
eigval :      704.58   729.10   739.29   758.18   771.40   773.13
eigval :      773.60   775.06   778.19   815.82   822.75   836.58
eigval :      868.53   868.81   873.49   875.18   879.26   880.24
eigval :      894.85   895.81   901.04   901.74   903.56   904.05
eigval :      910.92   916.84   917.82   919.29   920.68   923.47
eigval :      925.31   927.04   928.12   930.47   931.85   933.02
eigval :      933.83   968.98   994.81  1004.16  1030.08  1046.68
eigval :     1070.59  1075.90  1079.69  1080.84  1082.18  1113.43
eigval :     1117.29  1124.95  1131.55  1135.20  1144.79  1146.34
eigval :     1159.06  1176.16  1178.51  1179.53  1181.33  1183.48
eigval :     1185.51  1194.63  1196.77  1213.86  1220.07  1226.88
eigval :     1230.59  1242.98  1257.35  1261.26  1265.19  1266.91
eigval :     1280.33  1295.31  1306.69  1309.26  1313.50  1323.65
eigval :     1338.08  1349.75  1350.55  1359.78  1373.58  1380.07
eigval :     1383.14  1400.25  1402.55  1415.45  1418.28  1424.84
eigval :     1426.25  1428.34  1443.07  1449.78  1459.12  1469.27
eigval :     1483.07  1488.87  1498.20  1525.72  1529.13  1541.59
eigval :     1554.13  1561.72  1567.91  1573.09  1578.70  1583.95
eigval :     1591.44  1594.05  1598.12  1607.42  1608.88  1621.65
eigval :     3065.88  3066.57  3069.23  3069.52  3073.80  3073.91
eigval :     3075.15  3075.95  3076.16  3077.69  3078.68  3079.70
eigval :     3080.51  3081.49  3085.94  3086.48  3086.71  3087.21
eigval :     3087.59  3088.31  3090.57  3090.75  3092.21  3093.42
eigval :     3094.28  3095.76  3098.37

   temp. (K)  partition function   enthalpy   heat capacity  entropy
                                   cal/mol     cal/K/mol   cal/K/mol   J/K/mol
 298.15  VIB  0.395E+16            20418.031    132.467    126.238
         ROT  0.915E+08              888.752      2.981     39.411
         INT  0.361E+24            21306.783    135.448    165.649
         TR   0.143E+29             1481.254      4.968     45.047
         TOT                       22788.0373   140.4158   210.6959   881.5515

       T/K    H(0)-H(T)+PV         H(T)/Eh          T*S/Eh         G(T)/Eh
   ------------------------------------------------------------------------
    298.15    0.363150E-01    0.590231E+00    0.100108E+00    0.490122E+00
   ------------------------------------------------------------------------

         :::::::::::::::::::::::::::::::::::::::::::::::::::::
         ::                  THERMODYNAMIC                  ::
         :::::::::::::::::::::::::::::::::::::::::::::::::::::
         :: total free energy        -113.776172857122 Eh   ::
         ::.................................................::
         :: total energy             -114.266294957111 Eh   ::
         :: zero point energy           0.553915460186 Eh   ::
         :: G(RRHO) w/o ZPVE           -0.063793360197 Eh   ::
         :: G(RRHO) contrib.            0.490122099989 Eh   ::
         :::::::::::::::::::::::::::::::::::::::::::::::::::::

           -------------------------------------------------
          | TOTAL ENERGY             -114.266294957111 Eh   |
          | TOTAL ENTHALPY           -113.676064447911 Eh   |
          | TOTAL FREE ENERGY        -113.776172857122 Eh   |
          | GRADIENT NORM               0.000108340316 Eh/α |
          | HOMO-LUMO GAP               2.122780259532 eV   |
           -------------------------------------------------

 * finished run on 2025/08/29 at 11:34:50.398
