   * xtb version 6.7.1 (edcfbbe) compiled by 'albert@albert-system' on 2024-07-22

   ID    Z sym.   atoms
    1    6 C      1-4, 6, 8-11, 13-26
    2    7 N      5, 12
    3    8 O      7, 28, 29
    4   16 S      27
    5    1 H      30-49

          program call               : xtb data2507/gas/6-Cz-Sac/6-Cz-Sac_gas_T1_crest.xyz --gfn 2 --spinpol --tblite --uhf 2 --ohess vtight --parallel 40 --molden --ceasefiles --namespace data2507/gas/6-Cz-Sac/6-Cz-Sac_gas_T1_finalOpt
 * total energy  :   -80.7173320 Eh     change       -0.1736865E-08 Eh
 * total energy  :   -80.7173553 Eh     change       -0.2330257E-04 Eh
 * total energy  :   -80.7173647 Eh     change       -0.9387894E-05 Eh
 * total energy  :   -80.7173672 Eh     change       -0.2450584E-05 Eh
 * total energy  :   -80.7173698 Eh     change       -0.2588604E-05 Eh
 * total energy  :   -80.7173721 Eh     change       -0.2336036E-05 Eh
 * total energy  :   -80.7173742 Eh     change       -0.2044539E-05 Eh
 * total energy  :   -80.7173754 Eh     change       -0.1225397E-05 Eh
 * total energy  :   -80.7173760 Eh     change       -0.5955196E-06 Eh
 * total energy  :   -80.7173760 Eh     change       -0.4594514E-07 Eh
 * total energy  :   -80.7173763 Eh     change       -0.2652226E-06 Eh
 * total energy  :   -80.7173762 Eh     change        0.7534598E-07 Eh
 * total energy  :   -80.7173764 Eh     change       -0.2042454E-06 Eh
 * total energy  :   -80.7173763 Eh     change        0.7656578E-07 Eh
 * total energy  :   -80.7173765 Eh     change       -0.1451053E-06 Eh
 * total energy  :   -80.7173764 Eh     change        0.6072075E-07 Eh
 * total energy  :   -80.7173765 Eh     change       -0.1073683E-06 Eh
 * total energy  :   -80.7173765 Eh     change        0.6702209E-07 Eh
 * total energy  :   -80.7173765 Eh     change       -0.7439921E-07 Eh
   *** GEOMETRY OPTIMIZATION CONVERGED AFTER 19 ITERATIONS ***

 final structure:
================
49
 xtb: 6.7.1 (edcfbbe)
C            5.56972204547006        1.32360111460922        0.64248232885127
C            5.18700652572547       -0.02046592125847        0.01743670251723
C            5.55223310422959       -1.15741024837958        0.98029769409039
C            5.90458900352689       -0.18644937546862       -1.32268126008768
N            3.74293778841253       -0.03204222822304       -0.20478717073953
C            3.09924239592984       -1.10712754224509       -0.82676205064114
O            3.70755591031294       -2.03297663920357       -1.38734733155976
C            1.69241873133665       -0.99789675839220       -0.68642161038207
C            0.71022956772256       -1.87359621518472       -1.22991304950597
C           -0.60619689559598       -1.58913796568088       -1.05711811223843
C           -1.03257363568532       -0.44296192538080       -0.30932226579675
N           -2.38235492782749       -0.16610543613129       -0.15853136689328
C           -2.97229490427356        1.07304187957862       -0.31322162296460
C           -2.40096523292410        2.28173707283475       -0.69379614627169
C           -3.23195157453149        3.38258440342917       -0.79851662801449
C           -4.59825867241216        3.28727709295923       -0.54367235751315
C           -5.17941951336973        2.07787559984303       -0.19534199274465
C           -4.36779451468105        0.96161415741057       -0.08507885398420
C           -4.62050945094817       -0.42195534555930        0.22077811399070
C           -5.76298276206525       -1.13714085922695        0.53598856748722
C           -5.64241417252715       -2.49020549294614        0.81322263265162
C           -4.40008605222682       -3.12058313008916        0.79786351397733
C           -3.24486557526134       -2.42697447973568        0.48599134287548
C           -3.36345209897013       -1.07804712645117        0.17116990056698
C           -0.06556477917067        0.39876293036668        0.28134198826890
C            1.24695050810775        0.10162320396154        0.10343576502666
S            2.68349334036446        0.89278044451499        0.75372432979083
O            2.75226911994783        2.27067624707687        0.36569341722595
O            2.88508479252903        0.60465902081882        2.14572828547498
H            5.23767531255685        2.14299425095304        0.01054900264482
H            5.10569275086765        1.43533384627478        1.61834703564574
H            6.65017683342469        1.37188898596138        0.75496637819992
H            5.30644872973816       -2.11455386582472        0.52588516781551
H            4.99056756940723       -1.04707605887938        1.90550119505842
H            6.61580355640283       -1.13233961825744        1.20188476816954
H            5.61181750160599       -1.12850778260708       -1.78260036270527
H            5.63783933610033        0.62555419065861       -1.99492823720277
H            6.98006704579385       -0.18564268912382       -1.16752807711972
H            1.04265378299242       -2.71986179506040       -1.80945404494253
H           -1.36447117222266       -2.19088374072353       -1.53488600795639
H           -1.34789575921651        2.35934823137359       -0.91418321816896
H           -2.81285812939451        4.33354855600515       -1.08872420590179
H           -5.21457036704555        4.16892274365943       -0.63207555419389
H           -6.24153528173332        2.00481745786639       -0.01910444625331
H           -6.72492749705509       -0.64938512099463        0.57054892802379
H           -6.52240352875786       -3.06411923816392        1.06060541602857
H           -4.33647511333717       -4.16943721605652        1.04355696466608
H           -2.28230318158839       -2.91302691020256        0.50738768514884
H           -0.36660869978405        1.22036551539454        0.91261285908515

 projected vibrational frequencies (cm⁻¹)
eigval :       -0.00    -0.00    -0.00     0.00     0.00     0.00
eigval :       21.06    28.77    38.58    47.61    54.90    96.53
eigval :       97.74   119.53   126.63   136.99   141.06   157.81
eigval :      196.67   214.12   237.61   246.41   251.44   258.65
eigval :      267.87   272.13   280.92   286.89   302.03   317.39
eigval :      350.82   365.29   370.83   378.96   383.45   401.89
eigval :      415.09   420.88   433.75   457.04   470.32   486.50
eigval :      510.45   516.32   529.88   533.44   539.18   552.52
eigval :      558.66   581.88   605.33   633.00   646.04   668.54
eigval :      674.19   706.32   746.61   759.79   767.40   773.86
eigval :      798.22   814.11   856.91   862.72   868.01   879.58
eigval :      889.59   893.26   906.88   907.54   918.95   920.42
eigval :      934.29   940.75   953.19   959.45   967.78   986.86
eigval :     1007.03  1025.59  1042.41  1064.92  1068.02  1095.78
eigval :     1102.72  1115.56  1128.66  1138.45  1165.18  1172.98
eigval :     1176.34  1187.28  1206.26  1215.66  1219.44  1230.03
eigval :     1241.59  1249.12  1260.46  1267.00  1278.95  1288.40
eigval :     1321.20  1329.74  1344.69  1368.47  1381.27  1385.00
eigval :     1391.01  1398.77  1413.08  1422.07  1452.95  1463.17
eigval :     1474.78  1475.58  1477.37  1481.78  1487.79  1489.80
eigval :     1500.49  1505.10  1553.78  1557.58  1559.59  1586.00
eigval :     1598.44  3021.93  3033.01  3038.27  3039.39  3039.89
eigval :     3041.38  3046.08  3050.48  3059.85  3086.66  3088.08
eigval :     3089.03  3093.75  3094.30  3095.60  3100.36  3101.65
eigval :     3106.90  3107.26  3108.01

   temp. (K)  partition function   enthalpy   heat capacity  entropy
                                   cal/mol     cal/K/mol   cal/K/mol   J/K/mol
 298.15  VIB  0.389E+10            14276.835     92.432     85.616
         ROT  0.187E+08              888.752      2.981     36.252
         INT  0.726E+17            15165.588     95.413    121.868
         TR   0.787E+28             1481.254      4.968     43.864
         TOT                       16646.8415   100.3814   165.7312   693.4192

       T/K    H(0)-H(T)+PV         H(T)/Eh          T*S/Eh         G(T)/Eh
   ------------------------------------------------------------------------
    298.15    0.265284E-01    0.396743E+00    0.787442E-01    0.317999E+00
   ------------------------------------------------------------------------

         :::::::::::::::::::::::::::::::::::::::::::::::::::::
         ::                  THERMODYNAMIC                  ::
         :::::::::::::::::::::::::::::::::::::::::::::::::::::
         :: total free energy         -80.399377949811 Eh   ::
         ::.................................................::
         :: total energy              -80.717376567544 Eh   ::
         :: zero point energy           0.370214411125 Eh   ::
         :: G(RRHO) w/o ZPVE           -0.052215793392 Eh   ::
         :: G(RRHO) contrib.            0.317998617733 Eh   ::
         :::::::::::::::::::::::::::::::::::::::::::::::::::::

           -------------------------------------------------
          | TOTAL ENERGY              -80.717376567544 Eh   |
          | TOTAL ENTHALPY            -80.320633725879 Eh   |
          | TOTAL FREE ENERGY         -80.399377949811 Eh   |
          | GRADIENT NORM               0.000026468994 Eh/α |
           -------------------------------------------------

 * finished run on 2025/08/23 at 09:18:06.189
