   * xtb version 6.7.1 (edcfbbe) compiled by 'albert@albert-system' on 2024-07-22

   ID    Z sym.   atoms
    1    6 C      1-4, 6, 8-11, 13-26
    2    7 N      5, 12
    3    8 O      7, 28, 29
    4   16 S      27
    5    1 H      30-49

          program call               : xtb data2507/gas/6-Cz-Sac/6-Cz-Sac_gas_S0_finalOpt.xtbopt.xyz --gfn 2 --spinpol --tblite --uhf 2 --ohess vtight --parallel 40 --molden --ceasefiles --namespace data2507/gas/6-Cz-Sac/6-Cz-Sac_gas_T1_preOpt
 * total energy  :   -80.7098045 Eh     change        0.4478397E-07 Eh
 * total energy  :   -80.7148846 Eh     change       -0.5080048E-02 Eh
 * total energy  :   -80.7166326 Eh     change       -0.1748027E-02 Eh
 * total energy  :   -80.7167941 Eh     change       -0.1615298E-03 Eh
 * total energy  :   -80.7169100 Eh     change       -0.1158997E-03 Eh
 * total energy  :   -80.7169290 Eh     change       -0.1891936E-04 Eh
 * total energy  :   -80.7169536 Eh     change       -0.2464434E-04 Eh
 * total energy  :   -80.7169665 Eh     change       -0.1286077E-04 Eh
 * total energy  :   -80.7169908 Eh     change       -0.2434195E-04 Eh
 * total energy  :   -80.7170187 Eh     change       -0.2787323E-04 Eh
 * total energy  :   -80.7173584 Eh     change       -0.1421062E-05 Eh
 * total energy  :   -80.7173599 Eh     change       -0.1492882E-05 Eh
 * total energy  :   -80.7173612 Eh     change       -0.1385087E-05 Eh
 * total energy  :   -80.7173626 Eh     change       -0.1322763E-05 Eh
 * total energy  :   -80.7173638 Eh     change       -0.1196337E-05 Eh
 * total energy  :   -80.7173649 Eh     change       -0.1140744E-05 Eh
 * total energy  :   -80.7173660 Eh     change       -0.1094324E-05 Eh
 * total energy  :   -80.7173671 Eh     change       -0.1054653E-05 Eh
 * total energy  :   -80.7173671 Eh     change       -0.7048811E-08 Eh
   *** GEOMETRY OPTIMIZATION CONVERGED AFTER 44 ITERATIONS ***

 final structure:
================
49
 xtb: 6.7.1 (edcfbbe)
C            5.57776798950823        1.18939844855111        0.90308230864841
C            5.19081137255563        0.00994647767537        0.00173365356926
C            5.56971841013377       -1.30474782126502        0.68829570254514
C            5.89306815332017        0.10371939646037       -1.35351616306582
N            3.74450777059081        0.02404503466883       -0.20495621177146
C            3.10262567024337        1.07880932555702       -0.86280399126471
O            3.71300035654792        1.97898971871029       -1.46148326029666
C            1.69615772044663        0.98202569527277       -0.71028326790066
C            0.71459888481365        1.84362179152291       -1.27721070398818
C           -0.60204771988454        1.56818583853872       -1.09178986592086
C           -1.02864094092811        0.44482084147456       -0.31035950996580
N           -2.37835360277829        0.17040735526467       -0.15358781627380
C           -3.36104934061846        1.08727143708472        0.15630981932669
C           -3.24457136973151        2.44296623847393        0.44116945477792
C           -4.40061994106913        3.14059442755978        0.74078941832504
C           -5.64149111097510        2.50795466982480        0.77232718922125
C           -5.75999222531627        1.14919893912848        0.52328137077709
C           -4.61669716609663        0.42979982742422        0.22099282093168
C           -4.36143375694605       -0.95944072701009       -0.05626742845932
C           -5.17064837770484       -2.07937299459221       -0.14492531794305
C           -4.58669161839677       -3.29424205222847       -0.46890662124980
C           -3.21989390465586       -3.39214955220345       -0.72006929986731
C           -2.39120237572793       -2.28779455399071       -0.63642682862921
C           -2.96572628361049       -1.07285196293520       -0.28161346531904
C           -0.06231632858256       -0.37925216052230        0.30552058986405
C            1.25032660795297       -0.08921645659279        0.11745056168009
S            2.68657817316088       -0.85903594914585        0.79328379124684
O            2.89428527114699       -0.51624228718762        2.17191581368690
O            2.74966383050849       -2.25146644338407        0.45999113418222
H            5.33449391165131        2.12520025315003        0.40500610352636
H            5.02699105422281        1.12993769859720        1.83943663065586
H            6.64381016563539        1.16535849315841        1.11255070083695
H            5.22571016151381       -2.15164757489500        0.10060672702217
H            5.11426238686071       -1.36482296720617        1.67274397890730
H            6.65082755387286       -1.35574833956676        0.79309340611776
H            5.61023802045860       -0.73741205722791       -1.98197697316798
H            5.60346151454178        1.02526508329279       -1.85496320747775
H            6.97037999283818        0.09965092793318       -1.21172866605183
H            1.04745799937082        2.67106848551246       -1.88307819797013
H           -1.36051808873849        2.15801102245947       -1.58393048774978
H           -2.28288140322867        2.93118745109476        0.44919203254189
H           -4.33887073353541        4.19457422603184        0.96399757385701
H           -6.52212922589412        3.08501395094408        1.00989916240725
H           -6.72092566327193        0.66044932756301        0.56988841213140
H           -6.23310576334727       -2.00510921718310        0.02871303090872
H           -5.20127945725009       -4.17858420317626       -0.54086208435701
H           -2.79866073944523       -4.34794314125527       -0.99065021739187
H           -1.33748642914630       -2.36732659253034       -0.85312744382085
H           -0.36424929755335       -1.18052863145908        0.96205961202870

 projected vibrational frequencies (cm⁻¹)
eigval :       -0.00    -0.00    -0.00    -0.00     0.00     0.00
eigval :       21.16    28.75    38.40    44.89    54.79    96.68
eigval :       97.60   119.42   126.74   137.03   141.00   157.04
eigval :      197.09   214.47   237.98   246.41   251.25   259.00
eigval :      267.84   271.98   281.57   286.41   302.13   316.37
eigval :      350.75   365.48   370.10   379.00   383.35   401.79
eigval :      415.13   420.84   433.75   456.99   470.06   486.10
eigval :      510.43   516.39   529.88   533.64   539.29   552.34
eigval :      558.61   581.96   605.28   632.92   646.23   668.55
eigval :      674.25   706.48   746.60   759.72   767.49   773.91
eigval :      797.88   814.12   857.10   862.91   868.05   879.40
eigval :      889.48   893.25   906.77   907.52   918.88   920.46
eigval :      934.27   940.69   953.19   959.98   967.13   986.89
eigval :     1007.00  1025.75  1042.47  1064.63  1067.74  1095.41
eigval :     1102.77  1115.77  1128.69  1138.28  1165.50  1173.11
eigval :     1176.36  1187.10  1206.14  1215.99  1219.58  1229.87
eigval :     1241.39  1249.09  1260.74  1267.38  1279.21  1288.47
eigval :     1321.38  1329.67  1344.72  1368.20  1381.45  1384.94
eigval :     1391.24  1399.24  1413.42  1422.18  1453.19  1463.74
eigval :     1474.98  1475.66  1477.52  1481.75  1487.72  1489.74
eigval :     1500.73  1505.31  1554.04  1558.02  1559.75  1586.07
eigval :     1598.69  3022.99  3033.00  3038.13  3039.17  3040.01
eigval :     3041.62  3046.15  3050.71  3059.60  3086.86  3088.28
eigval :     3089.21  3093.67  3094.44  3095.71  3100.59  3101.70
eigval :     3107.24  3107.47  3107.83

   temp. (K)  partition function   enthalpy   heat capacity  entropy
                                   cal/mol     cal/K/mol   cal/K/mol   J/K/mol
 298.15  VIB  0.412E+10            14281.711     92.374     85.627
         ROT  0.187E+08              888.752      2.981     36.251
         INT  0.768E+17            15170.463     95.354    121.878
         TR   0.787E+28             1481.254      4.968     43.864
         TOT                       16651.7170   100.3226   165.7413   693.4616

       T/K    H(0)-H(T)+PV         H(T)/Eh          T*S/Eh         G(T)/Eh
   ------------------------------------------------------------------------
    298.15    0.265362E-01    0.396755E+00    0.787490E-01    0.318006E+00
   ------------------------------------------------------------------------

         :::::::::::::::::::::::::::::::::::::::::::::::::::::
         ::                  THERMODYNAMIC                  ::
         :::::::::::::::::::::::::::::::::::::::::::::::::::::
         :: total free energy         -80.399360703941 Eh   ::
         ::.................................................::
         :: total energy              -80.717367063214 Eh   ::
         :: zero point energy           0.370219196199 Eh   ::
         :: G(RRHO) w/o ZPVE           -0.052212836927 Eh   ::
         :: G(RRHO) contrib.            0.318006359272 Eh   ::
         :::::::::::::::::::::::::::::::::::::::::::::::::::::

           -------------------------------------------------
          | TOTAL ENERGY              -80.717367063214 Eh   |
          | TOTAL ENTHALPY            -80.320611666935 Eh   |
          | TOTAL FREE ENERGY         -80.399360703941 Eh   |
          | GRADIENT NORM               0.000071630182 Eh/α |
           -------------------------------------------------

 * finished run on 2025/08/23 at 09:15:25.711
