   * xtb version 6.7.1 (edcfbbe) compiled by 'albert@albert-system' on 2024-07-22

   ID    Z sym.   atoms
    1    6 C      1-4, 6, 8-11, 13-26
    2    7 N      5, 12
    3    8 O      7, 28, 29
    4   16 S      27
    5    1 H      30-49

          program call               : xtb data2507/gas/6-Cz-Sac/6-Cz-Sac.xyz --gfn 2 --ohess vtight --parallel 40 --molden --ceasefiles --namespace data2507/gas/6-Cz-Sac/6-Cz-Sac_gas_S0_preOpt
          :  Hamiltonian                  GFN2-xTB          :
 * total energy  :   -80.7945559 Eh     change       -0.2161215E-08 Eh
 * total energy  :   -80.8071405 Eh     change       -0.1258460E-01 Eh
 * total energy  :   -80.8112433 Eh     change       -0.4102717E-02 Eh
 * total energy  :   -80.8120361 Eh     change       -0.7928166E-03 Eh
 * total energy  :   -80.8124306 Eh     change       -0.3945035E-03 Eh
 * total energy  :   -80.8125668 Eh     change       -0.1362044E-03 Eh
 * total energy  :   -80.8126389 Eh     change       -0.7207844E-04 Eh
 * total energy  :   -80.8126734 Eh     change       -0.3455141E-04 Eh
 * total energy  :   -80.8127034 Eh     change       -0.2999232E-04 Eh
 * total energy  :   -80.8127198 Eh     change       -0.1636241E-04 Eh
 * total energy  :   -80.8129373 Eh     change       -0.1400031E-05 Eh
 * total energy  :   -80.8129388 Eh     change       -0.1492219E-05 Eh
 * total energy  :   -80.8129402 Eh     change       -0.1426761E-05 Eh
 * total energy  :   -80.8129414 Eh     change       -0.1161556E-05 Eh
 * total energy  :   -80.8129422 Eh     change       -0.8093146E-06 Eh
 * total energy  :   -80.8129428 Eh     change       -0.5772879E-06 Eh
 * total energy  :   -80.8129432 Eh     change       -0.4286467E-06 Eh
 * total energy  :   -80.8129436 Eh     change       -0.3451093E-06 Eh
 * total energy  :   -80.8129436 Eh     change       -0.3446686E-08 Eh
   *** GEOMETRY OPTIMIZATION CONVERGED AFTER 68 ITERATIONS ***

 final structure:
================
49
 xtb: 6.7.1 (edcfbbe)
C            5.63964023654741        1.30332131440283        0.66534421252530
C            5.08474063473373       -0.02392314665271        0.14099890259057
C            5.42340758016126       -1.14711720485599        1.11830760914908
C            5.65503889535224       -0.35079845659382       -1.24196915571626
N            3.61811857939943        0.08545801609102        0.03163451025748
C            3.00478850353703        1.00743749892746       -0.76423529854978
O            3.55960093030981        1.83053864455139       -1.46040355053095
C            1.53119830916243        0.86648157797506       -0.66513582830735
C            0.59814883187310        1.63840117538131       -1.34624944783466
C           -0.74620561228936        1.37732021787054       -1.16246415389426
C           -1.17393361174893        0.36207541986202       -0.29891679721118
N           -2.52861002498090        0.10685868041888       -0.13298783951775
C           -3.51909257827089        1.05552335308111        0.07799806998665
C           -3.40989914322234        2.42774916285115        0.24392056602913
C           -4.56878305400443        3.14319590845464        0.48393152688167
C           -5.80774542147081        2.51411892000817        0.56876894255972
C           -5.91767456957167        1.14402074239224        0.43549435265406
C           -4.76715358000071        0.40565034196626        0.19437891009170
C           -4.51622153300152       -1.00145765242329        0.03698897171822
C           -5.34172048746790       -2.11762612723768        0.02682114628656
C           -4.77246109655947       -3.35790441627295       -0.18391893567029
C           -3.40346824953523       -3.48852681459035       -0.40092739762227
C           -2.56218982096348       -2.39089010319834       -0.39547405658478
C           -3.12497052235566       -1.14678074093616       -0.15415012023730
C           -0.22816081060696       -0.40559174427142        0.39579253254103
C            1.09975680420152       -0.13405863521160        0.18717814102090
S            2.53575059654430       -0.92096320443917        0.88382078094084
O            2.63868961585129       -0.67924142521751        2.28871157604786
O            2.65385048462573       -2.27067981973295        0.42687621980808
H            5.41612863462675        2.10748248744744       -0.02991559604250
H            5.19590484319382        1.53581106144125        1.63089214611098
H            6.71733385713609        1.22821825480672        0.78144890619435
H            5.01929619424353       -2.09389943099618        0.77092286663036
H            5.01206413637862       -0.93796231188629        2.10188000886872
H            6.50419614984869       -1.23479452932337        1.20027148937236
H            5.22459934703251       -1.27914134597507       -1.61097450096090
H            5.42800053007946        0.44789290357252       -1.94245584837961
H            6.73359146780468       -0.46405656709465       -1.17544609368283
H            0.93585619286774        2.41419001839876       -2.01556673146813
H           -1.48557619013002        1.94276704369816       -1.70881274218311
H           -2.45343109171367        2.92624556654100        0.20589495232898
H           -4.50913022511968        4.21345707820178        0.61314725370370
H           -6.68997279755789        3.10799128049366        0.75402209012280
H           -6.87416735245604        0.65199133904456        0.52301508955998
H           -6.40549378615983       -2.01170451349252        0.17464906838688
H           -5.39508086033293       -4.23971665634237       -0.19281022608900
H           -2.98744843970042       -4.46810691354902       -0.58185431396512
H           -1.50640083721113       -2.50712172254943       -0.58731150177353
H           -0.53470665908121       -1.17213652503445        1.08887029385561

          :  Hamiltonian                  GFN2-xTB          :
         :: gradient norm              0.000044543849 Eh/a0 ::
         :: HOMO-LUMO gap              2.322072213503 eV    ::
         :: SCC energy               -82.044639018974 Eh    ::
         :: -> dispersion             -0.065394874248 Eh    ::
         :: repulsion energy           1.231695458838 Eh    ::

    * Orbital Energies and Occupations

         #    Occupation            Energy/Eh            Energy/eV
      -------------------------------------------------------------
         1        2.0000           -0.7951571             -21.6373
       ...           ...                  ...                  ...
        61        2.0000           -0.4509411             -12.2707
        62        2.0000           -0.4475481             -12.1784
        63        2.0000           -0.4451880             -12.1142
        64        2.0000           -0.4404484             -11.9852
        65        2.0000           -0.4353500             -11.8465
        66        2.0000           -0.4341340             -11.8134
        67        2.0000           -0.4303627             -11.7108
        68        2.0000           -0.4298951             -11.6980
        69        2.0000           -0.4179498             -11.3730
        70        2.0000           -0.4173468             -11.3566
        71        2.0000           -0.4093415             -11.1387
        72        2.0000           -0.3915044             -10.6534
        73        2.0000           -0.3798638             -10.3366 (HOMO)
        74                         -0.2945292              -8.0145 (LUMO)
        75                         -0.2728393              -7.4243
        76                         -0.2568586              -6.9895
        77                         -0.2345517              -6.3825
        78                         -0.2201696              -5.9911
        79                         -0.1983266              -5.3967
        80                         -0.1966610              -5.3514
        81                         -0.1597485              -4.3470
        82                         -0.1285589              -3.4983
        83                         -0.1283090              -3.4915
        84                         -0.1036437              -2.8203
       ...                                ...                  ...
       141                          1.2495862              34.0030
      -------------------------------------------------------------
                  HL-Gap            0.0853346 Eh            2.3221 eV

     #   Z          covCN         q      C6AA      α(0)
     1   6 C        3.759    -0.120    22.850     6.815
     2   6 C        3.857     0.101    18.886     6.181
     3   6 C        3.767    -0.134    23.124     6.853
     4   6 C        3.759    -0.120    22.848     6.815
     5   7 N        2.755    -0.260    26.731     7.679
     6   6 C        2.921     0.275    22.357     7.754
     7   8 O        0.857    -0.402    21.722     6.249
     8   6 C        3.157    -0.034    28.515     8.731
     9   6 C        2.918    -0.012    28.316     8.726
    10   6 C        2.923    -0.040    28.999     8.831
    11   6 C        2.916     0.080    26.221     8.397
    12   7 N        2.801    -0.036    21.939     6.957
    13   6 C        3.066     0.045    26.920     8.508
    14   6 C        2.910    -0.050    29.253     8.869
    15   6 C        2.924    -0.031    28.780     8.798
    16   6 C        2.920    -0.038    28.936     8.821
    17   6 C        2.913    -0.031    28.774     8.796
    18   6 C        3.066    -0.012    28.255     8.716
    19   6 C        3.066    -0.012    28.257     8.717
    20   6 C        2.913    -0.031    28.776     8.796
    21   6 C        2.920    -0.037    28.927     8.820
    22   6 C        2.924    -0.030    28.758     8.794
    23   6 C        2.910    -0.050    29.243     8.867
    24   6 C        3.066     0.045    26.928     8.509
    25   6 C        2.930    -0.034    28.846     8.808
    26   6 C        2.986    -0.093    30.320     9.032
    27  16 S        3.973     1.159   102.222    17.017
    28   8 O        0.860    -0.551    24.938     6.695
    29   8 O        0.860    -0.552    24.966     6.699
    30   1 H        0.925     0.069     2.098     2.265
    31   1 H        0.925     0.045     2.388     2.417
    32   1 H        0.925     0.053     2.281     2.362
    33   1 H        0.925     0.058     2.220     2.330
    34   1 H        0.925     0.059     2.216     2.328
    35   1 H        0.925     0.057     2.232     2.336
    36   1 H        0.925     0.045     2.386     2.416
    37   1 H        0.925     0.068     2.106     2.269
    38   1 H        0.925     0.053     2.280     2.361
    39   1 H        0.926     0.081     1.971     2.196
    40   1 H        0.926     0.069     2.096     2.264
    41   1 H        0.926     0.031     2.577     2.510
    42   1 H        0.926     0.036     2.503     2.474
    43   1 H        0.926     0.035     2.515     2.480
    44   1 H        0.926     0.038     2.482     2.464
    45   1 H        0.926     0.038     2.482     2.464
    46   1 H        0.926     0.036     2.506     2.475
    47   1 H        0.926     0.038     2.476     2.461
    48   1 H        0.926     0.031     2.567     2.506
    49   1 H        0.926     0.069     2.100     2.266

molecular dipole:
                 x           y           z       tot (Debye)
 q only:       -1.168       0.495      -0.485
   full:       -1.082       0.418      -0.406       3.123

 projected vibrational frequencies (cm⁻¹)
eigval :       -0.00    -0.00    -0.00     0.00     0.00     0.00
eigval :       16.06    23.19    31.58    37.72    57.34    98.61
eigval :      101.79   123.93   131.78   132.37   140.81   153.21
eigval :      199.40   208.27   237.64   243.37   247.46   262.33
eigval :      270.80   272.32   284.03   295.30   317.28   319.73
eigval :      356.30   372.93   378.13   390.92   399.04   419.65
eigval :      423.44   424.54   439.95   481.33   482.58   516.24
eigval :      516.85   526.24   538.19   541.05   544.80   559.28
eigval :      586.82   607.37   652.87   654.04   673.73   684.04
eigval :      709.41   719.65   752.01   767.92   771.67   782.73
eigval :      819.60   841.10   869.86   877.56   882.91   892.70
eigval :      897.54   905.00   909.28   921.90   926.42   933.07
eigval :      949.55   955.67   966.94   969.37   988.10  1012.29
eigval :     1027.35  1037.41  1050.11  1072.33  1076.16  1110.13
eigval :     1129.22  1141.04  1153.28  1168.85  1179.56  1180.50
eigval :     1198.45  1209.99  1226.47  1234.54  1237.93  1245.67
eigval :     1256.79  1272.89  1277.21  1293.33  1298.38  1326.64
eigval :     1356.06  1358.71  1362.03  1392.40  1398.73  1411.96
eigval :     1420.49  1422.07  1426.36  1471.46  1472.59  1474.82
eigval :     1484.00  1485.42  1486.75  1489.37  1491.17  1505.36
eigval :     1552.29  1576.64  1589.36  1594.79  1599.21  1612.03
eigval :     1728.86  3034.69  3035.98  3037.38  3044.00  3049.81
eigval :     3056.33  3057.63  3058.67  3062.19  3082.19  3083.23
eigval :     3086.75  3087.71  3093.59  3095.23  3098.52  3100.82
eigval :     3102.07  3108.25  3112.47

   temp. (K)  partition function   enthalpy   heat capacity  entropy
                                   cal/mol     cal/K/mol   cal/K/mol   J/K/mol
 298.15  VIB  0.656E+10            14045.926     90.267     84.539
         ROT  0.187E+08              888.752      2.981     36.260
         INT  0.123E+18            14934.678     93.248    120.799
         TR   0.787E+28             1481.254      4.968     43.864
         TOT                       16415.9323    98.2159   164.6624   688.9473

       T/K    H(0)-H(T)+PV         H(T)/Eh          T*S/Eh         G(T)/Eh
   ------------------------------------------------------------------------
    298.15    0.261605E-01    0.400813E+00    0.782364E-01    0.322577E+00
   ------------------------------------------------------------------------

         :::::::::::::::::::::::::::::::::::::::::::::::::::::
         ::                  THERMODYNAMIC                  ::
         :::::::::::::::::::::::::::::::::::::::::::::::::::::
         :: total free energy         -80.490366643858 Eh   ::
         ::.................................................::
         :: total energy              -80.812943560136 Eh   ::
         :: zero point energy           0.374652865695 Eh   ::
         :: G(RRHO) w/o ZPVE           -0.052075949417 Eh   ::
         :: G(RRHO) contrib.            0.322576916278 Eh   ::
         :::::::::::::::::::::::::::::::::::::::::::::::::::::

           -------------------------------------------------
          | TOTAL ENERGY              -80.812943560136 Eh   |
          | TOTAL ENTHALPY            -80.412130241144 Eh   |
          | TOTAL FREE ENERGY         -80.490366643858 Eh   |
          | GRADIENT NORM               0.000044546682 Eh/α |
          | HOMO-LUMO GAP               2.322072510068 eV   |
           -------------------------------------------------

 * finished run on 2025/08/23 at 09:13:26.761
