   * xtb version 6.7.1 (edcfbbe) compiled by 'albert@albert-system' on 2024-07-22

   ID    Z sym.   atoms
    1    6 C      1-4, 6, 8-11, 13-26
    2    7 N      5, 12
    3    8 O      7, 28, 29
    4   16 S      27
    5    1 H      30-49

          program call               : xtb data2507/gas/6-Cz-Sac/6-Cz-Sac_gas_S0_crest.xyz --gfn 2 --ohess vtight --parallel 40 --molden --ceasefiles --namespace data2507/gas/6-Cz-Sac/6-Cz-Sac_gas_S0_finalOpt
          :  Hamiltonian                  GFN2-xTB          :
 * total energy  :   -80.8129495 Eh     change       -0.9174386E-09 Eh
 * total energy  :   -80.8129501 Eh     change       -0.5844333E-06 Eh
 * total energy  :   -80.8129507 Eh     change       -0.5271937E-06 Eh
 * total energy  :   -80.8129517 Eh     change       -0.1092822E-05 Eh
 * total energy  :   -80.8129529 Eh     change       -0.1147317E-05 Eh
 * total energy  :   -80.8129535 Eh     change       -0.5703033E-06 Eh
 * total energy  :   -80.8129536 Eh     change       -0.1780967E-06 Eh
 * total energy  :   -80.8129537 Eh     change       -0.8857054E-07 Eh
   *** GEOMETRY OPTIMIZATION CONVERGED AFTER 8 ITERATIONS ***

 final structure:
================
49
 xtb: 6.7.1 (edcfbbe)
C            5.75834153802067        1.30070918767154        0.76529417380043
C            5.22985995865639        0.05337428401573        0.05174444948550
C            5.58104282004531       -1.19371274672836        0.85974779233287
C            5.81511399864037       -0.06336740706358       -1.35844570746654
N            3.76230059338731        0.15500226578993       -0.05229909397614
C            3.13891483618519        1.16338099451928       -0.72634979147113
O            3.68477263508122        2.06914665768642       -1.31930335462273
C            1.66684476071680        1.00192903832381       -0.63728778221773
C            0.72529544104825        1.83486975016166       -1.22892564992702
C           -0.61641947277750        1.54809500607669       -1.06543370324533
C           -1.03350483841041        0.44747141373715       -0.30762691100434
N           -2.38573347317949        0.17067192853191       -0.15820260636981
C           -3.37834520759297        1.08972893690959        0.15179005924110
C           -3.27383142252315        2.44004378058162        0.44887060205948
C           -4.43385958191572        3.12328490190415        0.76515510203924
C           -5.66947390607011        2.48292553065641        0.79800043830526
C           -5.77442993377805        1.13139944645840        0.53466259364361
C           -4.62266474930749        0.42553382569833        0.21499488288974
C           -4.36728803554471       -0.95869425527393       -0.07882525325990
C           -5.18843236479499       -2.07274677792419       -0.18811961759306
C           -4.61627994782119       -3.28446458541717       -0.52145582550788
C           -3.24899961763479       -3.38681040354834       -0.76291111393369
C           -2.41210220674778       -2.29058547050977       -0.66024857202044
C           -2.97726357329435       -1.07809382879774       -0.29513711240734
C           -0.07901886906218       -0.38266050439358        0.29772627601113
C            1.24606307924385       -0.08416732405757        0.10902610518691
S            2.69066225517796       -0.93291813050539        0.70848004290006
O            2.81056280742727       -0.83041247261875        2.12921913722093
O            2.80374526628837       -2.23078664454709        0.11975991696772
H            5.52426485008145        2.19203587376994        0.18993141441436
H            5.30435124687644        1.38473748650536        1.75026768285095
H            6.83652969405556        1.22861526289687        0.87871211159156
H            5.19150252800954       -2.08613504727983        0.37777874056194
H            5.16344405064174       -1.13364277265617        1.86089645743596
H            6.66266989716735       -1.27747316132351        0.93443563040015
H            5.40283610823357       -0.93553784333141       -1.86093371749268
H            5.58084855016174        0.82365228296675       -1.93996831007686
H            6.89477289401357       -0.16910316539966       -1.29771342348535
H            1.05448979723497        2.67800032910504       -1.81598870578472
H           -1.36202615826027        2.16219435333381       -1.54687902250827
H           -2.31998199226777        2.94489101948743        0.45265699119097
H           -4.37765169345410        4.17640764166100        0.99642449077147
H           -6.55279363269037        3.05185820010775        1.04575518474570
H           -6.72801322801264        0.62831217342386        0.58164328651396
H           -6.25113668110303       -1.98656959128788       -0.02103737240342
H           -5.23534016096909       -4.16453232327691       -0.60845629469253
H           -2.83076409438807       -4.34249120775790       -1.04064305452664
H           -1.35792900132376       -2.38299289646492       -0.87269066956883
H           -0.37669404287105       -1.21779510911654        0.91075333870130

          :  Hamiltonian                  GFN2-xTB          :
         :: gradient norm              0.000043701713 Eh/a0 ::
         :: HOMO-LUMO gap              2.325799184253 eV    ::
         :: SCC energy               -82.044630759285 Eh    ::
         :: -> dispersion             -0.065400852610 Eh    ::
         :: repulsion energy           1.231677026007 Eh    ::

    * Orbital Energies and Occupations

         #    Occupation            Energy/Eh            Energy/eV
      -------------------------------------------------------------
         1        2.0000           -0.7950994             -21.6358
       ...           ...                  ...                  ...
        61        2.0000           -0.4509062             -12.2698
        62        2.0000           -0.4475106             -12.1774
        63        2.0000           -0.4451943             -12.1144
        64        2.0000           -0.4404184             -11.9844
        65        2.0000           -0.4353653             -11.8469
        66        2.0000           -0.4341359             -11.8134
        67        2.0000           -0.4303803             -11.7112
        68        2.0000           -0.4299234             -11.6988
        69        2.0000           -0.4179946             -11.3742
        70        2.0000           -0.4172999             -11.3553
        71        2.0000           -0.4092780             -11.1370
        72        2.0000           -0.3915533             -10.6547
        73        2.0000           -0.3799244             -10.3383 (HOMO)
        74                         -0.2944531              -8.0125 (LUMO)
        75                         -0.2727665              -7.4224
        76                         -0.2569007              -6.9906
        77                         -0.2346096              -6.3841
        78                         -0.2202103              -5.9922
        79                         -0.1983724              -5.3980
        80                         -0.1966270              -5.3505
        81                         -0.1596323              -4.3438
        82                         -0.1287771              -3.5042
        83                         -0.1279405              -3.4814
        84                         -0.1036503              -2.8205
       ...                                ...                  ...
       141                          1.2496614              34.0050
      -------------------------------------------------------------
                  HL-Gap            0.0854713 Eh            2.3258 eV

     #   Z          covCN         q      C6AA      α(0)
     1   6 C        3.759    -0.120    22.849     6.815
     2   6 C        3.857     0.101    18.886     6.181
     3   6 C        3.767    -0.134    23.123     6.853
     4   6 C        3.759    -0.120    22.849     6.815
     5   7 N        2.755    -0.260    26.732     7.679
     6   6 C        2.921     0.275    22.357     7.754
     7   8 O        0.857    -0.402    21.722     6.249
     8   6 C        3.157    -0.034    28.516     8.731
     9   6 C        2.918    -0.012    28.316     8.726
    10   6 C        2.923    -0.040    29.002     8.831
    11   6 C        2.916     0.080    26.222     8.397
    12   7 N        2.801    -0.036    21.937     6.956
    13   6 C        3.065     0.045    26.921     8.508
    14   6 C        2.910    -0.050    29.253     8.869
    15   6 C        2.924    -0.031    28.780     8.798
    16   6 C        2.920    -0.038    28.935     8.821
    17   6 C        2.913    -0.031    28.774     8.796
    18   6 C        3.066    -0.012    28.255     8.716
    19   6 C        3.066    -0.012    28.256     8.716
    20   6 C        2.913    -0.031    28.776     8.796
    21   6 C        2.920    -0.037    28.926     8.820
    22   6 C        2.924    -0.030    28.758     8.794
    23   6 C        2.910    -0.050    29.243     8.867
    24   6 C        3.066     0.045    26.929     8.509
    25   6 C        2.930    -0.034    28.849     8.808
    26   6 C        2.986    -0.093    30.321     9.033
    27  16 S        3.973     1.158   102.223    17.017
    28   8 O        0.860    -0.552    24.957     6.698
    29   8 O        0.860    -0.551    24.949     6.697
    30   1 H        0.925     0.068     2.112     2.272
    31   1 H        0.925     0.045     2.385     2.415
    32   1 H        0.925     0.053     2.280     2.361
    33   1 H        0.925     0.058     2.219     2.329
    34   1 H        0.925     0.058     2.218     2.329
    35   1 H        0.925     0.057     2.232     2.336
    36   1 H        0.925     0.045     2.389     2.417
    37   1 H        0.925     0.069     2.093     2.262
    38   1 H        0.925     0.053     2.282     2.362
    39   1 H        0.926     0.081     1.972     2.196
    40   1 H        0.926     0.069     2.096     2.264
    41   1 H        0.926     0.031     2.575     2.509
    42   1 H        0.926     0.036     2.503     2.474
    43   1 H        0.926     0.035     2.514     2.480
    44   1 H        0.926     0.038     2.481     2.463
    45   1 H        0.926     0.038     2.482     2.463
    46   1 H        0.926     0.036     2.505     2.475
    47   1 H        0.926     0.038     2.476     2.461
    48   1 H        0.926     0.031     2.565     2.505
    49   1 H        0.926     0.069     2.100     2.266

molecular dipole:
                 x           y           z       tot (Debye)
 q only:       -1.180       0.526      -0.436
   full:       -1.093       0.443      -0.365       3.138

 projected vibrational frequencies (cm⁻¹)
eigval :       -0.00    -0.00    -0.00     0.00     0.00     0.00
eigval :       16.19    23.23    31.78    37.77    57.38    98.66
eigval :      101.93   124.66   131.30   132.19   140.73   153.71
eigval :      199.58   208.08   237.69   243.99   246.87   262.42
eigval :      271.09   272.41   284.39   294.74   316.96   320.37
eigval :      356.33   373.02   378.20   390.77   399.07   419.53
eigval :      423.51   424.59   440.10   480.73   483.31   516.22
eigval :      516.93   526.40   538.14   541.04   544.59   559.78
eigval :      586.80   607.25   652.81   654.20   673.77   684.03
eigval :      709.45   719.60   752.01   767.92   771.69   782.75
eigval :      819.60   841.16   869.81   877.67   882.93   892.79
eigval :      897.50   905.03   909.42   921.89   926.52   933.33
eigval :      949.54   955.68   966.94   969.36   987.99  1012.26
eigval :     1027.31  1037.41  1050.09  1072.48  1076.31  1110.24
eigval :     1129.25  1141.11  1153.40  1168.89  1179.60  1180.50
eigval :     1198.48  1210.09  1226.55  1234.53  1237.95  1245.70
eigval :     1256.77  1272.87  1277.13  1293.13  1298.43  1326.65
eigval :     1356.08  1358.68  1361.95  1392.38  1398.69  1411.96
eigval :     1420.47  1422.05  1426.33  1471.45  1472.57  1474.78
eigval :     1483.98  1485.40  1486.70  1489.28  1491.25  1505.34
eigval :     1552.23  1576.68  1589.30  1594.80  1599.18  1612.00
eigval :     1728.89  3034.67  3036.01  3037.45  3043.97  3049.79
eigval :     3056.12  3057.11  3059.02  3062.29  3082.28  3083.30
eigval :     3086.87  3087.85  3093.70  3095.34  3098.70  3100.87
eigval :     3102.13  3108.32  3112.74

   temp. (K)  partition function   enthalpy   heat capacity  entropy
                                   cal/mol     cal/K/mol   cal/K/mol   J/K/mol
 298.15  VIB  0.641E+10            14043.515     90.268     84.512
         ROT  0.187E+08              888.752      2.981     36.260
         INT  0.120E+18            14932.268     93.249    120.772
         TR   0.787E+28             1481.254      4.968     43.864
         TOT                       16413.5217    98.2169   164.6351   688.8334

       T/K    H(0)-H(T)+PV         H(T)/Eh          T*S/Eh         G(T)/Eh
   ------------------------------------------------------------------------
    298.15    0.261566E-01    0.400819E+00    0.782235E-01    0.322596E+00
   ------------------------------------------------------------------------

         :::::::::::::::::::::::::::::::::::::::::::::::::::::
         ::                  THERMODYNAMIC                  ::
         :::::::::::::::::::::::::::::::::::::::::::::::::::::
         :: total free energy         -80.490357855378 Eh   ::
         ::.................................................::
         :: total energy              -80.812953733309 Eh   ::
         :: zero point energy           0.374662728358 Eh   ::
         :: G(RRHO) w/o ZPVE           -0.052066850426 Eh   ::
         :: G(RRHO) contrib.            0.322595877931 Eh   ::
         :::::::::::::::::::::::::::::::::::::::::::::::::::::

           -------------------------------------------------
          | TOTAL ENERGY              -80.812953733309 Eh   |
          | TOTAL ENTHALPY            -80.412134393137 Eh   |
          | TOTAL FREE ENERGY         -80.490357855378 Eh   |
          | GRADIENT NORM               0.000043679376 Eh/α |
          | HOMO-LUMO GAP               2.325791144612 eV   |
           -------------------------------------------------

 * finished run on 2025/08/23 at 09:15:21.089
