   * xtb version 6.7.1 (edcfbbe) compiled by 'albert@albert-system' on 2024-07-22

   ID    Z sym.   atoms
    1    6 C      1-4, 6-22, 24-44
    2   14 Si     5, 23
    3    1 H      45-78

          program call               : xtb data2507/toluene/UGH3/UGH3_toluene_S0_finalOpt.xtbopt.xyz --gfn 2 --uhf 2 --gbsa toluene --ohess vtight --parallel 40 --molden --ceasefiles --namespace data2507/toluene/UGH3/UGH3_toluene_T1_preOpt
      * Solvation model:               GBSA
        Solvent                        toluene
        Solvent mass                       9.2140E+01 g/mol
          :  Hamiltonian                  GFN2-xTB          :
 * total energy  :  -110.5107408 Eh     change       -0.1128399E-07 Eh
 * total energy  :  -110.5131115 Eh     change       -0.2370648E-02 Eh
 * total energy  :  -110.5140906 Eh     change       -0.9791105E-03 Eh
 * total energy  :  -110.5143498 Eh     change       -0.2592606E-03 Eh
 * total energy  :  -110.5146122 Eh     change       -0.2624044E-03 Eh
 * total energy  :  -110.5147012 Eh     change       -0.8898290E-04 Eh
 * total energy  :  -110.5147781 Eh     change       -0.7688466E-04 Eh
 * total energy  :  -110.5148266 Eh     change       -0.4855159E-04 Eh
 * total energy  :  -110.5148731 Eh     change       -0.4646056E-04 Eh
 * total energy  :  -110.5149288 Eh     change       -0.5566789E-04 Eh
 * total energy  :  -110.5158340 Eh     change       -0.1456080E-05 Eh
 * total energy  :  -110.5158357 Eh     change       -0.1729231E-05 Eh
 * total energy  :  -110.5158375 Eh     change       -0.1773488E-05 Eh
 * total energy  :  -110.5158392 Eh     change       -0.1699791E-05 Eh
 * total energy  :  -110.5158407 Eh     change       -0.1533013E-05 Eh
 * total energy  :  -110.5158421 Eh     change       -0.1397246E-05 Eh
 * total energy  :  -110.5158434 Eh     change       -0.1298647E-05 Eh
 * total energy  :  -110.5158447 Eh     change       -0.1259486E-05 Eh
 * total energy  :  -110.5158447 Eh     change       -0.1188567E-08 Eh
   *** GEOMETRY OPTIMIZATION CONVERGED AFTER 94 ITERATIONS ***

 final structure:
================
78
 xtb: 6.7.1 (edcfbbe)
C            6.34274412011523       -1.58048542801538        2.84233796682434
C            5.69964314038505       -0.37628832725919        3.09837793272451
C            4.60396362218855        0.00075852785729        2.35035366187615
C            4.12197228682432       -0.81761136745929        1.31999510413540
Si           2.77779087180946       -0.12490845215222        0.18189463447596
C            3.00316373900149        1.64960550074333       -0.46233442534457
C            2.07766753877253        2.67829783825121       -0.29048834265448
C            2.36887911651850        3.96852475549999       -0.68652052297339
C            3.60300907508587        4.26610648424027       -1.25075894334671
C            4.54085601508790        3.25654629608809       -1.40944613956621
C            4.24816308902740        1.96540838664177       -1.01691810706126
C            2.63499476305234       -1.25281731462293       -1.32534300347322
C            2.86129292286589       -0.81491130893976       -2.63343735962203
C            2.62072960328860       -1.63748608775058       -3.71421449317142
C            2.12943835877353       -2.92279004521295       -3.52062864180573
C            1.87333520842137       -3.36633759018388       -2.23078811631457
C            2.12256046908227       -2.54548120454437       -1.15043018337473
C            1.23557450687611       -0.00192877008539        1.30118355899611
C            1.20737123922643       -0.21727553289465        2.68261994618638
C            0.00435099438191       -0.32131403531766        3.34684352329983
C           -1.18947046693571       -0.20147658360643        2.64214570936442
C           -1.16562003295310       -0.01481964419916        1.25871398822355
Si          -2.77601819054469        0.10343722066682        0.24164956591770
C           -3.31567822500414        1.91997387891619        0.18766893631842
C           -4.16146572066599        2.36889718830578       -0.82605771453161
C           -4.57300093859484        3.68799409881195       -0.87919518808285
C           -4.14088325344284        4.58946416792493        0.08067444249521
C           -3.29456377707255        4.16135021472179        1.09158236547295
C           -2.88761957280958        2.84052870949713        1.14161610532405
C           -4.08315855546963       -0.96765263579814        1.10259983627594
C           -3.75234478012569       -2.21635597674277        1.62440669046551
C           -4.70604809230976       -3.00605627131725        2.24103906930856
C           -6.01312008644613       -2.55857441523940        2.34769993659395
C           -6.35746214120123       -1.31756597330148        1.83622577179076
C           -5.39966603672199       -0.53101458285013        1.22151253729593
C           -2.42708245353445       -0.53166677328118       -1.50631454553007
C           -1.81474527520165        0.29499117750421       -2.44832693769838
C           -1.53481776364554       -0.16017095819705       -3.72319616606911
C           -1.86497880432135       -1.45634296696445       -4.08494000591590
C           -2.47608447103105       -2.29126822479384       -3.16262854870833
C           -2.75294197654790       -1.83123994854958       -1.88859657476395
C            0.03630943680170        0.08190177093287        0.58916632367746
C            4.78800968578333       -2.01945468421899        1.06271205054473
C            5.88169828038581       -2.39541765000390        1.81377559106745
H            7.19302020185234       -1.88135800235178        3.43651049189102
H            6.05903032928808        0.27125937980556        3.88649593298607
H            4.11819775630745        0.94503543125590        2.55234424645451
H            1.11651800916949        2.46297954417986        0.15254014228795
H            1.63262316515245        4.74941331940431       -0.55537833596008
H            3.83248513548516        5.27613505386923       -1.55799602195626
H            5.50770985084648        3.47782688657438       -1.84070513776604
H            4.98777670214047        1.18685389933938       -1.14094317051195
H            3.23881180224384        0.18402007276502       -2.79818084963063
H            2.81524319408363       -1.28050034809279       -4.71636415785334
H            1.94273907048141       -3.56836888225834       -4.36651183824818
H            1.47725739227558       -4.35997787434470       -2.07100994354965
H            1.91637490719057       -2.90080082997185       -0.15021091690264
H            2.13054423131545       -0.29653398638099        3.23528672192082
H           -0.01122110721856       -0.47953592010033        4.41649900616092
H           -2.13221222198381       -0.25204891981348        3.16501797299056
H           -4.49856969478967        1.67179071972146       -1.58032457740032
H           -5.23124626748334        4.01610535654995       -1.67160148284102
H           -4.45917570176368        5.62131379273527        0.03897272696991
H           -2.95202122079800        4.86054155265788        1.84149000981756
H           -2.22478577434987        2.51479262107665        1.93058689049164
H           -2.73296030674711       -2.56837076894855        1.54966233307888
H           -4.43092888528942       -3.97211104479518        2.64074043042334
H           -6.75950438936209       -3.17269820304795        2.83094651004867
H           -7.37505129856256       -0.96241046153303        1.91883922471972
H           -5.67350765416394        0.43802724247243        0.82991498524251
H           -1.56148066746951        1.31060754456252       -2.17753888025158
H           -1.05672262696109        0.49510443199315       -4.43771815867230
H           -1.64566090307884       -1.81465947400081       -5.08048660493333
H           -2.73758607536031       -3.30271368075253       -3.44043688615628
H           -3.23513733498485       -2.48628822248900       -1.17718774607381
H            0.05270961307303        0.20465493965977       -0.48170877350210
H            4.44159495997397       -2.65951920361602        0.26507889471523
H            6.38092217876430       -3.33099978041455        1.60256413560902

          :  Hamiltonian                  GFN2-xTB          :
         :: gradient norm              0.000066758189 Eh/a0 ::
         :: HOMO-LUMO gap              0.170563847819 eV    ::
         :: SCC energy              -112.651039488848 Eh    ::
         :: -> dispersion             -0.108286832140 Eh    ::
         :: -> Gsolv                  -0.048336968830 Eh    ::
         :: repulsion energy           2.135194777715 Eh    ::

    * Orbital Energies and Occupations

         #    Occupation            Energy/Eh            Energy/eV
      -------------------------------------------------------------
         1        2.0000           -0.7571068             -20.6019
       ...           ...                  ...                  ...
        94        2.0000           -0.4002429             -10.8912
        95        2.0000           -0.3989297             -10.8554
        96        2.0000           -0.3985124             -10.8441
        97        2.0000           -0.3972131             -10.8087
        98        2.0000           -0.3956379             -10.7659
        99        2.0000           -0.3937664             -10.7149
       100        2.0000           -0.3897751             -10.6063
       101        2.0000           -0.3868883             -10.5278
       102        2.0000           -0.3859159             -10.5013
       103        1.9999           -0.3835170             -10.4360
       104        1.9985           -0.3808126             -10.3624
       105        1.0015           -0.3684585             -10.0263
       106        0.9640           -0.2477330              -6.7412 (HOMO)
       107        0.0351           -0.2414634              -6.5706 (LUMO)
       108        0.0008           -0.2377778              -6.4703
       109        0.0002           -0.2362625              -6.4290
       110                         -0.2281502              -6.2083
       111                         -0.2279185              -6.2020
       112                         -0.2271973              -6.1824
       113                         -0.2245700              -6.1109
       114                         -0.2212013              -6.0192
       115                         -0.2203181              -5.9952
       116                         -0.2191301              -5.9628
       117                         -0.2156283              -5.8675
       ...                                ...                  ...
       220                          0.6742803              18.3481
      -------------------------------------------------------------
                  HL-Gap            0.0062695 Eh            0.1706 eV

     #   Z          covCN         q      C6AA      α(0)
     1   6 C        2.918    -0.041    29.025     8.835
     2   6 C        2.916    -0.031    28.785     8.798
     3   6 C        2.938    -0.039    28.981     8.829
     4   6 C        2.863    -0.088    30.191     9.006
     5  14 Si       3.631     0.485    98.081    18.998
     6   6 C        2.862    -0.089    30.217     9.010
     7   6 C        2.927    -0.036    28.890     8.815
     8   6 C        2.917    -0.033    28.821     8.803
     9   6 C        2.919    -0.040    28.987     8.829
    10   6 C        2.917    -0.032    28.787     8.798
    11   6 C        2.943    -0.038    28.944     8.824
    12   6 C        2.862    -0.096    30.419     9.040
    13   6 C        2.930    -0.037    28.916     8.819
    14   6 C        2.916    -0.033    28.832     8.805
    15   6 C        2.919    -0.039    28.972     8.827
    16   6 C        2.916    -0.033    28.817     8.803
    17   6 C        2.940    -0.039    28.964     8.827
    18   6 C        2.865    -0.080    30.007     8.979
    19   6 C        2.922    -0.042    29.033     8.836
    20   6 C        2.915    -0.028    28.707     8.786
    21   6 C        2.929    -0.053    29.311     8.879
    22   6 C        2.864    -0.082    30.048     8.985
    23  14 Si       3.615     0.503    97.814    18.984
    24   6 C        2.862    -0.092    30.293     9.022
    25   6 C        2.937    -0.033    28.812     8.803
    26   6 C        2.917    -0.031    28.761     8.794
    27   6 C        2.920    -0.030    28.755     8.794
    28   6 C        2.917    -0.031    28.763     8.795
    29   6 C        2.934    -0.032    28.804     8.802
    30   6 C        2.863    -0.090    30.261     9.017
    31   6 C        2.936    -0.032    28.795     8.801
    32   6 C        2.917    -0.030    28.761     8.794
    33   6 C        2.920    -0.030    28.744     8.792
    34   6 C        2.917    -0.030    28.758     8.794
    35   6 C        2.936    -0.033    28.815     8.804
    36   6 C        2.863    -0.094    30.351     9.030
    37   6 C        2.937    -0.033    28.810     8.803
    38   6 C        2.917    -0.030    28.759     8.794
    39   6 C        2.920    -0.029    28.723     8.789
    40   6 C        2.917    -0.031    28.762     8.794
    41   6 C        2.935    -0.033    28.823     8.805
    42   6 C        2.971    -0.037    28.918     8.821
    43   6 C        2.928    -0.036    28.903     8.817
    44   6 C        2.916    -0.033    28.818     8.803
    45   1 H        0.926     0.026     2.642     2.542
    46   1 H        0.925     0.027     2.629     2.536
    47   1 H        0.926     0.022     2.704     2.571
    48   1 H        0.926     0.028     2.620     2.531
    49   1 H        0.925     0.026     2.644     2.543
    50   1 H        0.926     0.026     2.650     2.546
    51   1 H        0.925     0.026     2.641     2.541
    52   1 H        0.926     0.016     2.796     2.615
    53   1 H        0.926     0.022     2.702     2.571
    54   1 H        0.925     0.023     2.695     2.567
    55   1 H        0.926     0.023     2.695     2.567
    56   1 H        0.925     0.023     2.681     2.561
    57   1 H        0.925     0.016     2.798     2.616
    58   1 H        0.926     0.038     2.473     2.459
    59   1 H        0.925     0.028     2.610     2.526
    60   1 H        0.926     0.029     2.605     2.524
    61   1 H        0.926     0.022     2.696     2.568
    62   1 H        0.926     0.030     2.592     2.517
    63   1 H        0.926     0.030     2.585     2.514
    64   1 H        0.926     0.030     2.591     2.517
    65   1 H        0.926     0.026     2.648     2.545
    66   1 H        0.926     0.025     2.654     2.547
    67   1 H        0.926     0.030     2.582     2.513
    68   1 H        0.926     0.031     2.570     2.507
    69   1 H        0.926     0.031     2.575     2.509
    70   1 H        0.926     0.025     2.657     2.549
    71   1 H        0.926     0.023     2.691     2.565
    72   1 H        0.926     0.029     2.607     2.525
    73   1 H        0.926     0.029     2.594     2.518
    74   1 H        0.926     0.029     2.594     2.519
    75   1 H        0.926     0.026     2.644     2.543
    76   1 H        0.926     0.021     2.722     2.580
    77   1 H        0.926     0.028     2.618     2.530
    78   1 H        0.925     0.027     2.632     2.537

molecular dipole:
                 x           y           z       tot (Debye)
 q only:       -0.952       0.072       0.303
   full:       -0.902       0.061       0.220       2.365

 projected vibrational frequencies (cm⁻¹)
eigval :       -0.00    -0.00    -0.00     0.00     0.00     0.00
eigval :        3.11    13.26    25.32    28.09    29.52    30.61
eigval :       33.63    38.03    38.40    39.58    43.12    45.78
eigval :       48.54    53.23    55.20    58.92    64.99    69.98
eigval :       95.41   121.82   134.49   146.66   149.83   157.04
eigval :      166.40   169.87   177.52   186.88   199.32   207.63
eigval :      213.66   218.15   224.86   227.17   232.81   260.79
eigval :      359.66   359.78   360.42   361.55   363.27   364.03
eigval :      368.53   398.52   401.64   404.23   407.97   412.90
eigval :      414.86   419.45   427.13   445.20   450.69   462.28
eigval :      464.18   472.96   563.06   577.48   580.54   582.98
eigval :      587.33   587.80   588.45   606.08   622.29   629.56
eigval :      638.48   655.15   656.91   657.72   659.84   661.94
eigval :      674.73   689.06   698.67   701.69   704.54   719.22
eigval :      722.99   727.84   729.38   733.64   734.71   737.01
eigval :      817.03   845.38   855.41   862.67   863.69   867.25
eigval :      877.12   878.09   878.71   880.83   884.53   902.25
eigval :      903.74   904.58   905.73   911.50   916.59   917.73
eigval :      919.00   924.00   925.37   926.67   928.75   930.34
eigval :      931.32   932.26   932.76   935.27   945.45   959.09
eigval :      962.98   971.07   971.73   974.50  1034.90  1048.10
eigval :     1062.43  1073.41  1077.32  1078.07  1079.20  1080.42
eigval :     1091.12  1094.96  1115.17  1116.95  1117.47  1118.17
eigval :     1118.86  1120.28  1120.76  1122.22  1124.51  1129.04
eigval :     1136.71  1170.32  1172.19  1173.72  1174.51  1179.73
eigval :     1180.09  1181.04  1195.23  1199.98  1200.22  1202.48
eigval :     1204.06  1207.38  1259.90  1275.89  1280.40  1282.79
eigval :     1284.40  1284.77  1286.29  1298.30  1309.93  1310.20
eigval :     1313.15  1315.94  1318.76  1319.33  1321.56  1383.79
eigval :     1399.65  1402.10  1406.35  1409.22  1415.09  1415.78
eigval :     1417.38  1424.95  1436.86  1439.70  1453.83  1455.25
eigval :     1456.46  1477.24  1489.29  1512.60  1513.11  1519.39
eigval :     1531.51  1549.63  1552.08  1557.42  1559.53  1561.13
eigval :     1562.31  1579.30  3051.65  3053.73  3054.20  3055.18
eigval :     3057.99  3058.70  3059.35  3059.57  3060.31  3061.06
eigval :     3062.44  3062.53  3062.71  3063.46  3064.56  3065.68
eigval :     3068.65  3069.30  3070.12  3071.44  3073.47  3074.26
eigval :     3075.13  3076.54  3077.72  3079.66  3079.92  3082.62
eigval :     3083.02  3083.25  3083.44  3084.74  3086.21  3090.02

   temp. (K)  partition function   enthalpy   heat capacity  entropy
                                   cal/mol     cal/K/mol   cal/K/mol   J/K/mol
 298.15  VIB  0.254E+22            24321.862    141.512    157.201
         ROT  0.559E+08              888.752      2.981     38.433
         INT  0.142E+30            25210.614    144.493    195.634
         TR   0.140E+29             1481.254      4.968     45.013
         TOT                       26691.8680   149.4613   240.6474  1006.8686

       T/K    H(0)-H(T)+PV         H(T)/Eh          T*S/Eh         G(T)/Eh
   ------------------------------------------------------------------------
    298.15    0.425362E-01    0.643306E+00    0.114339E+00    0.528967E+00
   ------------------------------------------------------------------------

         :::::::::::::::::::::::::::::::::::::::::::::::::::::
         ::                  THERMODYNAMIC                  ::
         :::::::::::::::::::::::::::::::::::::::::::::::::::::
         :: total free energy        -109.986877764098 Eh   ::
         ::.................................................::
         :: total energy             -110.515844710336 Eh   ::
         :: zero point energy           0.600770078136 Eh   ::
         :: G(RRHO) w/o ZPVE           -0.071803131897 Eh   ::
         :: G(RRHO) contrib.            0.528966946239 Eh   ::
         :::::::::::::::::::::::::::::::::::::::::::::::::::::

           -------------------------------------------------
          | TOTAL ENERGY             -110.515844710336 Eh   |
          | TOTAL ENTHALPY           -109.872538432951 Eh   |
          | TOTAL FREE ENERGY        -109.986877764098 Eh   |
          | GRADIENT NORM               0.000066049995 Eh/α |
          | HOMO-LUMO GAP               0.170602992260 eV   |
           -------------------------------------------------

 * finished run on 2025/09/14 at 14:52:09.219
