   * xtb version 6.7.1 (edcfbbe) compiled by 'albert@albert-system' on 2024-07-22

   ID    Z sym.   atoms
    1    6 C      1-4, 6-22, 24-44
    2   14 Si     5, 23
    3    1 H      45-78

          program call               : xtb data2507/toluene/UGH3/UGH3_toluene_T1_crest.xyz --gfn 2 --uhf 2 --gbsa toluene --ohess vtight --parallel 40 --molden --ceasefiles --namespace data2507/toluene/UGH3/UGH3_toluene_T1_finalOpt
      * Solvation model:               GBSA
        Solvent                        toluene
        Solvent mass                       9.2140E+01 g/mol
          :  Hamiltonian                  GFN2-xTB          :
 * total energy  :  -110.5162540 Eh     change       -0.2083468E-08 Eh
 * total energy  :  -110.5163290 Eh     change       -0.7502650E-04 Eh
 * total energy  :  -110.5164239 Eh     change       -0.9485695E-04 Eh
 * total energy  :  -110.5164673 Eh     change       -0.4342723E-04 Eh
 * total energy  :  -110.5165951 Eh     change       -0.1277385E-03 Eh
 * total energy  :  -110.5167263 Eh     change       -0.1312188E-03 Eh
 * total energy  :  -110.5167996 Eh     change       -0.7329292E-04 Eh
 * total energy  :  -110.5169692 Eh     change       -0.1696600E-03 Eh
 * total energy  :  -110.5171562 Eh     change       -0.1869345E-03 Eh
 * total energy  :  -110.5172266 Eh     change       -0.7044188E-04 Eh
 * total energy  :  -110.5176660 Eh     change       -0.3174147E-06 Eh
 * total energy  :  -110.5176662 Eh     change       -0.2525314E-06 Eh
 * total energy  :  -110.5176665 Eh     change       -0.2687529E-06 Eh
 * total energy  :  -110.5176670 Eh     change       -0.4607784E-06 Eh
 * total energy  :  -110.5176674 Eh     change       -0.4460973E-06 Eh
 * total energy  :  -110.5176676 Eh     change       -0.1972472E-06 Eh
 * total energy  :  -110.5176677 Eh     change       -0.1251199E-06 Eh
 * total energy  :  -110.5176679 Eh     change       -0.1332517E-06 Eh
 * total energy  :  -110.5176679 Eh     change       -0.8744266E-08 Eh
   *** GEOMETRY OPTIMIZATION CONVERGED AFTER 68 ITERATIONS ***

 final structure:
================
78
 xtb: 6.7.1 (edcfbbe)
C            1.55853485212835       -2.49369900450105        3.46205765528150
C            1.69766557295934       -3.11518219658938        2.23171678198678
C            2.04014777116169       -2.37206917849245        1.11679022209619
C            2.24952184398447       -0.99703405813184        1.20417475568833
Si           2.65184174132891        0.01209252884499       -0.34880172688390
C            3.23189604592938        1.75388140042092        0.13139638808579
C            2.30113785238110        2.70819948627912        0.53593144869004
C            2.69979756830364        3.97792251190565        0.91301468524520
C            4.04286996228009        4.31797671903786        0.88947939456726
C            4.98068089823294        3.38241428579276        0.48484777128102
C            4.57602141594524        2.11306341216933        0.10988972980366
C            3.98119312637254       -0.89715627608751       -1.35449052926195
C            3.91669715696883       -1.01077475908670       -2.74021696392249
C            4.90799801555790       -1.66684862608767       -3.44860707867401
C            5.98503124592695       -2.22593439219033       -2.78049513526159
C            6.06072960032383       -2.12926402271118       -1.40028634279368
C            5.06625670931398       -1.47404915279317       -0.69705967592548
C            1.04938518318375        0.23020679444510       -1.34227320656505
C            0.97782035209824        1.14532558108867       -2.42217148238034
C           -0.23477907915649        1.36331733569474       -3.07794346697330
C           -1.35915704289479        0.68309898977198       -2.68621563746867
C           -1.32241969123017       -0.11874681672579       -1.50444848787760
Si          -2.70524532739283       -0.03253137111103       -0.19305206879893
C           -4.31202655250165        0.23384296754840       -1.16749262731426
C           -4.55687408427659        1.42236958780227       -1.84488844963746
C           -5.74987176877150        1.62520311220342       -2.51611122549689
C           -6.71683853309905        0.63288063016687       -2.52290260152241
C           -6.48350441878711       -0.55756571753086       -1.85484175549836
C           -5.28908897301825       -0.75402447286739       -1.18327876542678
C           -2.49476040323088        1.31400992999330        1.10543773152774
C           -3.36834462439691        2.40047810571520        1.23461143783016
C           -3.09991688381450        3.43579774729869        2.10640271798432
C           -1.94460923508630        3.42174282299414        2.87665521893727
C           -1.06272233781548        2.35508652586216        2.76056563608333
C           -1.33005722880470        1.32202416319341        1.88743868170354
C           -2.60545126558537       -1.73393076859111        0.64333650131235
C           -2.42848751417636       -2.89094313561112       -0.11323225583594
C           -2.41799572621665       -4.13797441374195        0.48413370988191
C           -2.58999896954876       -4.25308437190455        1.85425328755638
C           -2.76839073190622       -3.11150626369725        2.62000771279252
C           -2.77535411153205       -1.86639690958964        2.01823229418040
C           -0.06777147020517       -0.45327433925447       -0.94572393521308
C            2.11020781097789       -0.39099703139197        2.44916612948692
C            1.76925423211312       -1.12885502244796        3.56905544657204
H            1.28750283492442       -3.07148606736593        4.33412638875247
H            1.53520345115688       -4.18011811676667        2.14284394073733
H            2.14850092582841       -2.86274004943634        0.15953244330282
H            1.25099525300337        2.45028846248625        0.55303036632091
H            1.96180182681609        4.70388952723073        1.22461573601103
H            4.35708479311692        5.30955389795318        1.18305836896760
H            6.02946786631651        3.64352661289140        0.46173834916596
H            5.31244000853880        1.38885288460928       -0.20799223324408
H            3.07679445863280       -0.58447578405726       -3.26848630636399
H            4.84109052002446       -1.74396260104473       -4.52480599471137
H            6.76080782849419       -2.73746275858824       -3.33218391565614
H            6.89638695755790       -2.56707030556527       -0.87232810514803
H            5.12821893260776       -1.40667084547305        0.38011950522890
H            1.87987588042334        1.61020021876263       -2.78784834600108
H           -0.26622218587068        2.00228139301362       -3.95096233055253
H           -2.27532541764463        0.76015861455746       -3.25082634539082
H           -3.80356841403731        2.19752796682022       -1.84663296314949
H           -5.92595175407572        2.55707010681939       -3.03508869205696
H           -7.64797240162077        0.78670953448180       -3.04932076383838
H           -7.23363414959141       -1.33590988159648       -1.85705075991553
H           -5.11416277654965       -1.68386550598944       -0.66173732280538
H           -4.27887158486544        2.41685440992485        0.65245442191625
H           -3.79549790319032        4.25944043564920        2.19452260888629
H           -1.73497179730650        4.23133039258243        3.56088697365490
H           -0.15987054429418        2.33676457950865        3.35535380600228
H           -0.63071626792574        0.50196738407490        1.80134937623320
H           -2.29173591004203       -2.80838965483771       -1.18237164712284
H           -2.27772562510205       -5.02411787747615       -0.11945107100343
H           -2.58432526529508       -5.22672375883354        2.32352955322150
H           -2.90214086874491       -3.19292574352202        3.68980823703079
H           -2.91356568244646       -0.98108275769507        2.62213665164293
H           -0.02371742112531       -1.15199964018681       -0.12554672070298
H            2.27250789764271        0.67378515172821        2.53786161910832
H            1.66453738031134       -0.63986099463843        4.52753673882062

          :  Hamiltonian                  GFN2-xTB          :
         :: gradient norm              0.000033745893 Eh/a0 ::
         :: HOMO-LUMO gap              0.370937243511 eV    ::
         :: SCC energy              -112.649591857900 Eh    ::
         :: -> dispersion             -0.112014822555 Eh    ::
         :: -> Gsolv                  -0.045984692339 Eh    ::
         :: repulsion energy           2.131923975604 Eh    ::

    * Orbital Energies and Occupations

         #    Occupation            Energy/Eh            Energy/eV
      -------------------------------------------------------------
         1        2.0000           -0.7544924             -20.5308
       ...           ...                  ...                  ...
        94        2.0000           -0.4010468             -10.9130
        95        2.0000           -0.3996719             -10.8756
        96        2.0000           -0.3986557             -10.8480
        97        2.0000           -0.3965344             -10.7903
        98        2.0000           -0.3941487             -10.7253
        99        2.0000           -0.3907046             -10.6316
       100        2.0000           -0.3876134             -10.5475
       101        2.0000           -0.3852510             -10.4832
       102        2.0000           -0.3842231             -10.4552
       103        2.0000           -0.3836099             -10.4386
       104        2.0000           -0.3811167             -10.3707
       105        1.0000           -0.3594910              -9.7822
       106        0.9992           -0.2539994              -6.9117 (HOMO)
       107        0.0008           -0.2403682              -6.5408 (LUMO)
       108        0.0000           -0.2356710              -6.4129
       109        0.0000           -0.2342513              -6.3743
       110                         -0.2315582              -6.3010
       111                         -0.2311527              -6.2900
       112                         -0.2272011              -6.1825
       113                         -0.2226417              -6.0584
       114                         -0.2207119              -6.0059
       115                         -0.2202785              -5.9941
       116                         -0.2195639              -5.9746
       117                         -0.2188911              -5.9563
       ...                                ...                  ...
       220                          0.6767016              18.4140
      -------------------------------------------------------------
                  HL-Gap            0.0136312 Eh            0.3709 eV

     #   Z          covCN         q      C6AA      α(0)
     1   6 C        2.920    -0.029    28.725     8.789
     2   6 C        2.917    -0.031    28.764     8.795
     3   6 C        2.938    -0.032    28.799     8.801
     4   6 C        2.862    -0.095    30.379     9.034
     5  14 Si       3.617     0.499    97.889    18.990
     6   6 C        2.862    -0.091    30.277     9.019
     7   6 C        2.938    -0.030    28.758     8.795
     8   6 C        2.917    -0.030    28.751     8.793
     9   6 C        2.920    -0.029    28.728     8.789
    10   6 C        2.917    -0.031    28.768     8.795
    11   6 C        2.934    -0.033    28.817     8.804
    12   6 C        2.862    -0.089    30.237     9.013
    13   6 C        2.933    -0.033    28.820     8.804
    14   6 C        2.917    -0.031    28.762     8.794
    15   6 C        2.920    -0.030    28.741     8.791
    16   6 C        2.917    -0.030    28.759     8.794
    17   6 C        2.939    -0.032    28.799     8.801
    18   6 C        2.861    -0.087    30.162     9.002
    19   6 C        2.927    -0.060    29.494     8.906
    20   6 C        2.909    -0.028    28.698     8.784
    21   6 C        2.920    -0.046    29.151     8.854
    22   6 C        2.862    -0.087    30.170     9.003
    23  14 Si       3.632     0.480    98.196    19.009
    24   6 C        2.864    -0.087    30.177     9.005
    25   6 C        2.935    -0.032    28.800     8.801
    26   6 C        2.918    -0.031    28.768     8.795
    27   6 C        2.920    -0.030    28.754     8.793
    28   6 C        2.918    -0.030    28.755     8.794
    29   6 C        2.938    -0.033    28.817     8.804
    30   6 C        2.862    -0.098    30.449     9.045
    31   6 C        2.930    -0.038    28.953     8.824
    32   6 C        2.916    -0.034    28.848     8.808
    33   6 C        2.919    -0.041    29.016     8.833
    34   6 C        2.916    -0.033    28.815     8.802
    35   6 C        2.940    -0.039    28.960     8.826
    36   6 C        2.862    -0.092    30.304     9.023
    37   6 C        2.936    -0.034    28.851     8.809
    38   6 C        2.917    -0.032    28.797     8.800
    39   6 C        2.920    -0.032    28.800     8.800
    40   6 C        2.917    -0.032    28.790     8.799
    41   6 C        2.935    -0.034    28.851     8.809
    42   6 C        2.969    -0.034    28.833     8.808
    43   6 C        2.935    -0.032    28.801     8.802
    44   6 C        2.917    -0.030    28.758     8.794
    45   1 H        0.926     0.029     2.595     2.519
    46   1 H        0.926     0.028     2.613     2.528
    47   1 H        0.926     0.023     2.687     2.564
    48   1 H        0.925     0.022     2.696     2.568
    49   1 H        0.926     0.028     2.608     2.525
    50   1 H        0.926     0.030     2.580     2.512
    51   1 H        0.926     0.030     2.584     2.514
    52   1 H        0.926     0.025     2.664     2.552
    53   1 H        0.926     0.028     2.608     2.525
    54   1 H        0.926     0.030     2.580     2.512
    55   1 H        0.926     0.031     2.574     2.509
    56   1 H        0.926     0.030     2.584     2.514
    57   1 H        0.926     0.023     2.692     2.566
    58   1 H        0.926     0.024     2.671     2.555
    59   1 H        0.925     0.026     2.645     2.543
    60   1 H        0.926     0.035     2.523     2.484
    61   1 H        0.926     0.028     2.610     2.526
    62   1 H        0.926     0.031     2.570     2.507
    63   1 H        0.926     0.032     2.552     2.498
    64   1 H        0.926     0.031     2.567     2.505
    65   1 H        0.926     0.023     2.690     2.565
    66   1 H        0.926     0.019     2.755     2.596
    67   1 H        0.925     0.021     2.718     2.578
    68   1 H        0.926     0.020     2.730     2.584
    69   1 H        0.925     0.021     2.715     2.577
    70   1 H        0.926     0.010     2.897     2.662
    71   1 H        0.926     0.026     2.639     2.540
    72   1 H        0.925     0.028     2.616     2.529
    73   1 H        0.926     0.027     2.622     2.532
    74   1 H        0.926     0.026     2.639     2.540
    75   1 H        0.926     0.023     2.691     2.565
    76   1 H        0.926     0.019     2.752     2.594
    77   1 H        0.926     0.023     2.684     2.562
    78   1 H        0.926     0.028     2.609     2.526

molecular dipole:
                 x           y           z       tot (Debye)
 q only:        0.347      -0.261      -0.442
   full:        0.277      -0.276      -0.340       1.317

 projected vibrational frequencies (cm⁻¹)
eigval :       -0.00    -0.00    -0.00    -0.00     0.00     0.00
eigval :       10.11    12.87    18.39    20.54    22.04    27.34
eigval :       29.25    32.74    34.15    37.89    41.37    44.09
eigval :       44.87    48.48    53.15    62.91    64.45    70.10
eigval :       88.91   107.69   149.56   156.61   160.78   166.53
eigval :      172.29   173.25   188.44   202.73   207.09   214.01
eigval :      215.60   222.97   224.58   227.50   231.47   262.60
eigval :      348.37   358.93   359.48   360.38   362.28   362.72
eigval :      367.69   381.78   409.15   410.22   413.80   415.36
eigval :      419.41   425.13   438.35   462.84   465.77   470.20
eigval :      473.86   477.88   537.10   585.64   586.47   586.78
eigval :      587.57   588.28   589.45   609.63   643.82   652.87
eigval :      653.17   658.01   660.96   661.64   661.82   663.58
eigval :      678.67   695.22   699.57   702.70   704.17   705.25
eigval :      725.31   730.07   733.55   734.79   735.42   739.07
eigval :      746.22   838.76   867.96   872.08   874.63   878.61
eigval :      881.24   882.51   885.81   895.35   898.58   904.04
eigval :      904.68   906.08   909.88   921.16   923.42   924.58
eigval :      926.20   928.01   928.37   930.57   932.01   932.70
eigval :      935.54   935.68   935.93   939.18   965.06   966.43
eigval :      966.94   970.59   972.47   974.28   975.81  1060.69
eigval :     1076.80  1079.36  1081.66  1082.11  1083.32  1084.29
eigval :     1107.61  1116.26  1117.64  1118.92  1119.70  1120.72
eigval :     1121.03  1121.40  1127.55  1131.17  1135.09  1142.30
eigval :     1144.91  1147.15  1177.99  1178.31  1178.81  1179.96
eigval :     1180.63  1182.65  1197.25  1201.55  1202.85  1205.24
eigval :     1206.00  1207.77  1209.67  1264.46  1281.33  1283.64
eigval :     1284.73  1286.65  1287.52  1289.08  1308.57  1308.91
eigval :     1310.02  1310.37  1312.27  1318.07  1329.07  1356.67
eigval :     1411.51  1414.49  1416.23  1416.54  1417.34  1417.97
eigval :     1418.96  1439.39  1452.44  1455.87  1457.92  1460.88
eigval :     1462.04  1464.14  1525.02  1557.32  1562.13  1568.89
eigval :     1569.58  1570.83  1571.72  1573.31  1577.58  1581.28
eigval :     1587.41  1588.99  3045.74  3053.60  3055.62  3056.98
eigval :     3057.68  3059.30  3059.45  3060.67  3061.22  3061.43
eigval :     3062.69  3063.17  3063.38  3065.59  3066.37  3067.20
eigval :     3068.05  3068.94  3069.47  3069.80  3072.17  3073.05
eigval :     3073.64  3074.73  3076.63  3078.62  3079.13  3079.55
eigval :     3080.00  3081.92  3082.87  3083.40  3084.13  3085.63

   temp. (K)  partition function   enthalpy   heat capacity  entropy
                                   cal/mol     cal/K/mol   cal/K/mol   J/K/mol
 298.15  VIB  0.303E+22            24230.437    140.119    155.718
         ROT  0.525E+08              888.752      2.981     38.309
         INT  0.159E+30            25119.189    143.100    194.027
         TR   0.140E+29             1481.254      4.968     45.013
         TOT                       26600.4431   148.0681   239.0398  1000.1425

       T/K    H(0)-H(T)+PV         H(T)/Eh          T*S/Eh         G(T)/Eh
   ------------------------------------------------------------------------
    298.15    0.423905E-01    0.644770E+00    0.113576E+00    0.531195E+00
   ------------------------------------------------------------------------

         :::::::::::::::::::::::::::::::::::::::::::::::::::::
         ::                  THERMODYNAMIC                  ::
         :::::::::::::::::::::::::::::::::::::::::::::::::::::
         :: total free energy        -109.986473065442 Eh   ::
         ::.................................................::
         :: total energy             -110.517667884182 Eh   ::
         :: zero point energy           0.602379839147 Eh   ::
         :: G(RRHO) w/o ZPVE           -0.071185020408 Eh   ::
         :: G(RRHO) contrib.            0.531194818739 Eh   ::
         :::::::::::::::::::::::::::::::::::::::::::::::::::::

           -------------------------------------------------
          | TOTAL ENERGY             -110.517667884182 Eh   |
          | TOTAL ENTHALPY           -109.872897540604 Eh   |
          | TOTAL FREE ENERGY        -109.986473065442 Eh   |
          | GRADIENT NORM               0.000032827768 Eh/α |
          | HOMO-LUMO GAP               0.370924277834 eV   |
           -------------------------------------------------

 * finished run on 2025/09/14 at 15:01:26.163
