   * xtb version 6.7.1 (edcfbbe) compiled by 'albert@albert-system' on 2024-07-22

   ID    Z sym.   atoms
    1    6 C      1-4, 6-22, 24-44
    2   14 Si     5, 23
    3    1 H      45-78

          program call               : xtb data2507/toluene/UGH3/UGH3_toluene_S0_crest.xyz --gfn 2 --gbsa toluene --ohess vtight --parallel 40 --molden --ceasefiles --namespace data2507/toluene/UGH3/UGH3_toluene_S0_finalOpt
      * Solvation model:               GBSA
        Solvent                        toluene
        Solvent mass                       9.2140E+01 g/mol
          :  Hamiltonian                  GFN2-xTB          :
 * total energy  :  -110.6434564 Eh     change       -0.2392554E-08 Eh
 * total energy  :  -110.6435180 Eh     change       -0.6160816E-04 Eh
 * total energy  :  -110.6435998 Eh     change       -0.8181508E-04 Eh
 * total energy  :  -110.6436334 Eh     change       -0.3362361E-04 Eh
 * total energy  :  -110.6437431 Eh     change       -0.1096513E-03 Eh
 * total energy  :  -110.6438205 Eh     change       -0.7738686E-04 Eh
 * total energy  :  -110.6438946 Eh     change       -0.7414615E-04 Eh
 * total energy  :  -110.6440270 Eh     change       -0.1323707E-03 Eh
 * total energy  :  -110.6440536 Eh     change       -0.2660059E-04 Eh
 * total energy  :  -110.6441031 Eh     change       -0.4950686E-04 Eh
 * total energy  :  -110.6447319 Eh     change       -0.4839157E-06 Eh
 * total energy  :  -110.6447324 Eh     change       -0.5002098E-06 Eh
 * total energy  :  -110.6447330 Eh     change       -0.6380920E-06 Eh
 * total energy  :  -110.6447339 Eh     change       -0.8958915E-06 Eh
 * total energy  :  -110.6447351 Eh     change       -0.1163238E-05 Eh
 * total energy  :  -110.6447363 Eh     change       -0.1221524E-05 Eh
 * total energy  :  -110.6447373 Eh     change       -0.1033504E-05 Eh
 * total energy  :  -110.6447381 Eh     change       -0.7488469E-06 Eh
 * total energy  :  -110.6447381 Eh     change       -0.3914906E-08 Eh
   *** GEOMETRY OPTIMIZATION CONVERGED AFTER 122 ITERATIONS ***

 final structure:
================
78
 xtb: 6.7.1 (edcfbbe)
C            6.39325528402567       -1.84161963790021        2.71922410737005
C            5.92001249624623       -0.56505213860594        2.97609509520042
C            4.87541438646006       -0.05164361169845        2.22856682960842
C            4.28062436357029       -0.79772324470305        1.21385795792106
Si           2.83618835883347       -0.08113948649435        0.21511157532961
C            3.22235797314869        1.72870643633675       -0.20698683485484
C            2.21632116254970        2.68975200301614       -0.24538306289015
C            2.49645040584607        4.00597534564486       -0.56763333498803
C            3.79571340972146        4.38662491936968       -0.86047063321706
C            4.81009942635716        3.44361167186753       -0.82715029745964
C            4.52259484389298        2.12948139393930       -0.50362151966329
C            2.58000990390550       -1.07911421659061       -1.37761777107755
C            3.08280370642132       -0.64289005830132       -2.59926338936829
C            2.90198456371342       -1.38532505649590       -3.75304859160492
C            2.21335772371519       -2.58586079001414       -3.70391029347654
C            1.70222295936878       -3.03409551853505       -2.49690965382386
C            1.88351492859744       -2.28470267795276       -1.34875295027416
C            1.22829037520545       -0.15459272090588        1.21625908462132
C            1.21193990658761       -0.23197997049231        2.60507470275959
C            0.01308510189250       -0.24307725705495        3.29749858516054
C           -1.18639405424323       -0.17301117827821        2.61073063988358
C           -1.20694231938805       -0.10198553382982        1.22017399955403
Si          -2.83321410055379        0.02376665655838        0.25289767773860
C           -3.30785864361416        1.85123709758584        0.06236281257528
C           -4.19425153170482        2.25318287709701       -0.93380118353610
C           -4.55170766655889        3.58159573020490       -1.08020392283859
C           -4.02382260525890        4.53864893475994       -0.22875663721918
C           -3.13895740018403        4.15752889268921        0.76635229895033
C           -2.78829906538080        2.82636649367954        0.90852205266455
C           -4.19544108837574       -0.91394929153909        1.18109515557883
C           -3.93038592021422       -2.15182648075258        1.76200144231749
C           -4.91801683980321       -2.85726653341016        2.42583967805144
C           -6.19752840906252       -2.33451332615806        2.52076020837451
C           -6.47858630561570       -1.10349236357419        1.95157649206612
C           -5.48538590776201       -0.40340939212207        1.28933397979123
C           -2.58707057082027       -0.72094331527733       -1.47522202092528
C           -1.93009728727326        0.00485924243103       -2.46581609629126
C           -1.71436987712516       -0.53091176046567       -3.72249004332303
C           -2.15820425043123       -1.81005383130474       -4.01480289728970
C           -2.81658884818325       -2.54541100346322       -3.04345812809553
C           -3.02611189090218       -2.00369807789855       -1.78741993351235
C            0.00952345332838       -0.09633298622041        0.54912907422643
C            4.77092623601608       -2.07671826849112        0.96847289944676
C            5.81687652362841       -2.59622344574890        1.71088446686811
H            7.20995774763574       -2.24517001470233        3.30093041470552
H            6.36823940950682        0.02989180785403        3.75981121429979
H            4.51605002757541        0.94854048075473        2.42803610857846
H            1.20072012379199        2.40128968419478       -0.01481866916247
H            1.70002711948737        4.73688416517507       -0.59052494480795
H            4.01762723200182        5.41423105814955       -1.11163603543226
H            5.82656825113117        3.73465114642740       -1.05339513720352
H            5.31979875181384        1.39951056752210       -0.47526207879748
H            3.62035124524278        0.29364748987812       -2.64533359930437
H            3.29954133759105       -1.02824031448200       -4.69304307138925
H            2.07181561799709       -3.16833724677586       -4.60330154130164
H            1.15745003715999       -3.96688398657004       -2.45350064449252
H            1.47627584619415       -2.63719818175115       -0.41127248300100
H            2.14591567474386       -0.28907243572585        3.14586757281411
H            0.01377435894305       -0.30496360844298        4.37743143830344
H           -2.12000515845994       -0.17878410851098        3.15615429258709
H           -4.60412608856417        1.51187136137783       -1.60590174253586
H           -5.24164184961437        3.87335752988367       -1.85993940715263
H           -4.30014976235368        5.57743978023593       -0.34192678567765
H           -2.72218560385299        4.90029152415931        1.43240823857062
H           -2.09604292275262        2.53624357864038        1.68645255139640
H           -2.93290088963096       -2.56378354591293        1.69520264341478
H           -4.69173705621698       -3.81649401910516        2.87060845791530
H           -6.97155400151960       -2.88347565500899        3.03820436897599
H           -7.47452434634218       -0.68921413596141        2.02505465552809
H           -5.71113359779441        0.55863079580158        0.85182628948954
H           -1.59069915429265        1.00853677878251       -2.24981125643023
H           -1.19842561614032        0.04806079661585       -4.47573542034609
H           -1.99141417407428       -2.23131975614544       -4.99604217783788
H           -3.16829451256318       -3.54324357626621       -3.26654979141604
H           -3.54471253427117       -2.58236135235967       -1.03620469403700
H            0.01014540747936       -0.05387318238896       -0.53094759587659
H            4.32863693048949       -2.66935928273245        0.18029176755594
H            6.18486154457284       -3.59143164560234        1.50318599446760

          :  Hamiltonian                  GFN2-xTB          :
         :: gradient norm              0.000052425525 Eh/a0 ::
         :: HOMO-LUMO gap              3.605932591402 eV    ::
         :: SCC energy              -112.790056220339 Eh    ::
         :: -> dispersion             -0.108249499492 Eh    ::
         :: -> Gsolv                  -0.047873524955 Eh    ::
         :: repulsion energy           2.145318118221 Eh    ::

    * Orbital Energies and Occupations

         #    Occupation            Energy/Eh            Energy/eV
      -------------------------------------------------------------
         1        2.0000           -0.7510283             -20.4365
       ...           ...                  ...                  ...
        93        2.0000           -0.4004943             -10.8980
        94        2.0000           -0.4001645             -10.8890
        95        2.0000           -0.3995538             -10.8724
        96        2.0000           -0.3994363             -10.8692
        97        2.0000           -0.3990263             -10.8581
        98        2.0000           -0.3971906             -10.8081
        99        2.0000           -0.3970432             -10.8041
       100        2.0000           -0.3894875             -10.5985
       101        2.0000           -0.3827500             -10.4152
       102        2.0000           -0.3816499             -10.3852
       103        2.0000           -0.3815487             -10.3825
       104        2.0000           -0.3801222             -10.3437
       105        2.0000           -0.3728981             -10.1471 (HOMO)
       106                         -0.2403825              -6.5411 (LUMO)
       107                         -0.2374929              -6.4625
       108                         -0.2354478              -6.4069
       109                         -0.2340608              -6.3691
       110                         -0.2330409              -6.3414
       111                         -0.2303082              -6.2670
       112                         -0.2252262              -6.1287
       113                         -0.2220845              -6.0432
       114                         -0.2191726              -5.9640
       115                         -0.2187461              -5.9524
       116                         -0.2182658              -5.9393
       ...                                ...                  ...
       220                          0.6777711              18.4431
      -------------------------------------------------------------
                  HL-Gap            0.1325156 Eh            3.6059 eV

     #   Z          covCN         q      C6AA      α(0)
     1   6 C        2.920    -0.030    28.749     8.793
     2   6 C        2.917    -0.032    28.786     8.798
     3   6 C        2.938    -0.032    28.794     8.801
     4   6 C        2.862    -0.093    30.320     9.026
     5  14 Si       3.611     0.490    98.184    19.022
     6   6 C        2.862    -0.093    30.324     9.026
     7   6 C        2.936    -0.033    28.821     8.805
     8   6 C        2.917    -0.031    28.776     8.797
     9   6 C        2.920    -0.030    28.750     8.793
    10   6 C        2.917    -0.032    28.788     8.798
    11   6 C        2.937    -0.032    28.795     8.801
    12   6 C        2.862    -0.094    30.344     9.029
    13   6 C        2.935    -0.033    28.825     8.805
    14   6 C        2.917    -0.031    28.780     8.797
    15   6 C        2.920    -0.030    28.742     8.792
    16   6 C        2.917    -0.031    28.779     8.797
    17   6 C        2.938    -0.032    28.793     8.800
    18   6 C        2.860    -0.094    30.364     9.032
    19   6 C        2.934    -0.032    28.800     8.801
    20   6 C        2.914    -0.032    28.799     8.800
    21   6 C        2.935    -0.031    28.776     8.798
    22   6 C        2.860    -0.095    30.374     9.034
    23  14 Si       3.610     0.490    98.198    19.025
    24   6 C        2.862    -0.093    30.335     9.028
    25   6 C        2.937    -0.032    28.791     8.800
    26   6 C        2.917    -0.031    28.785     8.798
    27   6 C        2.920    -0.030    28.749     8.793
    28   6 C        2.917    -0.031    28.777     8.797
    29   6 C        2.936    -0.033    28.816     8.804
    30   6 C        2.862    -0.093    30.332     9.027
    31   6 C        2.938    -0.032    28.799     8.801
    32   6 C        2.917    -0.032    28.790     8.799
    33   6 C        2.920    -0.030    28.750     8.793
    34   6 C        2.917    -0.031    28.778     8.797
    35   6 C        2.935    -0.033    28.826     8.805
    36   6 C        2.862    -0.093    30.332     9.027
    37   6 C        2.938    -0.031    28.783     8.799
    38   6 C        2.917    -0.031    28.778     8.797
    39   6 C        2.920    -0.030    28.737     8.791
    40   6 C        2.917    -0.031    28.776     8.797
    41   6 C        2.935    -0.033    28.828     8.806
    42   6 C        2.960    -0.036    28.890     8.816
    43   6 C        2.935    -0.033    28.822     8.805
    44   6 C        2.917    -0.031    28.776     8.797
    45   1 H        0.926     0.029     2.604     2.523
    46   1 H        0.925     0.028     2.616     2.529
    47   1 H        0.925     0.022     2.707     2.573
    48   1 H        0.926     0.022     2.701     2.570
    49   1 H        0.925     0.027     2.623     2.533
    50   1 H        0.926     0.029     2.606     2.524
    51   1 H        0.925     0.028     2.619     2.531
    52   1 H        0.925     0.021     2.712     2.575
    53   1 H        0.926     0.022     2.703     2.571
    54   1 H        0.925     0.027     2.623     2.533
    55   1 H        0.926     0.028     2.612     2.527
    56   1 H        0.926     0.027     2.635     2.539
    57   1 H        0.926     0.020     2.726     2.582
    58   1 H        0.926     0.022     2.702     2.570
    59   1 H        0.925     0.026     2.650     2.546
    60   1 H        0.925     0.021     2.720     2.579
    61   1 H        0.925     0.021     2.716     2.577
    62   1 H        0.925     0.028     2.622     2.532
    63   1 H        0.926     0.029     2.606     2.525
    64   1 H        0.925     0.028     2.618     2.530
    65   1 H        0.926     0.022     2.709     2.574
    66   1 H        0.925     0.022     2.702     2.571
    67   1 H        0.925     0.028     2.619     2.531
    68   1 H        0.926     0.029     2.607     2.525
    69   1 H        0.926     0.028     2.622     2.532
    70   1 H        0.926     0.022     2.697     2.568
    71   1 H        0.925     0.020     2.740     2.589
    72   1 H        0.926     0.026     2.640     2.541
    73   1 H        0.926     0.028     2.611     2.527
    74   1 H        0.925     0.028     2.618     2.530
    75   1 H        0.926     0.023     2.686     2.563
    76   1 H        0.926     0.013     2.839     2.635
    77   1 H        0.926     0.022     2.699     2.569
    78   1 H        0.926     0.028     2.619     2.531

molecular dipole:
                 x           y           z       tot (Debye)
 q only:        0.011      -0.011       0.068
   full:       -0.003      -0.011       0.010       0.038

 projected vibrational frequencies (cm⁻¹)
eigval :       -0.00    -0.00    -0.00    -0.00     0.00     0.00
eigval :        9.80    12.35    22.86    26.14    28.95    30.05
eigval :       31.50    33.56    35.23    38.68    39.64    43.41
eigval :       45.63    47.05    49.51    52.43    56.62    65.29
eigval :      102.32   150.72   157.74   160.08   164.77   165.96
eigval :      173.03   188.86   192.81   214.02   214.24   216.25
eigval :      217.87   220.90   225.47   227.53   234.93   279.08
eigval :      357.11   357.75   358.39   360.17   360.63   362.58
eigval :      380.79   411.62   412.94   414.82   418.29   422.47
eigval :      424.09   438.84   471.03   471.48   477.79   481.65
eigval :      489.75   499.32   588.72   588.85   589.21   589.30
eigval :      589.73   590.03   640.52   662.03   662.72   662.91
eigval :      663.44   663.78   664.23   665.39   668.18   678.85
eigval :      703.08   703.68   705.49   706.60   729.79   734.11
eigval :      734.82   735.36   736.36   736.71   775.58   786.06
eigval :      876.72   881.57   881.77   882.23   883.44   884.40
eigval :      901.10   902.63   904.93   905.74   906.52   907.95
eigval :      909.32   910.75   927.38   929.80   930.63   930.88
eigval :      932.14   932.48   933.20   933.74   933.94   934.21
eigval :      934.97   935.39   935.83   974.44   974.74   976.01
eigval :      976.09   976.28   976.56   983.01  1082.74  1083.70
eigval :     1083.83  1084.12  1084.43  1084.81  1118.05  1119.18
eigval :     1119.25  1119.90  1120.28  1121.59  1131.05  1142.97
eigval :     1144.01  1147.28  1148.38  1149.04  1149.53  1149.87
eigval :     1177.74  1179.56  1180.02  1180.10  1181.00  1181.58
eigval :     1181.75  1199.46  1204.11  1204.36  1206.15  1206.53
eigval :     1207.44  1209.92  1284.93  1285.70  1286.30  1286.87
eigval :     1287.69  1289.11  1292.04  1303.68  1308.52  1308.81
eigval :     1309.28  1309.63  1310.17  1310.46  1390.24  1417.42
eigval :     1417.56  1418.29  1418.65  1419.54  1419.76  1452.20
eigval :     1461.89  1462.87  1462.98  1463.19  1463.46  1464.08
eigval :     1563.77  1574.32  1574.64  1574.93  1575.07  1575.70
eigval :     1575.73  1576.65  1591.46  1591.67  1592.05  1592.11
eigval :     1593.30  1593.40  3052.90  3056.40  3056.96  3057.37
eigval :     3057.56  3057.68  3057.88  3058.50  3058.83  3058.90
eigval :     3059.48  3060.00  3061.05  3063.69  3065.35  3065.72
eigval :     3065.82  3066.33  3066.60  3066.92  3067.12  3069.60
eigval :     3070.26  3071.20  3071.22  3072.36  3073.57  3073.62
eigval :     3080.29  3080.38  3080.63  3080.97  3081.55  3081.66

   temp. (K)  partition function   enthalpy   heat capacity  entropy
                                   cal/mol     cal/K/mol   cal/K/mol   J/K/mol
 298.15  VIB  0.874E+21            23763.205    137.252    152.274
         ROT  0.575E+08              888.752      2.981     38.489
         INT  0.503E+29            24651.957    140.233    190.763
         TR   0.140E+29             1481.254      4.968     45.013
         TOT                       26133.2111   145.2010   235.7763   986.4881

       T/K    H(0)-H(T)+PV         H(T)/Eh          T*S/Eh         G(T)/Eh
   ------------------------------------------------------------------------
    298.15    0.416459E-01    0.649473E+00    0.112025E+00    0.537448E+00
   ------------------------------------------------------------------------

         :::::::::::::::::::::::::::::::::::::::::::::::::::::
         ::                  THERMODYNAMIC                  ::
         :::::::::::::::::::::::::::::::::::::::::::::::::::::
         :: total free energy        -110.107290021757 Eh   ::
         ::.................................................::
         :: total energy             -110.644738096098 Eh   ::
         :: zero point energy           0.607827083838 Eh   ::
         :: G(RRHO) w/o ZPVE           -0.070379009497 Eh   ::
         :: G(RRHO) contrib.            0.537448074341 Eh   ::
         :::::::::::::::::::::::::::::::::::::::::::::::::::::

           -------------------------------------------------
          | TOTAL ENERGY             -110.644738096098 Eh   |
          | TOTAL ENTHALPY           -109.995265089566 Eh   |
          | TOTAL FREE ENERGY        -110.107290021757 Eh   |
          | GRADIENT NORM               0.000052426416 Eh/α |
          | HOMO-LUMO GAP               3.605932890967 eV   |
           -------------------------------------------------

 * finished run on 2025/09/14 at 14:51:55.341
