   * xtb version 6.7.1 (edcfbbe) compiled by 'albert@albert-system' on 2024-07-22

   ID    Z sym.   atoms
    1    6 C      1-4, 6-22, 24-44
    2   14 Si     5, 23
    3    1 H      45-78

          program call               : xtb data2507/toluene/UGH3/UGH3.xyz --gfn 2 --gbsa toluene --ohess vtight --parallel 40 --molden --ceasefiles --namespace data2507/toluene/UGH3/UGH3_toluene_S0_preOpt
      * Solvation model:               GBSA
        Solvent                        toluene
        Solvent mass                       9.2140E+01 g/mol
          :  Hamiltonian                  GFN2-xTB          :
 * total energy  :  -110.6307479 Eh     change       -0.6488392E-09 Eh
 * total energy  :  -110.6426656 Eh     change       -0.1191775E-01 Eh
 * total energy  :  -110.6438397 Eh     change       -0.1174071E-02 Eh
 * total energy  :  -110.6439224 Eh     change       -0.8271054E-04 Eh
 * total energy  :  -110.6439498 Eh     change       -0.2734133E-04 Eh
 * total energy  :  -110.6439584 Eh     change       -0.8686951E-05 Eh
 * total energy  :  -110.6439726 Eh     change       -0.1412095E-04 Eh
 * total energy  :  -110.6439944 Eh     change       -0.2181226E-04 Eh
 * total energy  :  -110.6440291 Eh     change       -0.3474863E-04 Eh
 * total energy  :  -110.6440718 Eh     change       -0.4268558E-04 Eh
 * total energy  :  -110.6442688 Eh     change       -0.3455154E-05 Eh
 * total energy  :  -110.6442694 Eh     change       -0.5625714E-06 Eh
 * total energy  :  -110.6442708 Eh     change       -0.1402272E-05 Eh
 * total energy  :  -110.6442717 Eh     change       -0.9253270E-06 Eh
 * total energy  :  -110.6442725 Eh     change       -0.8107006E-06 Eh
 * total energy  :  -110.6442739 Eh     change       -0.1360825E-05 Eh
 * total energy  :  -110.6442752 Eh     change       -0.1324877E-05 Eh
 * total energy  :  -110.6442758 Eh     change       -0.6016000E-06 Eh
 * total energy  :  -110.6442759 Eh     change       -0.8342843E-07 Eh
   *** GEOMETRY OPTIMIZATION CONVERGED AFTER 51 ITERATIONS ***

 final structure:
================
78
 xtb: 6.7.1 (edcfbbe)
C            6.41696415718753        1.26144376142384        3.01657644438183
C            5.91341110963303       -0.02881925763421        3.05174386483003
C            4.85973613339078       -0.38230193338107        2.22811156691562
C            4.28658240535046        0.53948090050515        1.35527727336157
Si           2.82806546432488        0.03834252355865        0.25205920401178
C            2.55328681426487        1.32712838555207       -1.11330309170181
C            1.86278829891170        2.50577063336532       -0.84239211393246
C            1.65345005215452        3.45496205217098       -1.82659217714147
C            2.13340756436380        3.24040679268983       -3.10844753202814
C            2.81930263601719        2.07218859639468       -3.39682678675542
C            3.02577824125216        1.12773291715433       -2.40658464376361
C            3.19215041483381       -1.64563207762967       -0.54357923727700
C            2.16305153846284       -2.52773193289068       -0.86017121127784
C            2.42434022186534       -3.74001233596697       -1.47381698531619
C            3.72738000996817       -4.09473613637862       -1.78217373743119
C            4.76446622941465       -3.22985258007573       -1.47309518886648
C            4.49571741758191       -2.01855513765823       -0.86082791734695
C            1.23117997681865       -0.06268706839434        1.26850588184261
C            1.22260796918784       -0.17611578934623        2.65481810955264
C            0.02749231555169       -0.26710573876284        3.34840302541650
C           -1.17556233435171       -0.24724771425644        2.66501506586967
C           -1.20386152289310       -0.12801047032249        1.27767613558894
Si          -2.84051775623056       -0.07635766560551        0.32098490191573
C           -2.48429664355544       -0.51735657509258       -1.48977392658816
C           -2.72636396042357       -1.78942606033295       -1.99851849865531
C           -2.39839764841013       -2.11125772991309       -3.30400625784862
C           -1.81605518127163       -1.16157587190850       -4.12699185210690
C           -1.57425443730020        0.11264855858564       -3.63987775519633
C           -1.90989257912036        0.42849621161402       -2.33582672999855
C           -3.57633728358778        1.67002897913386        0.38861978229442
C           -4.58374879438307        2.04597555748517       -0.49650412640335
C           -5.13699181784283        3.31321605192684       -0.45403541330988
C           -4.68750159557221        4.23402843388574        0.47855936231560
C           -3.68221935866070        3.87924798575047        1.36285182986250
C           -3.13481507960187        2.60909810011537        1.31568377485291
C           -4.03057113558947       -1.33606126167210        1.09179038405096
C           -3.56998911276406       -2.59977618849899        1.45441088848884
C           -4.42174663884296       -3.54201751175533        2.00199340064782
C           -5.75782704045385       -3.23436262723727        2.20146375868086
C           -6.23184648081500       -1.98049496931298        1.85303587985052
C           -5.37415814676310       -1.04350485538823        1.30362762318402
C            0.00844184327009       -0.03591727494884        0.60630901259574
C            4.80682864028967        1.82985681692686        1.33218208974244
C            5.86138829799721        2.19051151649171        2.15256353627540
H            7.24033765248229        1.54063101105875        3.65864591120777
H            6.34470704211297       -0.75927011597066        3.72218098982662
H            4.47548206505381       -1.39261832016945        2.25557340344800
H            1.47964879306096        2.67612589477318        0.15425728485956
H            1.11348847873791        4.36302657768914       -1.59603111749939
H            1.97102119010555        3.97989135117791       -3.88000841728924
H            3.19390024160265        1.89801835844467       -4.39605221297196
H            3.55859511558978        0.21667133418379       -2.63968966963778
H            1.14393516315902       -2.26028087328444       -0.62045377562017
H            1.61024604083771       -4.41002577305346       -1.71286419201733
H            3.93422398756630       -5.04129911964875       -2.26129932762625
H            5.78378708036282       -3.50086795746210       -1.71094562040180
H            5.30983426712508       -1.34843128432480       -0.62162778183245
H            2.15931885582302       -0.18926359778199        3.19379338612500
H            0.03433775028646       -0.35509435367033        4.42650968931619
H           -2.10603351457469       -0.32623249139800        3.21027359323255
H           -3.17990125062897       -2.53590690835891       -1.36193654487150
H           -2.59549818941553       -3.10515358840510       -3.68135968414269
H           -1.55426591243483       -1.41233049361878       -5.14520632068387
H           -1.12273708763719        0.86015598462488       -4.27718216469478
H           -1.72672674610224        1.42721694009941       -1.96464888303171
H           -4.93418733196373        1.33377808203339       -1.23087334924648
H           -5.91984499280119        3.58549482264657       -1.14835376154092
H           -5.11757495319147        5.22502903921117        0.51396348576797
H           -3.32457812825252        4.59525511336426        2.08981542007672
H           -2.34772483618978        2.33993550446707        2.00579380267764
H           -2.52634123469001       -2.84280344804787        1.30914458182091
H           -4.04490683156532       -4.51772499485652        2.27591674980805
H           -6.42578916879165       -3.96829108193577        2.62972342756287
H           -7.27254703843809       -1.73345991522797        2.01048450261308
H           -5.75043543501654       -0.06597231330066        1.03766101698138
H            0.00234785563128        0.06334155078571       -0.47017204852916
H            4.38072329127118        2.55883391926183        0.65753372338597
H            6.25228957722830        3.19797513634908        2.11851528932946

          :  Hamiltonian                  GFN2-xTB          :
         :: gradient norm              0.000193010873 Eh/a0 ::
         :: HOMO-LUMO gap              3.593365136810 eV    ::
         :: SCC energy              -112.789505726148 Eh    ::
         :: -> dispersion             -0.107593378031 Eh    ::
         :: -> Gsolv                  -0.048032551522 Eh    ::
         :: repulsion energy           2.145229851504 Eh    ::

    * Orbital Energies and Occupations

         #    Occupation            Energy/Eh            Energy/eV
      -------------------------------------------------------------
         1        2.0000           -0.7511686             -20.4403
       ...           ...                  ...                  ...
        93        2.0000           -0.4004348             -10.8964
        94        2.0000           -0.4002711             -10.8919
        95        2.0000           -0.3997064             -10.8766
        96        2.0000           -0.3996173             -10.8741
        97        2.0000           -0.3990988             -10.8600
        98        2.0000           -0.3976541             -10.8207
        99        2.0000           -0.3972342             -10.8093
       100        2.0000           -0.3895793             -10.6010
       101        2.0000           -0.3828436             -10.4177
       102        2.0000           -0.3819176             -10.3925
       103        2.0000           -0.3811188             -10.3708
       104        2.0000           -0.3804158             -10.3516
       105        2.0000           -0.3728928             -10.1469 (HOMO)
       106                         -0.2408391              -6.5536 (LUMO)
       107                         -0.2371361              -6.4528
       108                         -0.2350114              -6.3950
       109                         -0.2341365              -6.3712
       110                         -0.2328991              -6.3375
       111                         -0.2302051              -6.2642
       112                         -0.2264760              -6.1627
       113                         -0.2220064              -6.0411
       114                         -0.2192089              -5.9650
       115                         -0.2187988              -5.9538
       116                         -0.2182793              -5.9397
       ...                                ...                  ...
       220                          0.6777382              18.4422
      -------------------------------------------------------------
                  HL-Gap            0.1320537 Eh            3.5934 eV

     #   Z          covCN         q      C6AA      α(0)
     1   6 C        2.920    -0.030    28.750     8.793
     2   6 C        2.917    -0.032    28.788     8.798
     3   6 C        2.938    -0.032    28.798     8.801
     4   6 C        2.862    -0.093    30.326     9.027
     5  14 Si       3.612     0.490    98.179    19.021
     6   6 C        2.862    -0.093    30.340     9.029
     7   6 C        2.938    -0.032    28.788     8.800
     8   6 C        2.917    -0.031    28.785     8.798
     9   6 C        2.920    -0.030    28.749     8.793
    10   6 C        2.917    -0.031    28.775     8.797
    11   6 C        2.935    -0.033    28.810     8.803
    12   6 C        2.862    -0.093    30.327     9.027
    13   6 C        2.936    -0.033    28.821     8.805
    14   6 C        2.917    -0.031    28.775     8.796
    15   6 C        2.920    -0.030    28.750     8.793
    16   6 C        2.917    -0.032    28.790     8.799
    17   6 C        2.936    -0.032    28.801     8.801
    18   6 C        2.860    -0.094    30.363     9.032
    19   6 C        2.933    -0.032    28.797     8.801
    20   6 C        2.914    -0.032    28.798     8.800
    21   6 C        2.936    -0.031    28.766     8.796
    22   6 C        2.860    -0.095    30.384     9.035
    23  14 Si       3.611     0.490    98.180    19.022
    24   6 C        2.862    -0.093    30.342     9.029
    25   6 C        2.934    -0.033    28.831     8.806
    26   6 C        2.917    -0.031    28.778     8.797
    27   6 C        2.920    -0.030    28.742     8.792
    28   6 C        2.917    -0.031    28.773     8.796
    29   6 C        2.939    -0.031    28.778     8.798
    30   6 C        2.862    -0.093    30.327     9.027
    31   6 C        2.938    -0.032    28.793     8.800
    32   6 C        2.917    -0.031    28.785     8.798
    33   6 C        2.920    -0.030    28.749     8.793
    34   6 C        2.917    -0.031    28.779     8.797
    35   6 C        2.935    -0.033    28.821     8.804
    36   6 C        2.862    -0.093    30.323     9.026
    37   6 C        2.938    -0.032    28.792     8.800
    38   6 C        2.917    -0.031    28.784     8.798
    39   6 C        2.920    -0.030    28.747     8.792
    40   6 C        2.917    -0.031    28.777     8.797
    41   6 C        2.935    -0.033    28.825     8.805
    42   6 C        2.961    -0.036    28.886     8.816
    43   6 C        2.935    -0.033    28.823     8.805
    44   6 C        2.917    -0.031    28.777     8.797
    45   1 H        0.926     0.029     2.604     2.523
    46   1 H        0.925     0.028     2.616     2.529
    47   1 H        0.925     0.022     2.702     2.570
    48   1 H        0.925     0.021     2.719     2.579
    49   1 H        0.925     0.027     2.629     2.536
    50   1 H        0.926     0.028     2.613     2.528
    51   1 H        0.925     0.027     2.629     2.535
    52   1 H        0.926     0.021     2.722     2.580
    53   1 H        0.926     0.022     2.710     2.574
    54   1 H        0.926     0.027     2.623     2.533
    55   1 H        0.926     0.029     2.604     2.524
    56   1 H        0.925     0.028     2.617     2.530
    57   1 H        0.925     0.022     2.709     2.574
    58   1 H        0.926     0.022     2.698     2.569
    59   1 H        0.925     0.026     2.648     2.545
    60   1 H        0.925     0.021     2.725     2.582
    61   1 H        0.926     0.023     2.682     2.561
    62   1 H        0.925     0.028     2.615     2.529
    63   1 H        0.926     0.028     2.608     2.526
    64   1 H        0.926     0.026     2.645     2.543
    65   1 H        0.926     0.019     2.749     2.593
    66   1 H        0.925     0.021     2.712     2.575
    67   1 H        0.925     0.028     2.620     2.531
    68   1 H        0.926     0.029     2.606     2.525
    69   1 H        0.925     0.028     2.619     2.531
    70   1 H        0.926     0.022     2.700     2.570
    71   1 H        0.925     0.021     2.711     2.575
    72   1 H        0.925     0.028     2.615     2.529
    73   1 H        0.926     0.029     2.604     2.523
    74   1 H        0.926     0.028     2.618     2.530
    75   1 H        0.926     0.023     2.690     2.565
    76   1 H        0.926     0.012     2.859     2.644
    77   1 H        0.926     0.022     2.698     2.569
    78   1 H        0.926     0.028     2.619     2.531

molecular dipole:
                 x           y           z       tot (Debye)
 q only:       -0.020      -0.033       0.087
   full:       -0.019      -0.014       0.021       0.081

 projected vibrational frequencies (cm⁻¹)
eigval :       -0.00    -0.00    -0.00     0.00     0.00     0.00
eigval :        5.56    10.16    19.72    24.92    26.05    29.15
eigval :       30.87    31.87    34.60    38.52    41.44    42.00
eigval :       44.33    46.31    49.67    52.05    56.50    58.13
eigval :      103.34   152.19   157.95   160.08   165.89   168.83
eigval :      172.55   188.61   191.78   212.84   214.39   216.74
eigval :      217.87   221.14   225.36   227.90   234.89   280.40
eigval :      357.99   359.40   359.75   360.54   361.53   363.77
eigval :      381.40   412.49   413.74   415.35   418.80   423.13
eigval :      424.13   439.34   470.97   472.11   478.71   481.23
eigval :      489.34   499.35   588.71   589.13   589.43   589.48
eigval :      589.61   589.95   640.56   661.64   663.22   663.33
eigval :      663.56   664.19   665.03   665.82   668.03   678.88
eigval :      703.96   704.16   705.74   707.18   733.82   734.47
eigval :      734.58   734.74   735.17   738.95   776.05   786.30
eigval :      880.09   881.22   881.76   881.96   883.46   884.45
eigval :      902.89   904.09   905.25   906.53   907.18   908.94
eigval :      910.64   911.97   929.81   931.18   931.37   932.09
eigval :      932.46   933.05   933.90   934.36   934.56   935.10
eigval :      935.33   936.32   938.65   974.63   974.71   976.13
eigval :      976.27   976.37   976.55   982.87  1083.44  1083.52
eigval :     1084.29  1084.33  1084.76  1085.03  1119.05  1119.25
eigval :     1120.15  1120.57  1121.44  1121.86  1129.62  1143.50
eigval :     1144.25  1147.91  1149.28  1149.70  1149.77  1150.35
eigval :     1177.05  1180.08  1181.54  1181.80  1182.06  1182.22
eigval :     1182.53  1198.61  1205.20  1205.67  1206.63  1207.66
eigval :     1209.60  1210.64  1285.39  1286.08  1286.70  1287.43
eigval :     1288.09  1289.76  1292.85  1304.06  1308.69  1308.85
eigval :     1309.39  1309.58  1309.84  1310.05  1389.74  1417.71
eigval :     1417.84  1418.29  1418.85  1419.80  1419.99  1452.19
eigval :     1462.70  1463.02  1463.10  1463.38  1463.84  1464.53
eigval :     1563.58  1574.51  1574.63  1574.93  1575.23  1575.39
eigval :     1575.47  1576.91  1591.71  1591.98  1592.00  1592.23
eigval :     1593.20  1593.37  3052.67  3056.95  3057.01  3057.12
eigval :     3057.43  3058.29  3058.85  3059.19  3059.52  3060.35
eigval :     3060.49  3060.64  3060.94  3062.22  3063.46  3065.85
eigval :     3065.97  3066.38  3066.81  3067.40  3067.82  3070.22
eigval :     3071.00  3071.26  3071.35  3072.32  3073.32  3073.42
eigval :     3079.68  3080.23  3080.97  3081.27  3081.95  3082.02

   temp. (K)  partition function   enthalpy   heat capacity  entropy
                                   cal/mol     cal/K/mol   cal/K/mol   J/K/mol
 298.15  VIB  0.302E+22            23779.012    136.893    153.200
         ROT  0.571E+08              888.752      2.981     38.476
         INT  0.172E+30            24667.765    139.874    191.676
         TR   0.140E+29             1481.254      4.968     45.013
         TOT                       26149.0186   144.8420   236.6889   990.3065

       T/K    H(0)-H(T)+PV         H(T)/Eh          T*S/Eh         G(T)/Eh
   ------------------------------------------------------------------------
    298.15    0.416711E-01    0.649632E+00    0.112459E+00    0.537174E+00
   ------------------------------------------------------------------------

         :::::::::::::::::::::::::::::::::::::::::::::::::::::
         ::                  THERMODYNAMIC                  ::
         :::::::::::::::::::::::::::::::::::::::::::::::::::::
         :: total free energy        -110.107102057352 Eh   ::
         ::.................................................::
         :: total energy             -110.644275876412 Eh   ::
         :: zero point energy           0.607961250901 Eh   ::
         :: G(RRHO) w/o ZPVE           -0.070787431841 Eh   ::
         :: G(RRHO) contrib.            0.537173819060 Eh   ::
         :::::::::::::::::::::::::::::::::::::::::::::::::::::

           -------------------------------------------------
          | TOTAL ENERGY             -110.644275876412 Eh   |
          | TOTAL ENTHALPY           -109.994643511965 Eh   |
          | TOTAL FREE ENERGY        -110.107102057352 Eh   |
          | GRADIENT NORM               0.000193013251 Eh/α |
          | HOMO-LUMO GAP               3.593363298476 eV   |
           -------------------------------------------------

 * finished run on 2025/09/14 at 14:40:57.988
