   * xtb version 6.7.1 (edcfbbe) compiled by 'albert@albert-system' on 2024-07-22

   ID    Z sym.   atoms
    1    6 C      1-5, 7-13, 15-31, 33-46, 48-72
    2    7 N      6, 14, 32, 47
    3    1 H      73-116

          program call               : xtb data2507/toluene/PPI-An-NPIM/PPI-An-NPIM_toluene_T1_crest.xyz --gfn 2 --uhf 2 --gbsa toluene --ohess vtight --parallel 40 --molden --ceasefiles --namespace data2507/toluene/PPI-An-NPIM/PPI-An-NPIM_toluene_T1_finalOpt
      * Solvation model:               GBSA
        Solvent                        toluene
        Solvent mass                       9.2140E+01 g/mol
          :  Hamiltonian                  GFN2-xTB          :
 * total energy  :  -179.8267174 Eh     change       -0.5715407E-08 Eh
 * total energy  :  -179.8268031 Eh     change       -0.8573730E-04 Eh
 * total energy  :  -179.8268841 Eh     change       -0.8097164E-04 Eh
 * total energy  :  -179.8269180 Eh     change       -0.3392745E-04 Eh
 * total energy  :  -179.8269571 Eh     change       -0.3909243E-04 Eh
 * total energy  :  -179.8269769 Eh     change       -0.1972587E-04 Eh
 * total energy  :  -179.8269886 Eh     change       -0.1174451E-04 Eh
 * total energy  :  -179.8269979 Eh     change       -0.9340857E-05 Eh
 * total energy  :  -179.8270099 Eh     change       -0.1195302E-04 Eh
 * total energy  :  -179.8270155 Eh     change       -0.5652645E-05 Eh
 * total energy  :  -179.8271282 Eh     change       -0.6121653E-06 Eh
 * total energy  :  -179.8271289 Eh     change       -0.6870591E-06 Eh
 * total energy  :  -179.8271297 Eh     change       -0.7523496E-06 Eh
 * total energy  :  -179.8271303 Eh     change       -0.6445495E-06 Eh
 * total energy  :  -179.8271309 Eh     change       -0.6133756E-06 Eh
 * total energy  :  -179.8271316 Eh     change       -0.7205637E-06 Eh
 * total energy  :  -179.8271324 Eh     change       -0.7709958E-06 Eh
 * total energy  :  -179.8271331 Eh     change       -0.7264513E-06 Eh
 * total energy  :  -179.8271331 Eh     change       -0.2659817E-08 Eh
   *** GEOMETRY OPTIMIZATION CONVERGED AFTER 68 ITERATIONS ***

 final structure:
================
116
 xtb: 6.7.1 (edcfbbe)
C          -13.25165595072889       -2.23575661821324       -0.56317865663898
C          -13.18309933854171       -1.02871525801290        0.11444500811253
C          -11.97397438377970       -0.37308710163351        0.24390322924177
C          -10.81055515140503       -0.91818812652402       -0.29916543690517
C           -9.55370320189380       -0.20078765301460       -0.14221590075987
N           -9.54037515192914        1.15432767355528        0.00472447628340
C           -8.28472511838348        1.51897788576815        0.09431085933469
C           -7.85971065228930        2.89261704701329        0.31554508994352
C           -8.59867121288153        3.92310686494526       -0.26579099611946
C           -8.23965690137740        5.24153956302721       -0.06174641572799
C           -7.14389479744016        5.55037024162238        0.72899292914068
C           -6.41914975179832        4.53309059468088        1.32814628665107
C           -6.77305749065328        3.21139158505992        1.12851969061571
N           -7.44940072577312        0.43520767873698        0.00492348286726
C           -6.04285946526049        0.43761822387802        0.01916282253116
C           -5.33912774655380        1.24804486850045       -0.86912654294838
C           -3.96119527210508        1.25007173934473       -0.85724575410094
C           -3.24427357058333        0.43582414176054        0.02841670476453
C           -1.78527610875566        0.43622247443704        0.03731742721717
C           -1.07527334985649        1.65912528103845        0.24259390697247
C           -1.74601937569948        2.85493778616339        0.52492522645261
C           -1.05894765410894        4.03512266477882        0.78795227857996
C            0.31980553446445        4.02982995050492        0.82544411805253
C            1.01312434884491        2.84612877963616        0.59104933564612
C            0.35151244805824        1.65745606228859        0.26569149696259
C            1.06854737012703        0.43430823907654        0.06613526569627
C            2.51978412046630        0.43527065436173        0.06829118117478
C            3.24515708791524       -0.42115082044864        0.91046500581500
C            4.62061695899399       -0.43337756241100        0.90928459135827
C            5.33963357670400        0.39473977726680        0.04044178803680
C            6.78314587574315        0.42141352056169       -0.03328669353871
N            7.45732159298287        1.50578045998175       -0.34959516402657
C            8.76687810332596        1.15779381515807       -0.31418835584955
C            9.89649753563557        1.99206180833521       -0.54631917241652
C            9.74601786148901        3.35279198282258       -0.83597205325288
C           10.84830540289342        4.14757216783116       -1.03156624025706
C           12.12058361042213        3.58708540673188       -0.93516234187692
C           12.28033774082406        2.24961538646381       -0.65418442407531
C           11.17862896419763        1.40283107748422       -0.45596334724464
C           11.31354978921209       -0.01917516771535       -0.18645362775880
C           12.56803038918392       -0.64508592262483       -0.16021224123016
C           12.70676094194170       -1.99580282989269        0.05873725854568
C           11.58084594590765       -2.79111116376031        0.24853788749944
C           10.33362463595958       -2.21676585357701        0.23575583074115
C           10.17062768542244       -0.83710782652463        0.03874231407183
C            8.90178378931083       -0.19290522838423        0.01582545963322
N            7.61823256702540       -0.65099876947609        0.20660286186056
C            7.18892912201284       -1.95590236630727        0.53546977354571
C            6.46116193614115       -2.69250904383323       -0.39171852852695
C            6.01096833459050       -3.95798303064937       -0.05874120919009
C            6.28493125976771       -4.48910194063131        1.19093883762789
C            7.01121247559998       -3.75320627482301        2.11419404997405
C            7.46271504922896       -2.48575424322653        1.79325727367650
C            4.62268371925423        1.27231783480397       -0.78472977869005
C            3.24957331439300        1.29686231183658       -0.76730503815070
C            0.35483366198343       -0.78962892732970       -0.14179640800588
C            1.01989903375213       -1.98277410348786       -0.44344637843693
C            0.32850879004413       -3.16496048388220       -0.69064985993857
C           -1.05073795136576       -3.16490454114203       -0.69115630905100
C           -1.73987799019739       -1.98157684483581       -0.44887087641262
C           -1.07224644656748       -0.78760262665417       -0.15177468668836
C           -3.96839724458208       -0.37786129848557        0.90808382306374
C           -5.34674934811174       -0.37564930352549        0.90989892552723
C           -8.25219158495445       -0.67566629461260       -0.13698868471473
C           -7.71999553849423       -2.02910996048664       -0.24333803658424
C           -6.71084523876400       -2.33509138039842       -1.15473480681273
C           -6.21499452458141       -3.62323874608207       -1.24019400074859
C           -6.71486380867333       -4.61964218786542       -0.41832652185608
C           -7.72083299389603       -4.32419557926031        0.48832040493766
C           -8.22131074755003       -3.03920937775575        0.57734270543454
C          -10.89205022935334       -2.12218284916778       -0.99715376221839
C          -12.10419314662234       -2.77505743484648       -1.12215446925864
H          -14.19628871763794       -2.75081274142924       -0.66153038215331
H          -14.07657073659177       -0.59851495750753        0.54414021112263
H          -11.90616600721505        0.56949696361840        0.76605499019361
H           -9.45230228987661        3.66697442049232       -0.87481747596528
H           -8.81562437343235        6.03165968339866       -0.52097079768024
H           -6.86157821490092        6.58103817352935        0.88574681147396
H           -5.57701828807623        4.76972819296673        1.96217706648321
H           -6.21674083935649        2.42797335240474        1.62214881987884
H           -5.88204370198000        1.86795947973652       -1.56792971302258
H           -3.42266556329534        1.86091853531121       -1.56640815605671
H           -2.82398505346100        2.86281871475653        0.55623571137449
H           -1.61169607430610        4.94236401782725        0.98216197983522
H            0.86802344540839        4.93209253046030        1.05269322589549
H            2.08806645698955        2.84762755715151        0.68313002506049
H            2.70853723152719       -1.04748892997953        1.60831224866001
H            5.14001337112738       -1.06877567161585        1.60965949813062
H            8.74353848954841        3.74900650157038       -0.89312131698691
H           10.73478226343625        5.19832265861494       -1.25443574654534
H           12.99193810525057        4.20905298561722       -1.08207915460155
H           13.28433568420441        1.86214487804730       -0.58585063264750
H           13.46047129154699       -0.06299886506202       -0.32325068697840
H           13.69085632819529       -2.44088837602947        0.07202821208030
H           11.68513194560901       -3.85519430167933        0.40121156495369
H            9.46328951570339       -2.83895501442154        0.36726716659527
H            6.25206314438451       -2.26711002733061       -1.36238339126763
H            5.44619299749733       -4.52935155296059       -0.77976807132497
H            5.93202782022726       -5.47646477567142        1.44709903248475
H            7.22469779296387       -4.16371275243945        3.08963826735440
H            8.02747619255009       -1.90121750372378        2.50535479493478
H            5.17793883636154        1.91932235128470       -1.44647113790651
H            2.71571488041706        1.95179957724932       -1.44038097090098
H            2.09702717793905       -1.98910828993907       -0.50502627871389
H            0.87869415369957       -4.07053526352374       -0.89932182433183
H           -1.60180323825116       -4.07047129157611       -0.89792377890606
H           -2.81666601590814       -1.98443545281217       -0.50901595950875
H           -3.43560434864104       -0.99044291601811        1.62007909081836
H           -5.89274987211857       -0.99442436365643        1.60680359294325
H           -6.32563505941046       -1.56440269716752       -1.80747163705820
H           -5.43650706527821       -3.84935848708653       -1.95445237749438
H           -6.32443502071279       -5.62433452529988       -0.48574307547751
H           -8.11574789643810       -5.09773049831333        1.13071784253072
H           -9.00508275407791       -2.80458040828268        1.28334387889760
H          -10.00604920888375       -2.54104619464843       -1.45108824096060
H          -12.15426139586132       -3.70881308464218       -1.66421864065016

          :  Hamiltonian                  GFN2-xTB          :
         :: gradient norm              0.000060737267 Eh/a0 ::
         :: HOMO-LUMO gap              0.785385339273 eV    ::
         :: SCC energy              -183.221980789952 Eh    ::
         :: -> dispersion             -0.176044361460 Eh    ::
         :: -> Gsolv                  -0.075329935913 Eh    ::
         :: repulsion energy           3.394847655199 Eh    ::

    * Orbital Energies and Occupations

         #    Occupation            Energy/Eh            Energy/eV
      -------------------------------------------------------------
         1        2.0000           -0.6899652             -18.7749
       ...           ...                  ...                  ...
       157        2.0000           -0.4030767             -10.9683
       158        2.0000           -0.4020625             -10.9407
       159        2.0000           -0.4010296             -10.9126
       160        2.0000           -0.4005755             -10.9002
       161        2.0000           -0.3990803             -10.8595
       162        2.0000           -0.3951567             -10.7528
       163        2.0000           -0.3847506             -10.4696
       164        2.0000           -0.3811644             -10.3720
       165        2.0000           -0.3785338             -10.3004
       166        2.0000           -0.3674484              -9.9988
       167        1.9986           -0.3636032              -9.8941
       168        1.0014           -0.3511352              -9.5549
       169        1.0000           -0.2917437              -7.9387 (HOMO)
       170        0.0000           -0.2628814              -7.1534 (LUMO)
       171                         -0.2554487              -6.9511
       172                         -0.2527531              -6.8778
       173                         -0.2442905              -6.6475
       174                         -0.2431265              -6.6158
       175                         -0.2416164              -6.5747
       176                         -0.2411490              -6.5620
       177                         -0.2371579              -6.4534
       178                         -0.2370149              -6.4495
       179                         -0.2289743              -6.2307
       180                         -0.2283407              -6.2135
       ...                                ...                  ...
       332                          0.7231499              19.6779
      -------------------------------------------------------------
                  HL-Gap            0.0288623 Eh            0.7854 eV

     #   Z          covCN         q      C6AA      α(0)
     1   6 C        2.919    -0.034    28.835     8.806
     2   6 C        2.918    -0.031    28.778     8.797
     3   6 C        2.927    -0.032    28.787     8.799
     4   6 C        2.973     0.006    27.887     8.662
     5   6 C        3.164     0.054    26.461     8.407
     6   7 N        1.912    -0.317    29.051     7.991
     7   6 C        3.158     0.129    24.892     8.157
     8   6 C        2.974    -0.000    28.035     8.685
     9   6 C        2.927    -0.030    28.742     8.792
    10   6 C        2.918    -0.028    28.699     8.785
    11   6 C        2.919    -0.029    28.736     8.791
    12   6 C        2.919    -0.029    28.729     8.790
    13   6 C        2.922    -0.035    28.869     8.811
    14   7 N        2.849    -0.044    22.078     6.979
    15   6 C        2.913     0.061    26.641     8.464
    16   6 C        2.918    -0.040    28.992     8.830
    17   6 C        2.924    -0.030    28.760     8.795
    18   6 C        2.973     0.017    27.630     8.622
    19   6 C        2.973    -0.011    28.280     8.723
    20   6 C        2.976     0.009    27.822     8.652
    21   6 C        2.921    -0.039    28.962     8.825
    22   6 C        2.913    -0.031    28.779     8.797
    23   6 C        2.914    -0.031    28.769     8.795
    24   6 C        2.921    -0.038    28.946     8.823
    25   6 C        2.976     0.009    27.816     8.651
    26   6 C        2.972    -0.011    28.275     8.722
    27   6 C        2.973     0.017    27.627     8.622
    28   6 C        2.922    -0.033    28.820     8.804
    29   6 C        2.918    -0.038    28.936     8.821
    30   6 C        2.973    -0.006    28.160     8.705
    31   6 C        3.185     0.136    24.629     8.098
    32   7 N        1.894    -0.318    29.101     7.998
    33   6 C        3.201     0.063    26.056     8.318
    34   6 C        2.985    -0.003    28.102     8.696
    35   6 C        2.921    -0.033    28.812     8.802
    36   6 C        2.917    -0.031    28.786     8.798
    37   6 C        2.917    -0.033    28.833     8.805
    38   6 C        2.921    -0.036    28.897     8.815
    39   6 C        2.978    -0.004    28.124     8.699
    40   6 C        2.979    -0.001    28.046     8.687
    41   6 C        2.922    -0.035    28.864     8.810
    42   6 C        2.916    -0.033    28.830     8.805
    43   6 C        2.916    -0.032    28.803     8.801
    44   6 C        2.919    -0.041    29.015     8.833
    45   6 C        2.977    -0.005    28.151     8.703
    46   6 C        3.070     0.024    27.392     8.582
    47   7 N        2.838    -0.055    22.299     7.014
    48   6 C        2.912     0.067    26.501     8.441
    49   6 C        2.921    -0.037    28.931     8.821
    50   6 C        2.920    -0.025    28.617     8.773
    51   6 C        2.919    -0.028    28.705     8.786
    52   6 C        2.920    -0.026    28.651     8.778
    53   6 C        2.921    -0.037    28.919     8.819
    54   6 C        2.925    -0.030    28.753     8.794
    55   6 C        2.921    -0.032    28.792     8.799
    56   6 C        2.976     0.009    27.819     8.652
    57   6 C        2.921    -0.039    28.968     8.826
    58   6 C        2.914    -0.032    28.787     8.798
    59   6 C        2.913    -0.032    28.789     8.798
    60   6 C        2.922    -0.039    28.968     8.826
    61   6 C        2.976     0.009    27.823     8.652
    62   6 C        2.924    -0.031    28.767     8.796
    63   6 C        2.918    -0.040    28.986     8.829
    64   6 C        3.069     0.016    27.586     8.612
    65   6 C        2.971     0.006    27.877     8.661
    66   6 C        2.924    -0.034    28.844     8.807
    67   6 C        2.918    -0.029    28.732     8.790
    68   6 C        2.920    -0.031    28.767     8.795
    69   6 C        2.918    -0.028    28.709     8.786
    70   6 C        2.925    -0.033    28.818     8.804
    71   6 C        2.923    -0.039    28.969     8.826
    72   6 C        2.919    -0.031    28.785     8.798
    73   1 H        0.926     0.031     2.571     2.507
    74   1 H        0.926     0.032     2.564     2.504
    75   1 H        0.926     0.042     2.421     2.433
    76   1 H        0.926     0.043     2.407     2.426
    77   1 H        0.926     0.039     2.458     2.452
    78   1 H        0.926     0.039     2.461     2.453
    79   1 H        0.926     0.037     2.486     2.466
    80   1 H        0.926     0.027     2.634     2.538
    81   1 H        0.926     0.036     2.499     2.472
    82   1 H        0.926     0.046     2.367     2.406
    83   1 H        0.926     0.035     2.520     2.482
    84   1 H        0.926     0.032     2.559     2.502
    85   1 H        0.926     0.032     2.557     2.500
    86   1 H        0.926     0.036     2.498     2.472
    87   1 H        0.926     0.040     2.451     2.448
    88   1 H        0.926     0.030     2.590     2.517
    89   1 H        0.926     0.044     2.394     2.419
    90   1 H        0.926     0.033     2.538     2.491
    91   1 H        0.926     0.033     2.544     2.494
    92   1 H        0.926     0.036     2.508     2.477
    93   1 H        0.926     0.038     2.477     2.461
    94   1 H        0.926     0.034     2.536     2.490
    95   1 H        0.926     0.033     2.549     2.496
    96   1 H        0.926     0.030     2.580     2.512
    97   1 H        0.926     0.038     2.474     2.460
    98   1 H        0.926     0.048     2.349     2.397
    99   1 H        0.926     0.048     2.344     2.394
   100   1 H        0.926     0.048     2.350     2.397
   101   1 H        0.926     0.042     2.428     2.437
   102   1 H        0.926     0.046     2.366     2.405
   103   1 H        0.926     0.042     2.421     2.433
   104   1 H        0.926     0.035     2.516     2.480
   105   1 H        0.926     0.032     2.563     2.503
   106   1 H        0.926     0.031     2.570     2.507
   107   1 H        0.926     0.034     2.531     2.488
   108   1 H        0.926     0.046     2.376     2.411
   109   1 H        0.926     0.038     2.477     2.461
   110   1 H        0.926     0.025     2.658     2.550
   111   1 H        0.926     0.035     2.521     2.483
   112   1 H        0.926     0.036     2.502     2.473
   113   1 H        0.926     0.036     2.508     2.476
   114   1 H        0.926     0.029     2.600     2.521
   115   1 H        0.926     0.024     2.672     2.556
   116   1 H        0.926     0.030     2.590     2.517

molecular dipole:
                 x           y           z       tot (Debye)
 q only:        1.261      -1.235       0.362
   full:        1.691      -1.767       0.429       6.311

 projected vibrational frequencies (cm⁻¹)
eigval :       -0.00    -0.00    -0.00     0.00     0.00     0.00
eigval :        5.59     6.45    10.00    13.67    15.75    19.89
eigval :       23.42    31.75    35.89    36.88    39.44    42.95
eigval :       45.52    50.43    55.00    56.65    61.46    67.83
eigval :       70.88    78.65    82.37    85.25    86.85    92.06
eigval :      106.22   116.89   119.37   124.27   129.87   139.86
eigval :      153.07   162.71   172.24   188.31   200.30   217.53
eigval :      221.45   223.38   230.46   238.50   239.34   242.49
eigval :      247.89   259.42   263.45   268.00   272.69   280.45
eigval :      304.57   309.79   335.54   346.39   363.69   370.58
eigval :      371.54   372.57   375.96   376.08   378.49   381.52
eigval :      386.48   387.71   396.08   398.03   403.93   411.15
eigval :      415.70   419.97   435.47   436.30   446.45   451.20
eigval :      468.34   472.86   475.05   480.04   484.46   502.83
eigval :      509.99   513.52   524.62   528.77   531.33   534.61
eigval :      567.59   576.53   580.89   582.99   585.17   586.19
eigval :      587.14   588.96   590.41   607.20   611.38   614.88
eigval :      628.37   633.43   637.74   644.44   651.57   653.33
eigval :      659.05   662.20   663.81   668.37   670.96   671.78
eigval :      675.31   677.02   681.13   686.74   692.06   694.81
eigval :      700.11   705.10   717.42   725.24   735.10   740.84
eigval :      749.62   753.30   760.36   760.98   761.71   763.91
eigval :      764.97   775.42   781.14   793.14   820.18   823.22
eigval :      844.67   850.55   860.91   866.37   873.14   873.95
eigval :      874.77   875.03   876.83   879.63   890.84   893.67
eigval :      894.75   898.95   899.21   900.93   904.53   905.83
eigval :      906.67   906.70   909.59   912.03   912.69   922.59
eigval :      924.72   926.44   926.58   927.49   928.06   929.01
eigval :      929.63   929.82   930.48   931.07   933.39   935.45
eigval :      936.70   938.01   941.57   944.82   952.57   955.24
eigval :      977.24   989.98   995.09  1012.54  1015.20  1025.52
eigval :     1034.16  1067.86  1077.76  1080.20  1081.66  1082.66
eigval :     1085.52  1105.62  1106.87  1109.01  1109.20  1114.52
eigval :     1116.97  1117.00  1119.23  1120.49  1128.29  1130.22
eigval :     1134.56  1138.73  1150.48  1163.93  1170.88  1177.05
eigval :     1179.76  1180.13  1180.18  1180.45  1180.85  1181.60
eigval :     1183.09  1183.94  1187.90  1189.98  1193.74  1197.13
eigval :     1199.82  1200.46  1205.99  1208.41  1215.86  1234.58
eigval :     1251.85  1255.63  1256.92  1264.81  1268.42  1269.47
eigval :     1273.62  1279.37  1281.79  1282.31  1283.75  1285.82
eigval :     1291.32  1300.57  1303.93  1308.41  1309.80  1313.76
eigval :     1315.15  1316.11  1318.59  1319.12  1326.58  1336.10
eigval :     1336.78  1343.03  1356.76  1359.39  1363.63  1370.06
eigval :     1376.37  1395.70  1401.79  1407.19  1409.27  1410.73
eigval :     1415.15  1420.04  1427.68  1428.40  1429.56  1429.72
eigval :     1432.59  1433.72  1447.32  1448.75  1460.07  1471.75
eigval :     1475.46  1480.21  1487.23  1493.56  1495.51  1508.59
eigval :     1514.70  1526.84  1527.69  1530.23  1537.53  1538.59
eigval :     1549.06  1556.90  1557.98  1562.06  1567.89  1574.03
eigval :     1577.41  1578.38  1580.17  1580.55  1590.14  1590.22
eigval :     1595.05  1596.19  1597.83  1600.71  3065.40  3068.54
eigval :     3069.76  3070.87  3071.75  3072.47  3073.13  3073.87
eigval :     3074.72  3075.20  3078.20  3078.25  3079.14  3079.47
eigval :     3080.43  3081.10  3081.21  3081.75  3081.84  3082.65
eigval :     3083.26  3083.65  3083.94  3084.49  3087.05  3088.18
eigval :     3090.22  3091.58  3092.34  3092.84  3093.89  3094.82
eigval :     3097.17  3097.98  3098.19  3098.73  3099.48  3099.75
eigval :     3101.25  3101.87  3103.22  3104.18  3110.21  3118.96

   temp. (K)  partition function   enthalpy   heat capacity  entropy
                                   cal/mol     cal/K/mol   cal/K/mol   J/K/mol
 298.15  VIB  0.175E+29            33951.637    211.226    214.964
         ROT  0.351E+09              888.752      2.981     42.083
         INT  0.615E+37            34840.389    214.207    257.047
         TR   0.269E+29             1481.254      4.968     46.303
         TOT                       36321.6431   219.1754   303.3496  1269.2147

       T/K    H(0)-H(T)+PV         H(T)/Eh          T*S/Eh         G(T)/Eh
   ------------------------------------------------------------------------
    298.15    0.578822E-01    0.946942E+00    0.144131E+00    0.802811E+00
   ------------------------------------------------------------------------

         :::::::::::::::::::::::::::::::::::::::::::::::::::::
         ::                  THERMODYNAMIC                  ::
         :::::::::::::::::::::::::::::::::::::::::::::::::::::
         :: total free energy        -179.024322191539 Eh   ::
         ::.................................................::
         :: total energy             -179.827133131732 Eh   ::
         :: zero point energy           0.889059893139 Eh   ::
         :: G(RRHO) w/o ZPVE           -0.086248952946 Eh   ::
         :: G(RRHO) contrib.            0.802810940193 Eh   ::
         :::::::::::::::::::::::::::::::::::::::::::::::::::::

           -------------------------------------------------
          | TOTAL ENERGY             -179.827133131732 Eh   |
          | TOTAL ENTHALPY           -178.880191015881 Eh   |
          | TOTAL FREE ENERGY        -179.024322191539 Eh   |
          | GRADIENT NORM               0.000060832010 Eh/α |
          | HOMO-LUMO GAP               0.785382529111 eV   |
           -------------------------------------------------

 * finished run on 2025/08/24 at 17:38:24.043
