   * xtb version 6.7.1 (edcfbbe) compiled by 'albert@albert-system' on 2024-07-22

   ID    Z sym.   atoms
    1    6 C      1-5, 7-13, 15-31, 33-46, 48-72
    2    7 N      6, 14, 32, 47
    3    1 H      73-116

          program call               : xtb data2507/toluene/PPI-An-NPIM/PPI-An-NPIM_toluene_S0_crest.xyz --gfn 2 --gbsa toluene --ohess vtight --parallel 40 --molden --ceasefiles --namespace data2507/toluene/PPI-An-NPIM/PPI-An-NPIM_toluene_S0_finalOpt
      * Solvation model:               GBSA
        Solvent                        toluene
        Solvent mass                       9.2140E+01 g/mol
          :  Hamiltonian                  GFN2-xTB          :
 * total energy  :  -179.8943017 Eh     change       -0.5357123E-08 Eh
 * total energy  :  -179.8943805 Eh     change       -0.7878781E-04 Eh
 * total energy  :  -179.8944510 Eh     change       -0.7056880E-04 Eh
 * total energy  :  -179.8944973 Eh     change       -0.4630772E-04 Eh
 * total energy  :  -179.8945329 Eh     change       -0.3551526E-04 Eh
 * total energy  :  -179.8945701 Eh     change       -0.3724887E-04 Eh
 * total energy  :  -179.8945865 Eh     change       -0.1634428E-04 Eh
 * total energy  :  -179.8945960 Eh     change       -0.9562206E-05 Eh
 * total energy  :  -179.8946090 Eh     change       -0.1295702E-04 Eh
 * total energy  :  -179.8946142 Eh     change       -0.5188640E-05 Eh
 * total energy  :  -179.8947379 Eh     change       -0.6126464E-06 Eh
 * total energy  :  -179.8947386 Eh     change       -0.6608983E-06 Eh
 * total energy  :  -179.8947393 Eh     change       -0.7038973E-06 Eh
 * total energy  :  -179.8947400 Eh     change       -0.6853755E-06 Eh
 * total energy  :  -179.8947406 Eh     change       -0.6666171E-06 Eh
 * total energy  :  -179.8947414 Eh     change       -0.7238947E-06 Eh
 * total energy  :  -179.8947422 Eh     change       -0.8431365E-06 Eh
 * total energy  :  -179.8947434 Eh     change       -0.1140938E-05 Eh
 * total energy  :  -179.8947434 Eh     change       -0.4785278E-08 Eh
   *** GEOMETRY OPTIMIZATION CONVERGED AFTER 68 ITERATIONS ***

 final structure:
================
116
 xtb: 6.7.1 (edcfbbe)
C          -13.13726726515706       -2.49021831847031       -0.20045592429907
C          -13.09171285787883       -1.25729304667146        0.43073656511510
C          -11.90694359517718       -0.54851111124634        0.48529514480890
C          -10.74560121684679       -1.06539366987047       -0.08820711956479
C           -9.51321598938442       -0.29330736281158       -0.01484587943011
N           -9.54506051638371        1.06717593595820        0.05287673691227
C           -8.30089379222334        1.48044145848989        0.07494395350319
C           -7.92468360043854        2.88118896314099        0.18607773762478
C           -8.74630962196261        3.83817749381796       -0.41044754847218
C           -8.43678453413962        5.18128455112721       -0.31826413570363
C           -7.30757692511524        5.58931451795284        0.37444707053963
C           -6.50027636721012        4.64672455359405        0.98969828981581
C           -6.80480305617283        3.30057167350258        0.90236927493489
N           -7.43030838972308        0.42347494079768        0.01897189879893
C           -6.02251343731794        0.46668056652529       -0.01315955011112
C           -5.37079190167352        1.21443365495472       -0.98816790900424
C           -3.98994020532625        1.24817294172711       -1.02036451044584
C           -3.23907584972579        0.53318273588255       -0.09063572024542
C           -1.76082639380882        0.56109610841520       -0.12044113104897
C           -1.07468283743564        1.73938286742221        0.20933906773330
C           -1.76070005995396        2.92868777930592        0.57269288673706
C           -1.08499626552170        4.06159971247031        0.90736691617886
C            0.32435181552341        4.07148370048108        0.91883339682580
C            1.02072329341492        2.94862235822414        0.59240931741633
C            0.35571011473999        1.75090281070598        0.21724619435979
C            1.06445135981462        0.58579061206750       -0.10981524276791
C            2.54221322856346        0.58213425708446       -0.07846154931611
C            3.21937329386051       -0.14703924705807        0.89549494994319
C            4.59926676275044       -0.18417495454369        0.92058837217637
C            5.33879311184191        0.50469723059698       -0.03915741663285
C            6.79391308295342        0.48112271965110       -0.06905077213910
N            7.52892823025602        1.53233701407024       -0.33650158962646
C            8.82111475328223        1.11241952718971       -0.26158565088909
C           10.00260439343984        1.88909138235007       -0.42458609361947
C            9.93997647733035        3.26224514960790       -0.68745339184981
C           11.09129801030761        4.00071949920197       -0.80407157587917
C           12.32583269867520        3.37081902706309       -0.65625240222198
C           12.39993581171441        2.02040719864398       -0.40543807608777
C           11.24613822720051        1.22934963558572       -0.28780072355425
C           11.29328102669863       -0.20435422433841       -0.05514034615548
C           12.50952247313625       -0.90068749398080        0.00375839328009
C           12.56320937353941       -2.26345638020943        0.17912062228199
C           11.38760057192419       -3.00041760437367        0.28594490129537
C           10.17575515787047       -2.35604213537730        0.24168892287241
C           10.09949173639752       -0.96336218193671        0.09364060275591
C            8.87024086192039       -0.24665232944472        0.04312122038738
N            7.55657296743586       -0.63841991713027        0.17729194317087
C            7.03673952341301       -1.90906261503617        0.50681920186817
C            6.23233284377153       -2.58102118647929       -0.40570393710403
C            5.68665000878701       -3.80637691863392       -0.06516378983266
C            5.94159661575318       -4.36205796308472        1.17766827074286
C            6.74579612748016       -3.69140685742518        2.08574778695667
C            7.29204742062920       -2.46395929768641        1.75754477301046
C            4.66257685289461        1.26414453847797       -0.99418625413840
C            3.28303510797877        1.29933018410022       -1.01498033062322
C            0.37807530500235       -0.58760330889508       -0.45685514101758
C            1.06587707388710       -1.77187775591983       -0.83364026178999
C            0.39130430003969       -2.90322715643599       -1.17594832209594
C           -1.01792526887458       -2.91664687181120       -1.17808066280176
C           -1.71504139929806       -1.79815272340627       -0.83886597587194
C           -1.05164180297099       -0.60068967953036       -0.46041928886955
C           -3.90317102810622       -0.21579044259594        0.87761582229928
C           -5.28318015893059       -0.25023602919045        0.92112099896509
C           -8.19614048550810       -0.72136525271056       -0.03041059694622
C           -7.62191193363681       -2.06061891162647       -0.07674002718478
C           -6.62961998801683       -2.38680450594003       -0.99952049465199
C           -6.09693343484429       -3.66265876235888       -1.02964343365408
C           -6.54295161727331       -4.62663730390470       -0.14096714454276
C           -7.53180893126008       -4.31117763630674        0.77769861445661
C           -8.06872387635440       -3.03839293214324        0.81193400368366
C          -10.80481141066838       -2.29677581106454       -0.73881795892450
C          -11.99236558669168       -3.00270002214044       -0.78909793707155
H          -14.06260909962947       -3.04652597948064       -0.23984083896156
H          -13.98399924483993       -0.84838433405677        0.88314410527980
H          -11.85817458580231        0.41480829164493        0.97050040442173
H           -9.62458465724379        3.50475210516558       -0.94204661742147
H           -9.07736424643755        5.91302082520048       -0.78843464382563
H           -7.06327990434473        6.63905663361137        0.44333763175729
H           -5.63127959702005        4.96180308766686        1.54886428267035
H           -6.18240489927161        2.57771142639348        1.40889484474954
H           -5.95105514231681        1.76549075878147       -1.71400385231294
H           -3.48555972097678        1.82508857172964       -1.78138704106481
H           -2.83987269040715        2.91833455588157        0.58092294623683
H           -1.62313790537181        4.95881420341987        1.17669593068198
H            0.84603760856434        4.97522248912528        1.19839156005276
H            2.10016291099038        2.95207097467651        0.61876666283528
H            2.65452588921542       -0.68494674864058        1.64314707570636
H            5.09976625458991       -0.73871514299159        1.69976099587021
H            8.96425756931934        3.71352675965390       -0.78540027916700
H           11.04565673578785        5.06124733644694       -1.00413348968592
H           13.23509672767367        3.94886077759976       -0.73910829966055
H           13.37701928201220        1.57738531182801       -0.29591448881717
H           13.43911694734647       -0.36477792909640       -0.09937885742576
H           13.51973084987184       -2.76383545117084        0.21936292907384
H           11.42592487485927       -4.07390616401055        0.39904828220127
H            9.26644660193847       -2.93174821581846        0.30732138397163
H            6.03945125483653       -2.13796255778481       -1.37183670558567
H            5.06152680796659       -4.32694103199588       -0.77478988751425
H            5.51390520479889       -5.31764079592944        1.44030602246911
H            6.94539272906945       -4.12096966882603        3.05591211052293
H            7.91732223550153       -1.93000798631849        2.45887446697245
H            5.23917473223657        1.81643204865048       -1.72062057576993
H            2.76865345008432        1.87670247900458       -1.76963860514617
H            2.14526188500208       -1.75660688596708       -0.85092446532608
H            0.92991732535809       -3.79581824713239       -1.45918178343611
H           -1.53848352071434       -3.81979080610942       -1.46168638930003
H           -2.79409384385679       -1.80383332261278       -0.85902543435785
H           -3.33017261068530       -0.76899295963996        1.60693156039954
H           -5.79284190302654       -0.82691949888673        1.67873178556367
H           -6.28782742832285       -1.64267830793259       -1.70506449097398
H           -5.33312772027014       -3.90554157617514       -1.75400040478972
H           -6.12438181890883       -5.62189737537405       -0.16594460319038
H           -7.88525425078208       -5.05964978680731        1.47184344760605
H           -8.83967341233712       -2.78846007744382        1.52673340142056
H           -9.92095159592759       -2.69573391177736       -1.21456206023030
H          -12.02543831411784       -3.95720556178152       -1.29510622716405

          :  Hamiltonian                  GFN2-xTB          :
         :: gradient norm              0.000055811386 Eh/a0 ::
         :: HOMO-LUMO gap              2.092516998909 eV    ::
         :: SCC energy              -183.308700265178 Eh    ::
         :: -> dispersion             -0.176241058205 Eh    ::
         :: -> Gsolv                  -0.075689395966 Eh    ::
         :: repulsion energy           3.413956909521 Eh    ::

    * Orbital Energies and Occupations

         #    Occupation            Energy/Eh            Energy/eV
      -------------------------------------------------------------
         1        2.0000           -0.6894424             -18.7607
       ...           ...                  ...                  ...
       156        2.0000           -0.4058316             -11.0432
       157        2.0000           -0.4037923             -10.9877
       158        2.0000           -0.4015938             -10.9279
       159        2.0000           -0.4013287             -10.9207
       160        2.0000           -0.4005740             -10.9002
       161        2.0000           -0.3989523             -10.8560
       162        2.0000           -0.3954685             -10.7612
       163        2.0000           -0.3837054             -10.4412
       164        2.0000           -0.3808601             -10.3637
       165        2.0000           -0.3781337             -10.2895
       166        2.0000           -0.3668146              -9.9815
       167        2.0000           -0.3635753              -9.8934
       168        2.0000           -0.3604842              -9.8093 (HOMO)
       169                         -0.2835856              -7.7168 (LUMO)
       170                         -0.2611336              -7.1058
       171                         -0.2557752              -6.9600
       172                         -0.2519216              -6.8551
       173                         -0.2430265              -6.6131
       174                         -0.2429737              -6.6117
       175                         -0.2409843              -6.5575
       176                         -0.2400944              -6.5333
       177                         -0.2392261              -6.5097
       178                         -0.2376126              -6.4658
       179                         -0.2335217              -6.3544
       ...                                ...                  ...
       332                          0.7241026              19.7038
      -------------------------------------------------------------
                  HL-Gap            0.0768986 Eh            2.0925 eV

     #   Z          covCN         q      C6AA      α(0)
     1   6 C        2.919    -0.034    28.837     8.806
     2   6 C        2.918    -0.031    28.779     8.797
     3   6 C        2.927    -0.032    28.787     8.799
     4   6 C        2.973     0.006    27.887     8.662
     5   6 C        3.164     0.054    26.464     8.408
     6   7 N        1.912    -0.317    29.068     7.994
     7   6 C        3.158     0.129    24.898     8.158
     8   6 C        2.974    -0.001    28.043     8.686
     9   6 C        2.927    -0.030    28.744     8.792
    10   6 C        2.918    -0.028    28.701     8.785
    11   6 C        2.919    -0.030    28.740     8.791
    12   6 C        2.919    -0.029    28.732     8.790
    13   6 C        2.922    -0.035    28.882     8.813
    14   7 N        2.850    -0.045    22.109     6.984
    15   6 C        2.913     0.063    26.590     8.456
    16   6 C        2.920    -0.039    28.974     8.827
    17   6 C        2.924    -0.029    28.733     8.790
    18   6 C        2.976     0.019    27.585     8.615
    19   6 C        2.976    -0.006    28.172     8.706
    20   6 C        2.983     0.007    27.858     8.658
    21   6 C        2.917    -0.036    28.890     8.814
    22   6 C        2.914    -0.030    28.739     8.791
    23   6 C        2.914    -0.030    28.747     8.792
    24   6 C        2.917    -0.035    28.865     8.810
    25   6 C        2.983     0.007    27.856     8.658
    26   6 C        2.977    -0.005    28.136     8.701
    27   6 C        2.976     0.018    27.592     8.616
    28   6 C        2.923    -0.032    28.795     8.800
    29   6 C        2.921    -0.035    28.881     8.813
    30   6 C        2.974    -0.003    28.104     8.696
    31   6 C        3.193     0.137    24.562     8.082
    32   7 N        1.893    -0.319    29.117     8.000
    33   6 C        3.206     0.060    26.084     8.318
    34   6 C        2.985    -0.003    28.097     8.695
    35   6 C        2.921    -0.034    28.835     8.806
    36   6 C        2.917    -0.032    28.794     8.799
    37   6 C        2.917    -0.034    28.854     8.809
    38   6 C        2.921    -0.037    28.908     8.817
    39   6 C        2.979    -0.005    28.141     8.702
    40   6 C        2.979    -0.002    28.062     8.689
    41   6 C        2.922    -0.035    28.874     8.812
    42   6 C        2.916    -0.034    28.849     8.808
    43   6 C        2.917    -0.033    28.811     8.802
    44   6 C        2.919    -0.041    29.026     8.835
    45   6 C        2.978    -0.005    28.147     8.703
    46   6 C        3.074     0.022    27.443     8.589
    47   7 N        2.840    -0.055    22.292     7.012
    48   6 C        2.913     0.066    26.511     8.443
    49   6 C        2.921    -0.038    28.949     8.823
    50   6 C        2.920    -0.025    28.624     8.773
    51   6 C        2.919    -0.028    28.711     8.787
    52   6 C        2.920    -0.026    28.653     8.778
    53   6 C        2.921    -0.037    28.917     8.818
    54   6 C        2.926    -0.029    28.729     8.790
    55   6 C        2.922    -0.031    28.768     8.796
    56   6 C        2.983     0.007    27.867     8.659
    57   6 C        2.917    -0.035    28.867     8.811
    58   6 C        2.914    -0.030    28.759     8.794
    59   6 C        2.914    -0.030    28.750     8.792
    60   6 C        2.917    -0.035    28.880     8.812
    61   6 C        2.983     0.007    27.864     8.659
    62   6 C        2.925    -0.030    28.739     8.791
    63   6 C        2.920    -0.039    28.967     8.826
    64   6 C        3.070     0.016    27.585     8.612
    65   6 C        2.971     0.006    27.883     8.662
    66   6 C        2.924    -0.034    28.852     8.809
    67   6 C        2.918    -0.029    28.733     8.790
    68   6 C        2.920    -0.031    28.768     8.796
    69   6 C        2.918    -0.028    28.707     8.786
    70   6 C        2.925    -0.033    28.818     8.804
    71   6 C        2.923    -0.039    28.966     8.826
    72   6 C        2.919    -0.032    28.786     8.798
    73   1 H        0.926     0.031     2.573     2.508
    74   1 H        0.926     0.031     2.566     2.505
    75   1 H        0.926     0.041     2.429     2.437
    76   1 H        0.926     0.044     2.399     2.422
    77   1 H        0.926     0.039     2.462     2.454
    78   1 H        0.926     0.039     2.464     2.455
    79   1 H        0.926     0.037     2.489     2.467
    80   1 H        0.926     0.026     2.638     2.540
    81   1 H        0.926     0.038     2.478     2.462
    82   1 H        0.926     0.046     2.371     2.408
    83   1 H        0.926     0.033     2.543     2.494
    84   1 H        0.926     0.032     2.554     2.499
    85   1 H        0.926     0.032     2.555     2.500
    86   1 H        0.926     0.034     2.533     2.489
    87   1 H        0.926     0.038     2.470     2.458
    88   1 H        0.926     0.030     2.591     2.517
    89   1 H        0.926     0.043     2.407     2.426
    90   1 H        0.926     0.032     2.553     2.498
    91   1 H        0.926     0.032     2.560     2.502
    92   1 H        0.926     0.035     2.523     2.484
    93   1 H        0.926     0.037     2.492     2.468
    94   1 H        0.926     0.033     2.550     2.497
    95   1 H        0.926     0.032     2.561     2.503
    96   1 H        0.926     0.029     2.595     2.519
    97   1 H        0.926     0.037     2.483     2.464
    98   1 H        0.926     0.047     2.354     2.399
    99   1 H        0.926     0.048     2.346     2.395
   100   1 H        0.926     0.047     2.353     2.399
   101   1 H        0.926     0.041     2.434     2.440
   102   1 H        0.926     0.044     2.396     2.420
   103   1 H        0.926     0.041     2.435     2.440
   104   1 H        0.926     0.032     2.553     2.498
   105   1 H        0.926     0.032     2.556     2.500
   106   1 H        0.926     0.032     2.560     2.502
   107   1 H        0.926     0.032     2.553     2.498
   108   1 H        0.926     0.045     2.386     2.416
   109   1 H        0.926     0.039     2.460     2.453
   110   1 H        0.926     0.025     2.661     2.551
   111   1 H        0.926     0.035     2.521     2.483
   112   1 H        0.926     0.036     2.501     2.473
   113   1 H        0.926     0.036     2.509     2.477
   114   1 H        0.926     0.029     2.602     2.522
   115   1 H        0.926     0.024     2.677     2.558
   116   1 H        0.926     0.030     2.592     2.517

molecular dipole:
                 x           y           z       tot (Debye)
 q only:        0.778      -1.186       0.294
   full:        1.199      -1.714       0.365       5.398

 projected vibrational frequencies (cm⁻¹)
eigval :       -0.00    -0.00    -0.00    -0.00     0.00     0.00
eigval :        5.15     5.87     7.90    15.32    17.36    18.93
eigval :       24.24    28.87    29.85    31.67    38.13    44.04
eigval :       46.75    51.78    53.85    59.27    63.03    64.40
eigval :       65.69    73.14    79.13    79.60    84.12    86.45
eigval :       95.85   107.19   120.36   123.17   128.41   137.46
eigval :      143.95   162.92   169.74   182.97   196.74   212.01
eigval :      214.15   220.42   225.67   237.43   238.27   241.06
eigval :      245.45   257.45   263.29   267.17   271.98   278.97
eigval :      303.62   310.99   337.77   349.38   365.31   369.61
eigval :      372.40   373.68   377.03   377.53   377.84   379.31
eigval :      388.33   395.74   398.51   404.74   410.32   415.08
eigval :      417.50   436.00   442.53   444.76   447.74   451.53
eigval :      457.65   474.12   475.81   479.75   485.88   505.45
eigval :      511.78   515.17   525.36   529.08   531.95   535.55
eigval :      579.53   582.73   583.91   585.05   586.38   587.15
eigval :      589.40   591.03   592.45   612.21   619.57   621.52
eigval :      632.58   637.77   640.81   644.78   653.85   654.26
eigval :      659.08   662.12   666.20   669.37   671.30   675.68
eigval :      678.00   681.43   687.25   690.93   693.23   698.07
eigval :      705.45   708.91   726.90   732.65   740.54   742.86
eigval :      753.09   761.18   763.31   764.24   766.19   774.05
eigval :      775.10   775.34   781.79   794.29   813.25   818.55
eigval :      861.09   867.87   869.59   872.26   874.03   874.86
eigval :      875.94   876.94   877.83   878.23   897.81   899.95
eigval :      900.95   902.60   903.63   906.59   911.42   912.65
eigval :      912.92   913.75   915.68   917.35   919.01   924.04
eigval :      924.87   925.09   926.85   928.05   928.32   929.03
eigval :      929.42   929.67   929.77   930.71   930.80   931.51
eigval :      931.69   932.84   938.69   942.17   955.23   957.08
eigval :      977.70   993.42   998.82  1015.76  1016.97  1030.38
eigval :     1035.59  1067.89  1078.87  1080.39  1081.23  1081.62
eigval :     1082.42  1083.09  1084.73  1107.17  1108.60  1115.11
eigval :     1118.03  1119.42  1120.60  1129.41  1132.09  1133.25
eigval :     1134.50  1144.18  1152.20  1163.79  1173.37  1176.94
eigval :     1177.70  1179.79  1180.25  1181.56  1181.81  1183.32
eigval :     1185.79  1186.33  1188.99  1192.63  1195.61  1196.88
eigval :     1200.71  1207.66  1209.32  1216.57  1223.79  1229.04
eigval :     1252.62  1255.83  1258.15  1259.19  1264.51  1267.85
eigval :     1271.75  1274.84  1278.25  1282.23  1282.37  1285.18
eigval :     1299.50  1305.95  1310.33  1311.51  1313.91  1317.80
eigval :     1319.38  1320.99  1328.11  1331.53  1336.91  1345.54
eigval :     1347.65  1362.72  1371.24  1374.06  1382.63  1396.38
eigval :     1397.72  1404.09  1406.47  1416.32  1417.40  1427.08
eigval :     1427.48  1429.39  1429.88  1430.87  1433.14  1434.92
eigval :     1442.11  1448.70  1460.01  1465.30  1476.06  1484.38
eigval :     1487.80  1495.54  1512.91  1514.17  1525.22  1527.22
eigval :     1532.06  1540.08  1542.63  1555.74  1556.96  1562.14
eigval :     1563.51  1567.69  1577.60  1578.90  1580.71  1581.92
eigval :     1591.29  1593.01  1593.36  1595.22  1595.47  1596.42
eigval :     1598.63  1603.21  1607.09  1621.29  3065.87  3069.22
eigval :     3069.32  3070.28  3072.17  3072.30  3072.44  3072.47
eigval :     3073.97  3076.36  3077.34  3078.26  3078.97  3079.08
eigval :     3079.61  3079.87  3080.02  3080.16  3080.27  3081.85
eigval :     3082.69  3083.25  3083.43  3084.17  3087.85  3087.91
eigval :     3090.23  3090.75  3091.35  3092.18  3092.61  3092.93
eigval :     3094.02  3094.40  3094.95  3094.98  3095.73  3096.28
eigval :     3097.36  3097.59  3098.21  3101.78  3109.16  3113.91

   temp. (K)  partition function   enthalpy   heat capacity  entropy
                                   cal/mol     cal/K/mol   cal/K/mol   J/K/mol
 298.15  VIB  0.518E+29            33964.875    210.079    216.085
         ROT  0.348E+09              888.752      2.981     42.064
         INT  0.180E+38            34853.627    213.060    258.149
         TR   0.269E+29             1481.254      4.968     46.303
         TOT                       36334.8811   218.0285   304.4519  1273.8267

       T/K    H(0)-H(T)+PV         H(T)/Eh          T*S/Eh         G(T)/Eh
   ------------------------------------------------------------------------
    298.15    0.579033E-01    0.949205E+00    0.144655E+00    0.804550E+00
   ------------------------------------------------------------------------

         :::::::::::::::::::::::::::::::::::::::::::::::::::::
         ::                  THERMODYNAMIC                  ::
         :::::::::::::::::::::::::::::::::::::::::::::::::::::
         :: total free energy        -179.090192944644 Eh   ::
         ::.................................................::
         :: total energy             -179.894743361440 Eh   ::
         :: zero point energy           0.891302019305 Eh   ::
         :: G(RRHO) w/o ZPVE           -0.086751602509 Eh   ::
         :: G(RRHO) contrib.            0.804550416796 Eh   ::
         :::::::::::::::::::::::::::::::::::::::::::::::::::::

           -------------------------------------------------
          | TOTAL ENERGY             -179.894743361440 Eh   |
          | TOTAL ENTHALPY           -178.945538023327 Eh   |
          | TOTAL FREE ENERGY        -179.090192944644 Eh   |
          | GRADIENT NORM               0.000055802904 Eh/α |
          | HOMO-LUMO GAP               2.092517006569 eV   |
           -------------------------------------------------

 * finished run on 2025/08/24 at 17:29:14.117
