   * xtb version 6.7.1 (edcfbbe) compiled by 'albert@albert-system' on 2024-07-22

   ID    Z sym.   atoms
    1    6 C      1-5, 7-13, 15-31, 33-46, 48-72
    2    7 N      6, 14, 32, 47
    3    1 H      73-116

          program call               : xtb data2507/toluene/PPI-An-NPIM/PPI-An-NPIM_toluene_S0_finalOpt.xtbopt.xyz --gfn 2 --uhf 2 --gbsa toluene --ohess vtight --parallel 40 --molden --ceasefiles --namespace data2507/toluene/PPI-An-NPIM/PPI-An-NPIM_toluene_T1_preOpt
      * Solvation model:               GBSA
        Solvent                        toluene
        Solvent mass                       9.2140E+01 g/mol
          :  Hamiltonian                  GFN2-xTB          :
 * total energy  :  -179.8176406 Eh     change       -0.7295711E-08 Eh
 * total energy  :  -179.8234695 Eh     change       -0.5828920E-02 Eh
 * total energy  :  -179.8250546 Eh     change       -0.1585084E-02 Eh
 * total energy  :  -179.8253006 Eh     change       -0.2460474E-03 Eh
 * total energy  :  -179.8257536 Eh     change       -0.4529907E-03 Eh
 * total energy  :  -179.8260360 Eh     change       -0.2823597E-03 Eh
 * total energy  :  -179.8263331 Eh     change       -0.2971269E-03 Eh
 * total energy  :  -179.8265536 Eh     change       -0.2205307E-03 Eh
 * total energy  :  -179.8266334 Eh     change       -0.7981695E-04 Eh
 * total energy  :  -179.8266760 Eh     change       -0.4259326E-04 Eh
 * total energy  :  -179.8270358 Eh     change       -0.5756506E-06 Eh
 * total energy  :  -179.8270364 Eh     change       -0.5736634E-06 Eh
 * total energy  :  -179.8270369 Eh     change       -0.5216567E-06 Eh
 * total energy  :  -179.8270375 Eh     change       -0.5175972E-06 Eh
 * total energy  :  -179.8270380 Eh     change       -0.5316231E-06 Eh
 * total energy  :  -179.8270386 Eh     change       -0.5871186E-06 Eh
 * total energy  :  -179.8270392 Eh     change       -0.5960373E-06 Eh
 * total energy  :  -179.8270398 Eh     change       -0.6225706E-06 Eh
 * total energy  :  -179.8270398 Eh     change       -0.4674689E-08 Eh
   *** GEOMETRY OPTIMIZATION CONVERGED AFTER 68 ITERATIONS ***

 final structure:
================
116
 xtb: 6.7.1 (edcfbbe)
C          -13.21174072631334       -2.36809424611119       -0.26371330335579
C          -13.14274664470159       -1.14310704838646        0.38077498380800
C          -11.94298876720808       -0.46144210993948        0.44968650915740
C          -10.78965392575084       -0.99813232936256       -0.12217108233508
C           -9.54174374358165       -0.25382435610895       -0.03223898202889
N           -9.54684943191919        1.10609290220253        0.05785822382436
C           -8.29519027870489        1.49370117342281        0.09057609771178
C           -7.88682887869123        2.88276781943728        0.23314595211475
C           -8.66498916838472        3.87206777187028       -0.36838669533990
C           -8.31927268265387        5.20406754910745       -0.24617320389859
C           -7.19749526391720        5.56814324074028        0.48212997805465
C           -6.43479870603491        4.59307485830348        1.10389507620240
C           -6.77559712759548        3.25803420743305        0.98664986505847
N           -7.44484670287328        0.42020452597178        0.01878756365117
C           -6.03883339239865        0.44394058867852       -0.00945583986259
C           -5.37286618112555        1.23084325788090       -0.94649197539271
C           -3.99500471620007        1.25458659233029       -0.97302331592448
C           -3.24181619490416        0.48393283299670       -0.07912982674181
C           -1.78267157495678        0.50183752425394       -0.10395772190811
C           -1.07878792769635        1.73427932466814        0.05935162775072
C           -1.75515113568382        2.93580697420648        0.30091884523906
C           -1.07367176172220        4.12575153175774        0.53304410688784
C            0.30463507456129        4.12575981173212        0.58193390111711
C            1.00342378966702        2.93822962334869        0.38536973956414
C            0.34839033392804        1.73893432128131        0.08727460876430
C            1.07068633053849        0.51355311421262       -0.07712672852239
C            2.52126102629676        0.51013433590933       -0.04551354078016
C            3.21889396360774       -0.34220722550584        0.82434433937185
C            4.59331928019077       -0.36706362309974        0.85526952214119
C            5.33959617779714        0.44452712114595       -0.00612441562014
C            6.78522054369943        0.44775613880271       -0.04265444242937
N            7.49152988103488        1.52388851996441       -0.31108624753309
C            8.79205595570354        1.14548800052989       -0.24317970026171
C            9.94728663863235        1.96042238264027       -0.40876022207954
C            9.83732594414572        3.33204250569369       -0.66328749140748
C           10.96313344076686        4.10825428830198       -0.78665420343630
C           12.21839765017128        3.51769187721001       -0.65348535204283
C           12.33859949317327        2.16902857135683       -0.40882792397269
C           11.21230702648111        1.34066123383423       -0.28478145846934
C           11.30705903296383       -0.09184881331091       -0.05725376847173
C           12.54568482770630       -0.74732861444631       -0.00736038412901
C           12.64618585371437       -2.10795739311331        0.16663547934575
C           11.49652109870654       -2.88357800400847        0.28163484498920
C           10.26368844161747       -2.28004372456643        0.24531799142078
C           10.13911667429508       -0.89027837098493        0.09756372047598
C            8.88670440486775       -0.21578122048628        0.05514624189201
N            7.58828270800190       -0.64921646334125        0.19492141349587
C            7.11984115023247       -1.94836169748335        0.48988587689131
C            6.37741472377333       -2.64269148055102       -0.45808944054797
C            5.89017809727663       -3.90245088732831       -0.15702738772696
C            6.14153199630912       -4.46974001105579        1.08146106443712
C            6.88174781381966       -3.77561319468689        2.02570628714282
C            7.37000564404954       -2.51416290598088        1.73692815143723
C            4.65146006305261        1.31987556617121       -0.85671402262743
C            3.27803462347586        1.35532957662346       -0.87360775842488
C            0.36217345664031       -0.71618167077213       -0.27023203615755
C            1.03198450018782       -1.90982474309826       -0.55883046833883
C            0.34512120441933       -3.09890483827333       -0.78507717383432
C           -1.03410708291221       -3.10670240224414       -0.77479191128517
C           -1.72811864957245       -1.92356793050070       -0.54600647215628
C           -1.06436248740695       -0.72142007065497       -0.27417938256336
C           -3.92832290466594       -0.30996496851773        0.84740265659304
C           -5.30570495717869       -0.32683890140228        0.88934950922842
C           -8.23305188759450       -0.70802451059429       -0.05038421873776
C           -7.68579030833387       -2.05770881323536       -0.11875743172456
C           -6.69652153292305       -2.38746156098968       -1.04365833312894
C           -6.18856991453960       -3.67275263429993       -1.09358196708303
C           -6.65642309464612       -4.64273272288226       -0.22273946676328
C           -7.64245747082544       -4.32372565180363        0.69773451569265
C           -8.15490594138732       -3.04154138456702        0.75157007166318
C          -10.87226820877299       -2.22092218844834       -0.78645533231535
C          -12.07484815234849       -2.89966837650048       -0.85100991888021
H          -14.14883603768364       -2.90337649814164       -0.31442552448999
H          -14.02848423393157       -0.71914046502136        0.83215496752611
H          -11.87562780333847        0.49547418829899        0.94519273234898
H           -9.53771351167328        3.57325778895164       -0.92896794036309
H           -8.92559062320714        5.96143497332266       -0.72118405348340
H           -6.92456661706391        6.60912010153464        0.57362830835581
H           -5.57230981793243        4.87342239487713        1.69103488449375
H           -6.18809619630090        2.50916714346736        1.49740546634253
H           -5.94466755596592        1.81612092097514       -1.65207967010782
H           -3.48614554595281        1.84685575636035       -1.71889020000634
H           -2.83327581230442        2.94083361112909        0.32492032548612
H           -1.63051779492942        5.03662827478923        0.69603729646847
H            0.84840524199619        5.03561896539327        0.78869702936074
H            2.07741846302091        2.94596077474264        0.48680849491524
H            2.65983722142758       -0.95591831924667        1.51571008680936
H            5.09150239301981       -0.99891008913219        1.57418257846248
H            8.84643948577554        3.75145489378283       -0.74976337155290
H           10.88103878872323        5.16755341307931       -0.98104743842042
H           13.10779819108475        4.12493950594650       -0.74221677488660
H           13.33053227326047        1.75774477660073       -0.31012769556809
H           13.45622329129996       -0.18078827996387       -0.11604089950593
H           13.61902642717055       -2.57620953054319        0.20002917728338
H           11.57115058430184       -3.95504121559822        0.39507185160906
H            9.37521968556230       -2.88614393693894        0.31793222307080
H            6.18644453049977       -2.18974958003773       -1.41998747806954
H            5.31448915367034       -4.44123218501365       -0.89434876982693
H            5.76016616140829       -5.45267545203712        1.31261540896583
H            7.07739963355260       -4.21412069879527        2.99264037389854
H            7.94573964361730       -1.96180269486691        2.46582356359712
H            5.22770969648187        1.95475308533759       -1.51236886051298
H            2.76661398114742        2.00470070041139       -1.56911708730754
H            2.10885683403927       -1.91166286373116       -0.62601233252327
H            0.89874265741480       -4.00444047329342       -0.98465105766812
H           -1.58143574222154       -4.01854067063812       -0.96297566625790
H           -2.80542643902145       -1.93268314739483       -0.59649320859921
H           -3.36627878888838       -0.89219404847276        1.56238889211911
H           -5.82200994757258       -0.92820655787869        1.62300972729956
H           -6.33645513403673       -1.63812622878125       -1.73452282866519
H           -5.42595566148261       -3.91765330844294       -1.81868111650993
H           -6.25677083223596       -5.64526829494642       -0.26282068981442
H           -8.01264719009890       -5.07668139023107        1.37817515872663
H           -8.92318564367271       -2.78863549142315        1.46820260462286
H           -9.99484405919864       -2.63429774499685       -1.26165280325044
H          -12.12584242578861       -3.84784304113328       -1.36729480753281

          :  Hamiltonian                  GFN2-xTB          :
         :: gradient norm              0.000054440818 Eh/a0 ::
         :: HOMO-LUMO gap              0.792227046183 eV    ::
         :: SCC energy              -183.222047829601 Eh    ::
         :: -> dispersion             -0.176209295977 Eh    ::
         :: -> Gsolv                  -0.075257018020 Eh    ::
         :: repulsion energy           3.395008025075 Eh    ::

    * Orbital Energies and Occupations

         #    Occupation            Energy/Eh            Energy/eV
      -------------------------------------------------------------
         1        2.0000           -0.6900700             -18.7778
       ...           ...                  ...                  ...
       157        2.0000           -0.4031451             -10.9701
       158        2.0000           -0.4020159             -10.9394
       159        2.0000           -0.4009991             -10.9117
       160        2.0000           -0.4006769             -10.9030
       161        2.0000           -0.3991352             -10.8610
       162        2.0000           -0.3951674             -10.7531
       163        2.0000           -0.3847498             -10.4696
       164        2.0000           -0.3812802             -10.3752
       165        2.0000           -0.3786083             -10.3025
       166        2.0000           -0.3675469             -10.0015
       167        1.9986           -0.3636761              -9.8961
       168        1.0014           -0.3512101              -9.5569
       169        1.0000           -0.2917928              -7.9401 (HOMO)
       170        0.0000           -0.2626790              -7.1479 (LUMO)
       171                         -0.2557308              -6.9588
       172                         -0.2528258              -6.8797
       173                         -0.2442081              -6.6452
       174                         -0.2430917              -6.6149
       175                         -0.2414785              -6.5710
       176                         -0.2408307              -6.5533
       177                         -0.2371785              -6.4540
       178                         -0.2370824              -6.4513
       179                         -0.2290446              -6.2326
       180                         -0.2283470              -6.2136
       ...                                ...                  ...
       332                          0.7230564              19.6754
      -------------------------------------------------------------
                  HL-Gap            0.0291138 Eh            0.7922 eV

     #   Z          covCN         q      C6AA      α(0)
     1   6 C        2.919    -0.033    28.834     8.806
     2   6 C        2.918    -0.031    28.777     8.797
     3   6 C        2.927    -0.031    28.785     8.799
     4   6 C        2.973     0.006    27.885     8.662
     5   6 C        3.165     0.054    26.456     8.406
     6   7 N        1.912    -0.316    29.049     7.991
     7   6 C        3.158     0.129    24.892     8.157
     8   6 C        2.974    -0.000    28.035     8.685
     9   6 C        2.927    -0.030    28.742     8.792
    10   6 C        2.918    -0.028    28.699     8.785
    11   6 C        2.919    -0.029    28.736     8.791
    12   6 C        2.919    -0.029    28.730     8.790
    13   6 C        2.922    -0.035    28.870     8.811
    14   7 N        2.849    -0.043    22.077     6.979
    15   6 C        2.913     0.061    26.639     8.463
    16   6 C        2.918    -0.040    28.991     8.830
    17   6 C        2.923    -0.031    28.763     8.795
    18   6 C        2.973     0.017    27.628     8.622
    19   6 C        2.973    -0.011    28.280     8.723
    20   6 C        2.976     0.009    27.820     8.652
    21   6 C        2.921    -0.039    28.966     8.826
    22   6 C        2.913    -0.031    28.779     8.797
    23   6 C        2.914    -0.031    28.769     8.795
    24   6 C        2.921    -0.038    28.950     8.823
    25   6 C        2.976     0.009    27.815     8.651
    26   6 C        2.972    -0.011    28.276     8.722
    27   6 C        2.973     0.017    27.628     8.622
    28   6 C        2.922    -0.033    28.815     8.803
    29   6 C        2.918    -0.037    28.928     8.820
    30   6 C        2.973    -0.006    28.158     8.704
    31   6 C        3.186     0.136    24.616     8.096
    32   7 N        1.893    -0.318    29.102     7.998
    33   6 C        3.202     0.062    26.055     8.317
    34   6 C        2.985    -0.003    28.102     8.696
    35   6 C        2.921    -0.033    28.813     8.803
    36   6 C        2.917    -0.031    28.785     8.798
    37   6 C        2.917    -0.033    28.833     8.805
    38   6 C        2.921    -0.036    28.897     8.815
    39   6 C        2.978    -0.004    28.125     8.699
    40   6 C        2.979    -0.001    28.047     8.687
    41   6 C        2.922    -0.035    28.864     8.810
    42   6 C        2.916    -0.033    28.830     8.805
    43   6 C        2.916    -0.032    28.803     8.801
    44   6 C        2.919    -0.041    29.013     8.833
    45   6 C        2.977    -0.005    28.151     8.703
    46   6 C        3.071     0.024    27.394     8.582
    47   7 N        2.838    -0.055    22.295     7.013
    48   6 C        2.912     0.067    26.503     8.442
    49   6 C        2.921    -0.038    28.935     8.821
    50   6 C        2.920    -0.025    28.619     8.773
    51   6 C        2.919    -0.028    28.707     8.786
    52   6 C        2.920    -0.026    28.651     8.778
    53   6 C        2.921    -0.037    28.919     8.819
    54   6 C        2.924    -0.030    28.749     8.793
    55   6 C        2.920    -0.032    28.796     8.800
    56   6 C        2.976     0.009    27.821     8.652
    57   6 C        2.921    -0.039    28.962     8.825
    58   6 C        2.914    -0.032    28.787     8.798
    59   6 C        2.913    -0.032    28.788     8.798
    60   6 C        2.922    -0.039    28.963     8.825
    61   6 C        2.977     0.009    27.823     8.652
    62   6 C        2.924    -0.031    28.762     8.795
    63   6 C        2.918    -0.040    28.985     8.829
    64   6 C        3.069     0.016    27.588     8.612
    65   6 C        2.971     0.006    27.878     8.661
    66   6 C        2.924    -0.034    28.845     8.807
    67   6 C        2.918    -0.029    28.732     8.790
    68   6 C        2.919    -0.031    28.768     8.795
    69   6 C        2.918    -0.028    28.708     8.786
    70   6 C        2.925    -0.033    28.819     8.804
    71   6 C        2.923    -0.039    28.965     8.826
    72   6 C        2.919    -0.031    28.784     8.798
    73   1 H        0.926     0.031     2.569     2.507
    74   1 H        0.926     0.032     2.563     2.503
    75   1 H        0.926     0.042     2.425     2.435
    76   1 H        0.926     0.043     2.405     2.425
    77   1 H        0.926     0.039     2.458     2.452
    78   1 H        0.926     0.039     2.461     2.453
    79   1 H        0.926     0.037     2.486     2.466
    80   1 H        0.926     0.027     2.633     2.538
    81   1 H        0.926     0.036     2.497     2.471
    82   1 H        0.926     0.046     2.365     2.405
    83   1 H        0.926     0.035     2.516     2.481
    84   1 H        0.926     0.032     2.560     2.502
    85   1 H        0.926     0.032     2.557     2.500
    86   1 H        0.926     0.037     2.493     2.469
    87   1 H        0.926     0.040     2.452     2.449
    88   1 H        0.926     0.029     2.594     2.519
    89   1 H        0.926     0.044     2.394     2.420
    90   1 H        0.926     0.033     2.538     2.491
    91   1 H        0.926     0.033     2.544     2.494
    92   1 H        0.926     0.036     2.508     2.477
    93   1 H        0.926     0.038     2.477     2.461
    94   1 H        0.926     0.034     2.535     2.490
    95   1 H        0.926     0.033     2.548     2.496
    96   1 H        0.926     0.030     2.581     2.512
    97   1 H        0.926     0.038     2.476     2.461
    98   1 H        0.926     0.048     2.351     2.398
    99   1 H        0.926     0.048     2.345     2.394
   100   1 H        0.926     0.048     2.351     2.398
   101   1 H        0.926     0.041     2.430     2.438
   102   1 H        0.926     0.045     2.377     2.411
   103   1 H        0.926     0.043     2.415     2.430
   104   1 H        0.926     0.035     2.519     2.482
   105   1 H        0.926     0.032     2.561     2.503
   106   1 H        0.926     0.031     2.569     2.506
   107   1 H        0.926     0.034     2.536     2.490
   108   1 H        0.926     0.045     2.380     2.412
   109   1 H        0.926     0.038     2.476     2.461
   110   1 H        0.926     0.025     2.659     2.550
   111   1 H        0.926     0.035     2.522     2.483
   112   1 H        0.926     0.036     2.502     2.474
   113   1 H        0.926     0.036     2.509     2.477
   114   1 H        0.926     0.029     2.601     2.522
   115   1 H        0.926     0.024     2.673     2.557
   116   1 H        0.926     0.030     2.588     2.516

molecular dipole:
                 x           y           z       tot (Debye)
 q only:        1.200      -1.208       0.280
   full:        1.621      -1.743       0.348       6.115

 projected vibrational frequencies (cm⁻¹)
eigval :       -0.00    -0.00     0.00     0.00     0.00     0.00
eigval :       -1.39     5.27     9.11    13.35    14.75    16.76
eigval :       23.11    25.92    29.56    32.20    38.87    40.45
eigval :       45.46    48.10    53.19    55.96    59.34    66.86
eigval :       70.27    76.22    82.36    83.44    85.28    92.49
eigval :      104.60   117.29   118.25   125.32   129.60   138.94
eigval :      152.35   163.28   172.48   187.36   199.81   217.34
eigval :      220.40   222.65   230.83   238.10   239.10   241.61
eigval :      247.88   258.32   264.00   267.71   272.74   280.25
eigval :      304.16   309.49   335.10   346.24   363.29   369.28
eigval :      370.47   371.34   375.39   377.13   378.16   381.45
eigval :      385.90   387.52   396.84   398.46   403.88   410.33
eigval :      415.58   419.71   434.61   435.88   445.75   450.24
eigval :      468.16   473.05   474.79   479.74   483.99   502.56
eigval :      509.40   513.05   524.05   528.37   530.97   534.88
eigval :      567.07   575.59   580.64   582.76   584.90   585.93
eigval :      587.05   588.79   590.35   606.54   611.06   614.96
eigval :      627.94   633.21   637.71   643.99   651.97   653.14
eigval :      658.43   660.69   663.48   668.98   670.72   671.49
eigval :      675.37   677.43   680.70   686.89   691.97   694.94
eigval :      699.96   705.07   716.30   725.25   735.09   740.80
eigval :      748.12   753.27   759.83   760.91   762.76   763.40
eigval :      765.56   774.99   781.33   793.41   819.86   821.58
eigval :      844.13   849.63   859.47   866.20   871.95   873.45
eigval :      875.94   876.14   876.59   879.68   890.04   893.11
eigval :      894.68   899.28   900.86   902.99   903.64   904.18
eigval :      905.87   906.25   909.53   911.97   912.94   923.53
eigval :      923.72   924.77   927.17   927.43   928.72   928.96
eigval :      929.24   929.55   931.73   932.97   933.23   933.44
eigval :      937.60   937.84   941.64   944.94   952.56   954.99
eigval :      977.30   989.94   994.98  1012.56  1015.29  1025.49
eigval :     1033.77  1067.54  1077.50  1079.87  1080.71  1082.84
eigval :     1084.14  1105.54  1106.00  1108.51  1109.18  1114.17
eigval :     1117.12  1117.21  1118.80  1121.00  1128.39  1129.57
eigval :     1133.65  1138.59  1149.17  1163.96  1170.73  1177.70
eigval :     1178.02  1179.05  1180.23  1180.30  1180.81  1182.01
eigval :     1182.28  1183.46  1187.28  1189.53  1193.73  1196.25
eigval :     1199.62  1200.58  1205.71  1207.77  1215.77  1234.61
eigval :     1250.57  1255.05  1256.85  1264.31  1268.31  1269.82
eigval :     1273.22  1278.53  1281.77  1282.53  1283.67  1285.25
eigval :     1291.09  1300.36  1304.04  1308.00  1310.14  1313.75
eigval :     1314.83  1316.16  1318.45  1319.16  1326.30  1336.06
eigval :     1336.61  1342.68  1356.96  1359.69  1363.64  1370.05
eigval :     1376.27  1395.66  1401.63  1406.90  1409.28  1410.46
eigval :     1414.96  1420.03  1427.53  1428.55  1429.32  1429.68
eigval :     1432.65  1433.74  1447.41  1448.40  1459.62  1471.63
eigval :     1475.22  1480.25  1487.34  1493.69  1497.00  1508.80
eigval :     1514.42  1526.58  1527.76  1530.23  1537.47  1538.91
eigval :     1549.21  1556.92  1557.54  1562.15  1567.85  1574.12
eigval :     1577.41  1578.38  1580.21  1580.76  1590.04  1590.25
eigval :     1594.68  1595.98  1597.98  1600.66  3065.31  3068.29
eigval :     3069.38  3070.70  3071.00  3072.42  3073.28  3073.83
eigval :     3074.66  3075.36  3077.89  3078.00  3078.68  3079.67
eigval :     3079.87  3080.55  3080.64  3081.65  3081.91  3082.57
eigval :     3082.68  3083.51  3084.19  3084.53  3087.78  3087.85
eigval :     3089.37  3091.20  3092.19  3092.27  3093.76  3095.03
eigval :     3095.38  3097.21  3097.84  3097.86  3097.91  3099.35
eigval :     3099.85  3101.64  3102.12  3104.51  3109.69  3117.72

   temp. (K)  partition function   enthalpy   heat capacity  entropy
                                   cal/mol     cal/K/mol   cal/K/mol   J/K/mol
 298.15  VIB  0.267E+30            34031.676    210.808    217.373
         ROT  0.350E+09              888.752      2.981     42.077
         INT  0.935E+38            34920.428    213.789    259.450
         TR   0.269E+29             1481.254      4.968     46.303
         TOT                       36401.6820   218.7573   305.7526  1279.2688

       T/K    H(0)-H(T)+PV         H(T)/Eh          T*S/Eh         G(T)/Eh
   ------------------------------------------------------------------------
    298.15    0.580098E-01    0.946806E+00    0.145273E+00    0.801533E+00
   ------------------------------------------------------------------------

         :::::::::::::::::::::::::::::::::::::::::::::::::::::
         ::                  THERMODYNAMIC                  ::
         :::::::::::::::::::::::::::::::::::::::::::::::::::::
         :: total free energy        -179.025506558179 Eh   ::
         ::.................................................::
         :: total energy             -179.827039803366 Eh   ::
         :: zero point energy           0.888796394904 Eh   ::
         :: G(RRHO) w/o ZPVE           -0.087263149717 Eh   ::
         :: G(RRHO) contrib.            0.801533245187 Eh   ::
         :::::::::::::::::::::::::::::::::::::::::::::::::::::

           -------------------------------------------------
          | TOTAL ENERGY             -179.827039803366 Eh   |
          | TOTAL ENTHALPY           -178.880233635695 Eh   |
          | TOTAL FREE ENERGY        -179.025506558179 Eh   |
          | GRADIENT NORM               0.000052971132 Eh/α |
          | HOMO-LUMO GAP               0.792226149278 eV   |
           -------------------------------------------------

 * finished run on 2025/08/24 at 17:29:32.653
