   * xtb version 6.7.1 (edcfbbe) compiled by 'albert@albert-system' on 2024-07-22

   ID    Z sym.   atoms
    1    6 C      1-5, 7-13, 15-31, 33-46, 48-72
    2    7 N      6, 14, 32, 47
    3    1 H      73-116

          program call               : xtb data2507/toluene/PPI-An-NPIM/PPI-An-NPIM.xyz --gfn 2 --gbsa toluene --ohess vtight --parallel 40 --molden --ceasefiles --namespace data2507/toluene/PPI-An-NPIM/PPI-An-NPIM_toluene_S0_preOpt
      * Solvation model:               GBSA
        Solvent                        toluene
        Solvent mass                       9.2140E+01 g/mol
          :  Hamiltonian                  GFN2-xTB          :
 * total energy  :  -179.8556485 Eh     change       -0.3236806E-08 Eh
 * total energy  :  -179.8757969 Eh     change       -0.2014835E-01 Eh
 * total energy  :  -179.8815966 Eh     change       -0.5799715E-02 Eh
 * total energy  :  -179.8828969 Eh     change       -0.1300270E-02 Eh
 * total energy  :  -179.8837345 Eh     change       -0.8376580E-03 Eh
 * total energy  :  -179.8843142 Eh     change       -0.5796844E-03 Eh
 * total energy  :  -179.8849713 Eh     change       -0.6570593E-03 Eh
 * total energy  :  -179.8856855 Eh     change       -0.7142552E-03 Eh
 * total energy  :  -179.8864041 Eh     change       -0.7186257E-03 Eh
 * total energy  :  -179.8870362 Eh     change       -0.6320610E-03 Eh
 * total energy  :  -179.8944331 Eh     change       -0.2949081E-06 Eh
 * total energy  :  -179.8944333 Eh     change       -0.2201664E-06 Eh
 * total energy  :  -179.8944335 Eh     change       -0.2130354E-06 Eh
 * total energy  :  -179.8944339 Eh     change       -0.3065066E-06 Eh
 * total energy  :  -179.8944342 Eh     change       -0.3826327E-06 Eh
 * total energy  :  -179.8944346 Eh     change       -0.3532985E-06 Eh
 * total energy  :  -179.8944348 Eh     change       -0.2509861E-06 Eh
 * total energy  :  -179.8944350 Eh     change       -0.1584176E-06 Eh
 * total energy  :  -179.8944350 Eh     change       -0.3104674E-08 Eh
   *** GEOMETRY OPTIMIZATION CONVERGED AFTER 122 ITERATIONS ***

 final structure:
================
116
 xtb: 6.7.1 (edcfbbe)
C          -13.09982179357258       -2.20443949346052        0.19407018151513
C          -13.06866694934882       -0.82146513077852        0.27860486962836
C          -11.86571525225565       -0.14738284517876        0.19325481821010
C          -10.67141024721120       -0.84805803402817        0.02572562070567
C           -9.42201394349463       -0.10720807440460       -0.07024411047989
N           -9.40813969984736        1.17708700377361       -0.52734843451951
C           -8.15654305357537        1.56566345779587       -0.54329759485828
C           -7.72980633112091        2.90071319316116       -0.93294935745248
C           -8.43502251198828        3.56229522696358       -1.93822714034521
C           -8.06615898468977        4.83540477092185       -2.32805877881976
C           -6.99318564829962        5.46706139151432       -1.71881510951349
C           -6.30234801781864        4.82509372452890       -0.70406983675507
C           -6.66835055550667        3.55230581736569       -0.30704857119531
N           -7.32504000841220        0.56678204695307       -0.10838021003533
C           -5.91763225634099        0.58903710456906       -0.04875033447913
C           -5.18452854682693        0.90762419200124       -1.18722641670181
C           -3.80429182160016        0.91203701462839       -1.13687853736233
C           -3.13578223923111        0.59743394404132        0.04319127205254
C           -1.65588782467424        0.58894348218680        0.08485468321486
C           -0.96773836032130        1.62945034799100        0.72335586247372
C           -1.65300003256935        2.71820959721147        1.32500172360453
C           -0.97720060295352        3.71289799521413        1.96190588367887
C            0.42956349364122        3.67540690660737        2.04451866274087
C            1.12524719600184        2.65861539306135        1.46587148498269
C            0.46161951447737        1.61426939195643        0.76843753903183
C            1.16798075907021        0.57316013210983        0.14785967591264
C            2.64545996531105        0.56604287438014        0.16846813830705
C            3.33983492468090       -0.41248814403876        0.87496542266799
C            4.72034612945621       -0.44415135850882        0.86952326574071
C            5.44283283204324        0.50393243280081        0.14736008935089
C            6.89710324766153        0.50316460551796        0.09096187879187
N            7.62278966165790        1.59339294171513        0.13181393428443
C            8.91741941753382        1.18181316454797        0.05745956510345
C           10.09115264778879        1.98516837905282        0.10214875990113
C           10.01521128144601        3.37523137696010        0.24592094374392
C           11.15977352016868        4.12964399790479        0.31763901560177
C           12.40046985078446        3.49800768632412        0.25004132962045
C           12.48715358690592        2.13318981910968        0.10232042739576
C           11.34034163010340        1.32802545148383        0.01619836136828
C           11.39888722078419       -0.11162856402924       -0.17348561970890
C           12.61979262667435       -0.78253422332001       -0.33764568884602
C           12.68456490568710       -2.13774051919346       -0.56109694454091
C           11.51539761998752       -2.88749823089026       -0.64678769044489
C           10.29948966996339       -2.27054046175595       -0.48351186680455
C           10.21222593747604       -0.89428453239704       -0.22741202105761
C            8.97815681543439       -0.20660775865510       -0.04887039224635
N            7.66845286270038       -0.63240312704097       -0.01331537582778
C            7.15402096241092       -1.94524996475877       -0.08743697646053
C            6.34315065101188       -2.30318114886092       -1.15785577858023
C            5.80294155950122       -3.57601148961731       -1.21231445697799
C            6.06905868295177       -4.49002104638340       -0.20628483047945
C            6.87831035772660       -4.13160686178652        0.86034206942252
C            7.41945862957712       -2.86043390555348        0.92701162957046
C            4.74973657634867        1.50648313779680       -0.53138954148615
C            3.37027207338677        1.53426502084745       -0.52338028537863
C            0.47818614677137       -0.46288833259370       -0.50040255177890
C            1.15916255739417       -1.51700253110587       -1.16581702273234
C            0.47851584401006       -2.52756393227339       -1.77238290757795
C           -0.93072908498263       -2.54808324234319       -1.75338073375029
C           -1.62190619187467       -1.54355202572083       -1.14943764123720
C           -0.95154099737021       -0.46147380152105       -0.51947436728156
C           -3.87883901626872        0.28415546637342        1.17733519195804
C           -5.26022340201273        0.27751429690851        1.13603812481320
C           -8.12609932758614       -0.50955828193917        0.20749383319348
C           -7.59404841507507       -1.75953938182033        0.73750550070704
C           -6.53789636972565       -2.41468850984223        0.10681504433652
C           -6.03150773512928       -3.58969995276678        0.63129270296704
C           -6.57314909172968       -4.12743482507620        1.78704230606658
C           -7.62968248111386       -3.48703483374314        2.41546624654965
C           -8.13707109039932       -2.31035095483710        1.89797729189127
C          -10.71378523238794       -2.23774396779580       -0.07699039060089
C          -11.91994088391944       -2.90748032969340        0.01102293594998
H          -14.04013131902443       -2.73203566845793        0.26315470724165
H          -13.98697391329454       -0.26745837139433        0.41230820298615
H          -11.82750092911879        0.92994887971653        0.25270302211295
H           -9.26947719593498        3.05817085004086       -2.40168956748366
H           -8.61566801970538        5.33658062696966       -3.11148476291387
H           -6.70184439545219        6.46012154153443       -2.02762992414843
H           -5.47633830504816        5.31980540710647       -0.21409229106355
H           -6.14060232536386        3.07196778512771        0.50347548306169
H           -5.70181947322716        1.14781758819236       -2.10470505798620
H           -3.23500630100188        1.15800083172499       -2.02101398759053
H           -2.73085584274551        2.74210884969465        1.26659232067738
H           -1.51253058616957        4.53480934538957        2.41476003621626
H            0.95035144727628        4.46251692047689        2.57020768131023
H            2.20254711386194        2.63095843278971        1.53308417641743
H            2.78868817094536       -1.15128347720636        1.43872192655796
H            5.23515544160161       -1.20008323384389        1.44287386553589
H            9.03483698094442        3.82353637934508        0.30356178376493
H           11.10446775156161        5.20254697976649        0.43026896027745
H           13.30473361350059        4.08630083306732        0.31322225897029
H           13.46881068806535        1.68904892901168        0.05689095761050
H           13.54418232610182       -0.22935202994759       -0.29908036602383
H           13.64444449921447       -2.61820941921796       -0.68245579864095
H           11.56167381886014       -3.94827040914554       -0.84479507089085
H            9.39516835037113       -2.85160960591226       -0.56708403981588
H            6.14118819564287       -1.58176126221739       -1.93620667818231
H            5.17329150683551       -3.85249180216069       -2.04441223942567
H            5.64598397394914       -5.48197291802036       -0.25216038407233
H            7.08614754315568       -4.84092259478577        1.64731464987129
H            8.04857370727509       -2.56854384732733        1.75580763449904
H            5.31351925365560        2.25318345134983       -1.06968731754084
H            2.84224943668817        2.30405984324323       -1.06743699194897
H            2.23841670151982       -1.50218479322425       -1.18388711412157
H            1.01256311067136       -3.32238249366477       -2.27253721158501
H           -1.45537108657112       -3.36459407290002       -2.22812683986087
H           -2.70131995603377       -1.55394985007736       -1.13940460248561
H           -3.36850515681799        0.03973944498585        2.09719541301751
H           -5.83275409975468        0.03399090737806        2.01878705898615
H           -6.12503880571470       -2.00766320581112       -0.80520664538573
H           -5.21298591419777       -4.08894760794060        0.13337110869796
H           -6.17579383874470       -5.04472257743759        2.19577050998452
H           -8.05755375894686       -3.90381304026716        3.31561349687433
H           -8.95784695218971       -1.80592100585409        2.38768765428992
H           -9.80101651794005       -2.79231994811061       -0.23795969446546
H          -11.93944129601356       -3.98520956051114       -0.06916609417290

          :  Hamiltonian                  GFN2-xTB          :
         :: gradient norm              0.000037501890 Eh/a0 ::
         :: HOMO-LUMO gap              2.105441143490 eV    ::
         :: SCC energy              -183.308717251098 Eh    ::
         :: -> dispersion             -0.175642318020 Eh    ::
         :: -> Gsolv                  -0.076117805082 Eh    ::
         :: repulsion energy           3.414282248822 Eh    ::

    * Orbital Energies and Occupations

         #    Occupation            Energy/Eh            Energy/eV
      -------------------------------------------------------------
         1        2.0000           -0.6894207             -18.7601
       ...           ...                  ...                  ...
       156        2.0000           -0.4052650             -11.0278
       157        2.0000           -0.4038344             -10.9889
       158        2.0000           -0.4016122             -10.9284
       159        2.0000           -0.4010311             -10.9126
       160        2.0000           -0.4003858             -10.8951
       161        2.0000           -0.3989214             -10.8552
       162        2.0000           -0.3952287             -10.7547
       163        2.0000           -0.3836898             -10.4407
       164        2.0000           -0.3808675             -10.3639
       165        2.0000           -0.3781347             -10.2896
       166        2.0000           -0.3668861              -9.9835
       167        2.0000           -0.3634782              -9.8907
       168        2.0000           -0.3608113              -9.8182 (HOMO)
       169                         -0.2834377              -7.7127 (LUMO)
       170                         -0.2610607              -7.1038
       171                         -0.2556349              -6.9562
       172                         -0.2518796              -6.8540
       173                         -0.2431825              -6.6173
       174                         -0.2430154              -6.6128
       175                         -0.2409974              -6.5579
       176                         -0.2401506              -6.5348
       177                         -0.2395378              -6.5182
       178                         -0.2376704              -6.4673
       179                         -0.2336663              -6.3584
       ...                                ...                  ...
       332                          0.7241929              19.7063
      -------------------------------------------------------------
                  HL-Gap            0.0773735 Eh            2.1054 eV

     #   Z          covCN         q      C6AA      α(0)
     1   6 C        2.919    -0.034    28.839     8.806
     2   6 C        2.918    -0.031    28.780     8.797
     3   6 C        2.927    -0.032    28.791     8.799
     4   6 C        2.973     0.006    27.890     8.663
     5   6 C        3.164     0.054    26.468     8.408
     6   7 N        1.912    -0.317    29.066     7.993
     7   6 C        3.158     0.129    24.894     8.157
     8   6 C        2.974    -0.001    28.043     8.686
     9   6 C        2.927    -0.030    28.745     8.792
    10   6 C        2.918    -0.028    28.700     8.785
    11   6 C        2.920    -0.030    28.738     8.791
    12   6 C        2.919    -0.029    28.731     8.790
    13   6 C        2.923    -0.035    28.873     8.812
    14   7 N        2.850    -0.045    22.113     6.984
    15   6 C        2.913     0.063    26.587     8.455
    16   6 C        2.920    -0.039    28.969     8.826
    17   6 C        2.924    -0.029    28.727     8.789
    18   6 C        2.976     0.019    27.575     8.614
    19   6 C        2.977    -0.006    28.167     8.706
    20   6 C        2.983     0.007    27.859     8.658
    21   6 C        2.917    -0.035    28.871     8.811
    22   6 C        2.914    -0.030    28.739     8.791
    23   6 C        2.914    -0.030    28.747     8.792
    24   6 C        2.917    -0.035    28.860     8.809
    25   6 C        2.983     0.007    27.855     8.657
    26   6 C        2.976    -0.005    28.141     8.702
    27   6 C        2.976     0.018    27.596     8.617
    28   6 C        2.923    -0.032    28.796     8.800
    29   6 C        2.921    -0.036    28.884     8.813
    30   6 C        2.974    -0.003    28.103     8.696
    31   6 C        3.194     0.137    24.557     8.081
    32   7 N        1.893    -0.319    29.120     8.000
    33   6 C        3.207     0.060    26.075     8.315
    34   6 C        2.985    -0.003    28.097     8.695
    35   6 C        2.921    -0.034    28.835     8.806
    36   6 C        2.917    -0.032    28.794     8.799
    37   6 C        2.917    -0.034    28.854     8.809
    38   6 C        2.921    -0.037    28.908     8.817
    39   6 C        2.979    -0.005    28.141     8.702
    40   6 C        2.979    -0.002    28.062     8.689
    41   6 C        2.922    -0.035    28.874     8.812
    42   6 C        2.916    -0.034    28.850     8.808
    43   6 C        2.917    -0.033    28.811     8.802
    44   6 C        2.919    -0.041    29.030     8.836
    45   6 C        2.978    -0.005    28.146     8.702
    46   6 C        3.073     0.022    27.446     8.590
    47   7 N        2.840    -0.055    22.293     7.013
    48   6 C        2.913     0.066    26.512     8.443
    49   6 C        2.921    -0.038    28.948     8.823
    50   6 C        2.920    -0.025    28.624     8.774
    51   6 C        2.919    -0.028    28.710     8.787
    52   6 C        2.920    -0.026    28.653     8.778
    53   6 C        2.921    -0.037    28.917     8.818
    54   6 C        2.926    -0.029    28.730     8.790
    55   6 C        2.922    -0.031    28.765     8.795
    56   6 C        2.983     0.007    27.865     8.659
    57   6 C        2.917    -0.035    28.868     8.811
    58   6 C        2.914    -0.030    28.760     8.794
    59   6 C        2.914    -0.030    28.751     8.793
    60   6 C        2.917    -0.035    28.869     8.811
    61   6 C        2.984     0.007    27.864     8.659
    62   6 C        2.924    -0.030    28.738     8.791
    63   6 C        2.920    -0.039    28.962     8.825
    64   6 C        3.069     0.016    27.585     8.612
    65   6 C        2.971     0.006    27.883     8.662
    66   6 C        2.924    -0.034    28.843     8.807
    67   6 C        2.918    -0.029    28.732     8.790
    68   6 C        2.920    -0.031    28.768     8.795
    69   6 C        2.918    -0.028    28.709     8.786
    70   6 C        2.925    -0.033    28.818     8.803
    71   6 C        2.923    -0.039    28.976     8.827
    72   6 C        2.919    -0.032    28.788     8.798
    73   1 H        0.926     0.031     2.576     2.510
    74   1 H        0.926     0.031     2.568     2.506
    75   1 H        0.926     0.042     2.420     2.433
    76   1 H        0.926     0.043     2.404     2.425
    77   1 H        0.926     0.039     2.460     2.453
    78   1 H        0.926     0.039     2.463     2.454
    79   1 H        0.926     0.037     2.485     2.465
    80   1 H        0.926     0.026     2.642     2.542
    81   1 H        0.926     0.038     2.479     2.462
    82   1 H        0.926     0.045     2.383     2.414
    83   1 H        0.926     0.031     2.572     2.508
    84   1 H        0.926     0.032     2.555     2.500
    85   1 H        0.926     0.032     2.554     2.499
    86   1 H        0.926     0.034     2.530     2.487
    87   1 H        0.926     0.039     2.464     2.455
    88   1 H        0.926     0.030     2.591     2.517
    89   1 H        0.926     0.043     2.406     2.426
    90   1 H        0.926     0.032     2.553     2.499
    91   1 H        0.926     0.032     2.560     2.502
    92   1 H        0.926     0.034     2.524     2.484
    93   1 H        0.926     0.037     2.492     2.469
    94   1 H        0.926     0.033     2.551     2.498
    95   1 H        0.926     0.032     2.561     2.503
    96   1 H        0.926     0.030     2.592     2.518
    97   1 H        0.926     0.037     2.485     2.465
    98   1 H        0.926     0.047     2.354     2.399
    99   1 H        0.926     0.048     2.346     2.395
   100   1 H        0.926     0.047     2.352     2.398
   101   1 H        0.926     0.041     2.429     2.437
   102   1 H        0.926     0.044     2.395     2.420
   103   1 H        0.926     0.041     2.435     2.440
   104   1 H        0.926     0.033     2.544     2.494
   105   1 H        0.926     0.032     2.554     2.499
   106   1 H        0.926     0.032     2.561     2.503
   107   1 H        0.926     0.031     2.575     2.509
   108   1 H        0.926     0.045     2.389     2.417
   109   1 H        0.926     0.039     2.456     2.451
   110   1 H        0.926     0.024     2.666     2.554
   111   1 H        0.926     0.035     2.516     2.481
   112   1 H        0.926     0.036     2.502     2.473
   113   1 H        0.926     0.036     2.508     2.476
   114   1 H        0.926     0.029     2.597     2.520
   115   1 H        0.926     0.024     2.674     2.557
   116   1 H        0.926     0.029     2.594     2.519

molecular dipole:
                 x           y           z       tot (Debye)
 q only:        0.800      -1.225       0.037
   full:        1.220      -1.749       0.110       5.427

 projected vibrational frequencies (cm⁻¹)
eigval :       -0.00    -0.00    -0.00    -0.00    -0.00     0.00
eigval :        6.43     8.16     9.60    16.00    17.08    19.59
eigval :       22.92    32.21    34.98    35.35    39.74    45.49
eigval :       49.50    52.31    55.51    60.79    65.14    67.85
eigval :       70.32    73.69    79.91    81.68    84.29    86.94
eigval :       96.28   113.23   120.95   123.97   130.39   137.11
eigval :      143.44   163.67   172.15   184.32   196.01   210.16
eigval :      213.10   221.45   226.65   237.64   238.61   241.76
eigval :      246.00   257.92   262.33   266.83   272.39   278.72
eigval :      304.30   311.52   332.70   350.72   366.73   371.90
eigval :      372.47   374.03   376.89   378.23   378.40   382.17
eigval :      389.12   396.37   398.59   405.67   413.57   416.41
eigval :      418.89   434.62   440.62   444.86   448.01   452.14
eigval :      459.35   474.45   476.06   478.91   484.98   504.36
eigval :      512.61   515.70   526.43   529.42   532.82   534.51
eigval :      578.57   583.36   584.02   585.38   586.35   587.13
eigval :      589.37   590.13   594.17   611.74   620.64   621.76
eigval :      633.40   638.26   640.36   644.94   653.96   655.25
eigval :      659.78   661.89   666.63   670.08   671.59   675.93
eigval :      678.56   682.44   687.64   691.75   693.76   697.47
eigval :      705.91   709.29   727.13   734.38   740.53   743.39
eigval :      754.55   761.63   762.98   764.12   766.33   774.29
eigval :      776.02   777.76   781.46   794.33   816.53   821.83
eigval :      863.61   871.95   873.48   873.95   874.10   875.25
eigval :      876.73   877.03   877.70   879.72   897.96   900.32
eigval :      901.45   903.16   903.63   907.73   912.08   913.04
eigval :      914.64   916.22   916.96   919.04   921.78   923.66
eigval :      926.58   927.26   927.43   927.77   928.70   928.78
eigval :      929.54   929.57   931.02   931.49   932.29   932.74
eigval :      932.83   933.97   938.82   942.06   955.34   957.16
eigval :      977.67   993.46   999.12  1015.84  1016.98  1031.00
eigval :     1036.38  1067.68  1078.38  1080.54  1080.69  1081.59
eigval :     1082.02  1083.18  1085.21  1107.31  1109.26  1114.84
eigval :     1117.55  1119.21  1120.22  1131.55  1132.11  1133.78
eigval :     1135.41  1144.47  1151.40  1164.24  1173.11  1177.35
eigval :     1178.11  1179.04  1179.30  1180.26  1180.68  1183.56
eigval :     1185.39  1187.85  1188.12  1193.44  1195.22  1198.47
eigval :     1200.30  1207.36  1209.62  1216.76  1224.15  1228.98
eigval :     1252.32  1255.98  1258.23  1260.55  1265.24  1269.34
eigval :     1270.65  1274.10  1278.78  1281.84  1283.07  1284.58
eigval :     1299.95  1304.86  1310.95  1311.80  1313.82  1318.07
eigval :     1319.48  1321.81  1328.13  1331.67  1336.91  1345.99
eigval :     1348.18  1362.64  1371.29  1374.06  1383.30  1396.78
eigval :     1397.25  1404.04  1406.21  1416.47  1417.73  1427.46
eigval :     1428.11  1429.24  1430.02  1430.87  1433.01  1435.15
eigval :     1443.09  1449.30  1460.52  1465.83  1476.00  1484.30
eigval :     1487.70  1497.21  1512.72  1514.33  1525.05  1528.63
eigval :     1534.39  1540.78  1542.69  1556.13  1557.34  1562.65
eigval :     1563.99  1568.19  1577.58  1578.82  1580.62  1582.01
eigval :     1591.35  1592.88  1594.51  1595.12  1595.71  1596.64
eigval :     1598.69  1603.08  1607.18  1621.48  3065.20  3068.30
eigval :     3069.40  3070.19  3071.42  3071.55  3071.64  3073.30
eigval :     3074.19  3076.36  3077.46  3078.42  3078.54  3079.27
eigval :     3079.39  3079.42  3079.85  3079.86  3080.61  3081.64
eigval :     3082.59  3083.33  3083.78  3085.24  3087.40  3087.59
eigval :     3089.13  3091.27  3091.96  3092.24  3092.53  3092.62
eigval :     3093.52  3094.18  3094.41  3094.81  3095.50  3096.44
eigval :     3097.24  3097.33  3097.76  3101.43  3109.21  3115.86

   temp. (K)  partition function   enthalpy   heat capacity  entropy
                                   cal/mol     cal/K/mol   cal/K/mol   J/K/mol
 298.15  VIB  0.113E+29            33876.894    210.429    214.663
         ROT  0.347E+09              888.752      2.981     42.061
         INT  0.391E+37            34765.646    213.410    256.725
         TR   0.269E+29             1481.254      4.968     46.303
         TOT                       36246.9003   218.3781   303.0273  1267.8660

       T/K    H(0)-H(T)+PV         H(T)/Eh          T*S/Eh         G(T)/Eh
   ------------------------------------------------------------------------
    298.15    0.577631E-01    0.949402E+00    0.143978E+00    0.805424E+00
   ------------------------------------------------------------------------

         :::::::::::::::::::::::::::::::::::::::::::::::::::::
         ::                  THERMODYNAMIC                  ::
         :::::::::::::::::::::::::::::::::::::::::::::::::::::
         :: total free energy        -179.089010698008 Eh   ::
         ::.................................................::
         :: total energy             -179.894435001525 Eh   ::
         :: zero point energy           0.891639217540 Eh   ::
         :: G(RRHO) w/o ZPVE           -0.086214914023 Eh   ::
         :: G(RRHO) contrib.            0.805424303517 Eh   ::
         :::::::::::::::::::::::::::::::::::::::::::::::::::::

           -------------------------------------------------
          | TOTAL ENERGY             -179.894435001525 Eh   |
          | TOTAL ENTHALPY           -178.945032671595 Eh   |
          | TOTAL FREE ENERGY        -179.089010698008 Eh   |
          | GRADIENT NORM               0.000037495592 Eh/α |
          | HOMO-LUMO GAP               2.105441140121 eV   |
           -------------------------------------------------

 * finished run on 2025/08/24 at 17:20:14.853
