   * xtb version 6.7.1 (edcfbbe) compiled by 'albert@albert-system' on 2024-07-22

   ID    Z sym.   atoms
    1    6 C      1-9, 11-16, 18-30, 32-37
    2    7 N      10
    3    8 O      17
    4   16 S      31
    5    1 H      38-64

          program call               : xtb data2507/gas/DBT-BZ-DMAC/DBT-BZ-DMAC.xyz --gfn 2 --ohess vtight --parallel 40 --molden --ceasefiles --namespace data2507/gas/DBT-BZ-DMAC/DBT-BZ-DMAC_gas_S0_preOpt
          :  Hamiltonian                  GFN2-xTB          :
 * total energy  :   -75.8628225 Eh     change       -0.2741487E-07 Eh
 * total energy  :   -84.7479807 Eh     change       -0.8885158E+01 Eh
 * total energy  :   -88.8463218 Eh     change       -0.4098341E+01 Eh
 * total energy  :   -90.5105375 Eh     change       -0.1664216E+01 Eh
 * total energy  :   -91.8045066 Eh     change       -0.1293969E+01 Eh
 * total energy  :   -92.6985365 Eh     change       -0.8940298E+00 Eh
 * total energy  :   -93.3472224 Eh     change       -0.6486859E+00 Eh
 * total energy  :   -93.8417420 Eh     change       -0.4945196E+00 Eh
 * total energy  :   -94.2358764 Eh     change       -0.3941344E+00 Eh
 * total energy  :   -94.5569142 Eh     change       -0.3210378E+00 Eh
 * total energy  :   -96.6395595 Eh     change       -0.1552860E-05 Eh
 * total energy  :   -96.6395606 Eh     change       -0.1159662E-05 Eh
 * total energy  :   -96.6395614 Eh     change       -0.7362350E-06 Eh
 * total energy  :   -96.6395618 Eh     change       -0.4746890E-06 Eh
 * total energy  :   -96.6395622 Eh     change       -0.3084364E-06 Eh
 * total energy  :   -96.6395624 Eh     change       -0.2434747E-06 Eh
 * total energy  :   -96.6395626 Eh     change       -0.2188976E-06 Eh
 * total energy  :   -96.6395627 Eh     change       -0.1190788E-06 Eh
 * total energy  :   -96.6395628 Eh     change       -0.1768186E-07 Eh
   *** GEOMETRY OPTIMIZATION CONVERGED AFTER 143 ITERATIONS ***

 final structure:
================
64
 xtb: 6.7.1 (edcfbbe)
C           -0.06233461150070       -1.97439225569252        0.73816624157326
C           -1.03030030291607       -0.87597783675936        0.24415927986964
C           -1.37028030212951       -1.20581556122439       -1.21324543666615
C           -3.59810048605125       -0.53666528433394        0.96461421768099
C           -4.46008054487082       -1.55429744022248        1.63058469249556
C           -5.78453050511270       -1.61836766040271        0.96699124872281
C           -6.04087564393331       -0.99849126546327       -0.18183998012374
C           -5.09998447076541       -0.11377459791435       -0.96853931565302
C           -3.08639855559256        1.36853948046857       -0.19684893318846
N           -2.65443197321108        2.02851630812287       -1.33984799866997
C           -1.31641802444710        2.04871531675166       -1.68876850010347
C           -1.05595040244052        2.78352671536623       -2.85704206640593
C            0.21601927754941        3.02472334772029       -3.31341690496653
C            1.27635971770370        2.54754347788868       -2.57127915965084
C            1.04780993400209        1.77085775245070       -1.44043011503620
C            2.29671605318945        1.33000849802709       -0.76453923181433
O            3.31481377483707        1.97764576035149       -0.73707727956983
C            4.07244679528190       -0.15709259296606        1.52824979921552
C            5.40583198935069       -0.67239481622059        1.76472647217961
C            6.28923272197811       -1.04488167329675        0.81189905621699
C            6.00057955101792       -1.08227650821645       -0.58893427503318
C            4.79519375068950       -1.41029605325917       -1.07199258512826
C            3.73596321689693       -1.91631130328041       -0.14964461853037
C           -0.24736537667134        1.43036589956708       -0.99150367338487
C            3.69948426528852        0.90224341479280        2.44699019478960
C            3.29586604140343       -0.65162139717748        0.52550800516486
C            2.08724964916598        0.00244646032483       -0.06264306953810
C            1.03041780731758        0.50365742702690        0.87641355332717
C            1.25926569315870        1.16662367822867        2.02198377011346
C            2.49416753015360        1.43429469336483        2.69968310309864
S           -0.20911014831335        1.89440796970043        2.70189933845410
C           -1.13367627659062        1.44619467466398        1.28067207582926
C           -2.39209357038518        1.78075564652148        1.04363789869571
C           -3.96011452964866        0.34815264993428       -0.10869611139568
C           -3.30727157296691       -2.02525590268245        0.78701970795044
C           -2.22552525409614       -1.07300075738399        1.21514057530127
C           -0.36467972308882        0.58829761148855        0.31360363984377
H            0.43555306915605       -1.69030166030886        1.66172195307480
H           -0.64004582551754       -2.87665887723180        0.93168499698288
H            0.68999945364651       -2.23055819510855        0.00129631007809
H           -2.22806002080618       -0.64827076732880       -1.57180450046834
H           -0.52287393704047       -0.96258981555883       -1.85256495800440
H           -1.57292956575636       -2.26853987280875       -1.32355339009534
H           -4.43138544978931       -1.70148692399742        2.70545683041476
H           -6.55589795320481       -2.20310393614165        1.44785085221898
H           -7.01986656500466       -1.10819940736265       -0.63042186137246
H           -5.65872923305950        0.74652760609884       -1.35053495030148
H           -3.30970783098526        2.16216602609041       -2.09655128922323
H           -1.90379245703679        3.19375035415160       -3.38860184979807
H            0.37861698703912        3.60059880045881       -4.21116129672221
H            2.29781615402993        2.76018861033402       -2.84455100367294
H            5.77394726522066       -0.57451019442712        2.77875706490057
H            7.31770224236594       -1.21519564864615        1.10430983588257
H            6.80242314901695       -0.81508669636331       -1.26319586336922
H            4.56309131772143       -1.31527863854575       -2.12245684471799
H            2.92835738261980       -2.40731569393945       -0.69019367405212
H            4.51623927514252        1.26024810725922        3.06043537805630
H            4.16466441015151       -2.60906077557185        0.57892103247142
H            1.62919295676136       -0.66724047616452       -0.79214436616888
H            2.41450287423283        2.17117660877893        3.48769084296075
H           -2.97235591710063        2.35732065448441        1.74818273598154
H           -4.74653469105363       -0.67312169941374       -1.84779402215648
H           -3.37401029772895       -2.63603033639711       -0.08797857815588
H           -1.89381628720884       -1.11603502861821        2.25154999950722

          :  Hamiltonian                  GFN2-xTB          :
         :: gradient norm              0.000104260859 Eh/a0 ::
         :: HOMO-LUMO gap              1.761325341646 eV    ::
         :: SCC energy               -98.227106305234 Eh    ::
         :: -> dispersion             -0.102684402958 Eh    ::
         :: repulsion energy           1.587543550724 Eh    ::

    * Orbital Energies and Occupations

         #    Occupation            Energy/Eh            Energy/eV
      -------------------------------------------------------------
         1        2.0000           -0.7182660             -19.5450
       ...           ...                  ...                  ...
        78        2.0000           -0.4233027             -11.5187
        79        2.0000           -0.4219656             -11.4823
        80        2.0000           -0.4201904             -11.4340
        81        2.0000           -0.4102477             -11.1634
        82        2.0000           -0.4079274             -11.1003
        83        2.0000           -0.4058685             -11.0442
        84        2.0000           -0.3926732             -10.6852
        85        2.0000           -0.3870360             -10.5318
        86        2.0000           -0.3806809             -10.3589
        87        2.0000           -0.3772511             -10.2655
        88        2.0000           -0.3650581              -9.9337
        89        2.0000           -0.3474063              -9.4534
        90        2.0000           -0.3405306              -9.2663 (HOMO)
        91                         -0.2758031              -7.5050 (LUMO)
        92                         -0.2622562              -7.1364
        93                         -0.2407889              -6.5522
        94                         -0.2378743              -6.4729
        95                         -0.2248482              -6.1184
        96                         -0.2149821              -5.8500
        97                         -0.2109909              -5.7414
        98                         -0.1965904              -5.3495
        99                         -0.1934950              -5.2653
       100                         -0.1843071              -5.0153
       101                         -0.1535467              -4.1782
       ...                                ...                  ...
       180                          0.7287325              19.8298
      -------------------------------------------------------------
                  HL-Gap            0.0647274 Eh            1.7613 eV

     #   Z          covCN         q      C6AA      α(0)
     1   6 C        3.773    -0.108    22.599     6.774
     2   6 C        3.886     0.020    20.190     6.388
     3   6 C        3.758    -0.100    22.460     6.757
     4   6 C        3.986     0.001    20.493     6.431
     5   6 C        3.906    -0.009    20.684     6.464
     6   6 C        2.899    -0.041    29.028     8.834
     7   6 C        2.894    -0.038    28.934     8.819
     8   6 C        3.808    -0.048    21.421     6.588
     9   6 C        2.952     0.042    27.058     8.532
    10   7 N        2.705    -0.159    24.429     7.341
    11   6 C        2.912     0.071    26.402     8.426
    12   6 C        2.939    -0.057    29.414     8.895
    13   6 C        2.913    -0.029    28.730     8.789
    14   6 C        2.936    -0.037    28.914     8.819
    15   6 C        2.981    -0.026    28.645     8.779
    16   6 C        2.935     0.233    23.123     7.886
    17   8 O        0.857    -0.371    21.112     6.160
    18   6 C        2.955     0.006    27.876     8.660
    19   6 C        2.913    -0.036    28.900     8.815
    20   6 C        2.901    -0.031    28.773     8.795
    21   6 C        2.901    -0.036    28.889     8.813
    22   6 C        2.939    -0.024    28.603     8.771
    23   6 C        3.821    -0.056    21.555     6.607
    24   6 C        2.969    -0.016    28.413     8.743
    25   6 C        2.906    -0.026    28.662     8.779
    26   6 C        2.994     0.017    27.625     8.622
    27   6 C        3.869    -0.035    21.146     6.539
    28   6 C        3.204    -0.007    27.597     8.557
    29   6 C        2.954     0.035    27.208     8.555
    30   6 C        2.933    -0.042    29.050     8.839
    31  16 S        2.207    -0.130   146.496    20.371
    32   6 C        2.971     0.040    27.098     8.539
    33   6 C        2.952    -0.063    29.574     8.920
    34   6 C        2.960    -0.035    28.858     8.811
    35   6 C        3.859    -0.046    21.353     6.572
    36   6 C        3.914    -0.015    20.779     6.479
    37   6 C        3.960     0.012    20.311     6.404
    38   1 H        0.925     0.041     2.442     2.444
    39   1 H        0.925     0.044     2.396     2.421
    40   1 H        0.925     0.040     2.445     2.445
    41   1 H        0.925     0.038     2.473     2.459
    42   1 H        0.925     0.032     2.553     2.498
    43   1 H        0.925     0.038     2.474     2.460
    44   1 H        0.925     0.032     2.562     2.503
    45   1 H        0.926     0.029     2.595     2.519
    46   1 H        0.925     0.026     2.647     2.544
    47   1 H        0.924     0.036     2.499     2.472
    48   1 H        0.860     0.157     1.355     1.823
    49   1 H        0.925     0.030     2.586     2.515
    50   1 H        0.926     0.038     2.474     2.459
    51   1 H        0.926     0.051     2.303     2.373
    52   1 H        0.925     0.031     2.575     2.509
    53   1 H        0.925     0.031     2.566     2.505
    54   1 H        0.926     0.038     2.476     2.461
    55   1 H        0.926     0.030     2.592     2.518
    56   1 H        0.925     0.033     2.547     2.496
    57   1 H        0.925     0.043     2.412     2.429
    58   1 H        0.924     0.048     2.341     2.393
    59   1 H        0.924     0.055     2.258     2.350
    60   1 H        0.925     0.045     2.379     2.412
    61   1 H        0.926     0.046     2.368     2.406
    62   1 H        0.923     0.039     2.466     2.456
    63   1 H        0.927     0.036     2.509     2.477
    64   1 H        0.925     0.034     2.531     2.488

molecular dipole:
                 x           y           z       tot (Debye)
 q only:       -1.132      -1.186      -0.569
   full:       -1.381      -1.227      -1.119       5.489

 projected vibrational frequencies (cm⁻¹)
eigval :       -0.00    -0.00    -0.00    -0.00     0.00     0.00
eigval :       32.20    40.91    50.68    56.84    59.61    80.94
eigval :       92.45   113.60   122.75   130.62   144.28   159.61
eigval :      179.73   197.80   204.17   220.30   239.65   243.34
eigval :      252.84   264.80   279.46   283.22   293.81   308.94
eigval :      312.05   319.67   329.65   338.30   343.84   350.45
eigval :      363.85   370.05   389.96   394.12   401.30   417.80
eigval :      419.66   427.77   440.94   457.87   476.09   482.61
eigval :      488.46   500.19   510.62   519.04   535.13   549.71
eigval :      550.18   562.84   573.23   582.85   598.30   614.53
eigval :      629.66   640.39   661.89   666.10   697.34   714.57
eigval :      718.73   730.11   737.48   754.12   770.92   787.96
eigval :      793.52   796.77   801.58   806.65   824.41   829.62
eigval :      839.87   847.24   868.25   873.72   876.52   887.69
eigval :      912.51   916.56   919.41   923.09   924.15   924.57
eigval :      941.04   944.16   952.61   966.27   972.14   980.53
eigval :      987.70  1001.63  1015.45  1021.03  1025.86  1038.53
eigval :     1050.20  1059.49  1068.21  1080.93  1090.54  1095.80
eigval :     1115.68  1125.57  1130.05  1143.77  1149.78  1164.52
eigval :     1167.28  1167.43  1173.71  1178.32  1180.29  1189.02
eigval :     1196.75  1205.14  1209.79  1215.31  1225.34  1230.16
eigval :     1239.62  1246.15  1251.13  1256.84  1267.03  1287.38
eigval :     1288.12  1304.07  1319.63  1324.03  1325.15  1351.93
eigval :     1352.78  1364.22  1368.72  1397.51  1407.42  1412.60
eigval :     1421.03  1423.87  1442.99  1453.45  1464.60  1492.22
eigval :     1506.48  1508.76  1511.24  1525.16  1544.13  1553.19
eigval :     1579.29  1595.94  1626.21  1642.87  1648.53  1664.44
eigval :     1692.24  1693.46  1740.27  2852.47  2946.60  2953.24
eigval :     2959.92  2967.36  2995.84  3000.41  3015.96  3023.30
eigval :     3033.30  3039.32  3041.64  3050.74  3052.66  3056.65
eigval :     3063.51  3064.12  3071.63  3073.25  3073.85  3074.52
eigval :     3079.89  3082.84  3093.55  3107.48  3168.92  3410.96

   temp. (K)  partition function   enthalpy   heat capacity  entropy
                                   cal/mol     cal/K/mol   cal/K/mol   J/K/mol
 298.15  VIB  0.129E+11            16805.011    116.173     98.562
         ROT  0.243E+08              888.752      2.981     36.775
         INT  0.314E+18            17693.763    119.154    135.337
         TR   0.107E+29             1481.254      4.968     44.481
         TOT                       19175.0173   124.1220   179.8180   752.3583

       T/K    H(0)-H(T)+PV         H(T)/Eh          T*S/Eh         G(T)/Eh
   ------------------------------------------------------------------------
    298.15    0.305573E-01    0.531886E+00    0.854373E-01    0.446448E+00
   ------------------------------------------------------------------------

         :::::::::::::::::::::::::::::::::::::::::::::::::::::
         ::                  THERMODYNAMIC                  ::
         :::::::::::::::::::::::::::::::::::::::::::::::::::::
         :: total free energy         -96.193114436496 Eh   ::
         ::.................................................::
         :: total energy              -96.639562754504 Eh   ::
         :: zero point energy           0.501328295287 Eh   ::
         :: G(RRHO) w/o ZPVE           -0.054879977280 Eh   ::
         :: G(RRHO) contrib.            0.446448318007 Eh   ::
         :::::::::::::::::::::::::::::::::::::::::::::::::::::

           -------------------------------------------------
          | TOTAL ENERGY              -96.639562754504 Eh   |
          | TOTAL ENTHALPY            -96.107677124034 Eh   |
          | TOTAL FREE ENERGY         -96.193114436496 Eh   |
          | GRADIENT NORM               0.000104322385 Eh/α |
          | HOMO-LUMO GAP               1.761323242790 eV   |
           -------------------------------------------------

 * finished run on 2025/07/16 at 23:56:14.376
