   * xtb version 6.7.1 (edcfbbe) compiled by 'albert@albert-system' on 2024-07-22

   ID    Z sym.   atoms
    1    6 C      1-9, 11-16, 18-30, 32-37
    2    7 N      10
    3    8 O      17
    4   16 S      31
    5    1 H      38-64

          program call               : xtb data2507/gas/DBT-BZ-DMAC/DBT-BZ-DMAC_gas_S0_finalOpt.xtbopt.xyz --gfn 2 --spinpol --tblite --uhf 2 --ohess vtight --parallel 40 --molden --ceasefiles --namespace data2507/gas/DBT-BZ-DMAC/DBT-BZ-DMAC_gas_T1_preOpt
 * total energy  :   -96.5526507 Eh     change       -0.1269653E-07 Eh
 * total energy  :   -96.5604906 Eh     change       -0.7839864E-02 Eh
 * total energy  :   -96.5655657 Eh     change       -0.5075104E-02 Eh
 * total energy  :   -96.5667801 Eh     change       -0.1214456E-02 Eh
 * total energy  :   -96.5681522 Eh     change       -0.1372101E-02 Eh
 * total energy  :   -96.5686679 Eh     change       -0.5156312E-03 Eh
 * total energy  :   -96.5691795 Eh     change       -0.5116710E-03 Eh
 * total energy  :   -96.5696685 Eh     change       -0.4889103E-03 Eh
 * total energy  :   -96.5700744 Eh     change       -0.4059944E-03 Eh
 * total energy  :   -96.5703898 Eh     change       -0.3153401E-03 Eh
 * total energy  :   -96.5739365 Eh     change       -0.2647963E-06 Eh
 * total energy  :   -96.5739367 Eh     change       -0.1745698E-06 Eh
 * total energy  :   -96.5739368 Eh     change       -0.1680688E-06 Eh
 * total energy  :   -96.5739370 Eh     change       -0.1739601E-06 Eh
 * total energy  :   -96.5739372 Eh     change       -0.2030072E-06 Eh
 * total energy  :   -96.5739375 Eh     change       -0.2488796E-06 Eh
 * total energy  :   -96.5739377 Eh     change       -0.2673285E-06 Eh
 * total energy  :   -96.5739380 Eh     change       -0.2566417E-06 Eh
 * total energy  :   -96.5739380 Eh     change       -0.2279035E-07 Eh
   *** GEOMETRY OPTIMIZATION CONVERGED AFTER 94 ITERATIONS ***

 final structure:
================
64
 xtb: 6.7.1 (edcfbbe)
C           -0.72057608753604        1.59738170843695        2.23986748814427
C           -1.41479171859439        0.67597560651310        1.22647691018977
C           -1.77100816471791       -0.62343153729073        1.95336937370990
C           -3.77459748478041        0.80381703455067       -0.00320920953123
C           -4.98801691238244        1.54589117006151        0.45773746204293
C           -6.19856747675014        0.70889297324324        0.28260594982927
C           -6.13844385879780       -0.57376945432148       -0.06569292660435
C           -4.89148427196974       -1.36859917616474       -0.38705434739441
C           -2.70912794698937       -0.55534887481629       -1.55165883767931
N           -2.01186012217128       -1.70236955117175       -1.96236815154502
C           -0.89261724387089       -2.01003611691831       -1.19248495715818
C           -0.43675831374483       -3.32888729601387       -1.33457284624444
C            0.56260541528104       -3.86230928007612       -0.55568320999106
C            1.12765461496666       -3.07312072834297        0.42593883509207
C            0.75304978515634       -1.74001491702782        0.51965092827928
C            1.42848608581337       -0.93920104971414        1.56326069913571
O            1.54466145885132       -1.30084560632867        2.71236134800272
C            4.15549048268525        1.21824988985651       -0.00941403451016
C            5.55591690719845        1.01203593201543       -0.35560539929538
C            6.09038137393035       -0.08169779425845       -0.92993764678414
C            5.39007046641010       -1.31985878181019       -1.16480746310847
C            4.45818642999336       -1.78470425977734       -0.33137427546576
C            4.15988861625185       -1.05443816530382        0.94429697480564
C           -0.22918644091600       -1.14631796446964       -0.28858794108150
C            3.68530943941967        2.49767316275361       -0.32433642169451
C            3.40297847368170        0.17893728768644        0.55051350445800
C            1.97897141998285        0.36493935247046        1.03494196029244
C            0.96156270944513        0.94262790477782        0.11983256627711
C            1.22162797519001        2.13599297608807       -0.58319767786529
C            2.36569492004962        2.89403243516373       -0.63592175822011
S           -0.18579162072757        2.64742000031897       -1.50972391143990
C           -0.97468045394451        1.10810170414535       -1.21898571857461
C           -2.01666492653176        0.69539157685878       -1.91778401499755
C           -3.75295791489544       -0.44974067261979       -0.71646558188311
C           -4.00472695308568        1.03243251623057        1.47177737562866
C           -2.70215823535703        1.43670918061157        0.82499754909817
C           -0.42399562837408        0.36319619749490       -0.03462389920246
H           -1.45631656349431        1.93468380907371        2.96805485216144
H            0.05998444563867        1.07197902278041        2.78176483509766
H           -0.29625020882064        2.47627660351552        1.75914683883070
H           -2.35831558520304       -1.28704688973227        1.32445135414466
H           -0.88160743533766       -1.15478076243081        2.27225685603330
H           -2.33413059462189       -0.39354193395054        2.85423328907617
H           -5.08880266064401        2.61436662213181        0.29670136684068
H           -7.15762092798376        1.17540677338863        0.45793155004217
H           -7.05621713465489       -1.14158145277927       -0.14565079847560
H           -5.09908414954900       -2.03892435477348       -1.22606505650566
H           -2.55745576558224       -2.51276312715502       -2.22520509912246
H           -0.92954069851622       -3.95079205979942       -2.06941722729735
H            0.86877833896179       -4.88865406610241       -0.68729969148570
H            1.86253404658841       -3.46580781518376        1.11101455539402
H            6.17092073556968        1.90233721156433       -0.30215141165441
H            7.10402752666297       -0.02387864202186       -1.30642424933850
H            5.66877247768089       -1.87969035442170       -2.04754238123076
H            3.89985970686033       -2.68322658755644       -0.54799276196264
H            3.61354539234920       -1.68388336599193        1.63944102376364
H            4.43991881207355        3.23125037437912       -0.57435854867033
H            5.10856350570199       -0.75940795716175        1.40939090459314
H            2.10186753854307        1.06408912938948        1.88187240972927
H            2.26983653002801        3.85784494113184       -1.11820645858826
H           -2.41540072187171        1.26151260823385       -2.74547792203840
H           -4.65148037224552       -2.00603529470558        0.47557868669971
H           -4.21559995594694        0.35486948633664        2.27011905976235
H           -2.52654639084791        2.50147314473518        0.67756271933166

 projected vibrational frequencies (cm⁻¹)
eigval :       -0.00    -0.00    -0.00     0.00     0.00     0.00
eigval :       23.37    30.04    48.98    62.96    73.00    88.13
eigval :       96.97   112.02   126.94   129.23   154.19   165.00
eigval :      176.58   199.18   216.33   223.04   234.76   245.94
eigval :      271.52   274.68   288.59   291.18   303.54   310.48
eigval :      319.00   327.71   335.20   342.66   345.47   348.75
eigval :      361.32   370.94   375.75   393.12   397.54   411.34
eigval :      414.44   419.87   446.78   458.78   472.65   484.73
eigval :      487.21   497.39   499.18   504.36   522.53   531.51
eigval :      549.19   556.40   567.16   577.39   600.62   604.83
eigval :      614.00   640.17   650.37   678.37   687.22   697.25
eigval :      720.13   725.48   734.28   740.72   746.31   759.33
eigval :      777.16   784.55   798.57   803.96   806.37   811.75
eigval :      824.63   833.92   852.17   857.20   867.54   875.65
eigval :      887.31   892.29   906.82   915.44   916.43   916.93
eigval :      922.75   941.65   953.00   958.99   971.91   978.77
eigval :      987.90  1002.56  1003.24  1017.25  1019.78  1025.01
eigval :     1052.02  1056.12  1067.64  1077.48  1096.78  1101.61
eigval :     1111.00  1117.52  1128.42  1131.55  1139.06  1145.10
eigval :     1152.36  1164.15  1167.60  1171.59  1185.06  1188.13
eigval :     1188.96  1191.33  1199.65  1212.46  1215.04  1225.00
eigval :     1230.97  1240.49  1246.22  1256.66  1265.42  1273.95
eigval :     1280.73  1283.88  1300.10  1305.12  1321.13  1325.62
eigval :     1326.63  1342.88  1351.69  1362.27  1395.38  1406.00
eigval :     1407.57  1423.30  1424.34  1446.15  1448.76  1449.15
eigval :     1461.07  1491.61  1504.26  1513.07  1520.79  1525.76
eigval :     1535.16  1555.16  1581.00  1598.56  1662.92  1675.57
eigval :     1690.77  1702.90  1732.12  2796.03  2873.26  2903.42
eigval :     2957.40  2958.92  2996.98  3021.16  3032.30  3036.01
eigval :     3036.97  3046.69  3049.16  3053.50  3055.93  3057.34
eigval :     3059.55  3061.14  3065.58  3068.13  3074.10  3076.66
eigval :     3079.33  3091.00  3098.23  3102.82  3177.95  3390.13

   temp. (K)  partition function   enthalpy   heat capacity  entropy
                                   cal/mol     cal/K/mol   cal/K/mol   J/K/mol
 298.15  VIB  0.146E+11            16844.356    117.132     98.230
         ROT  0.227E+08              888.752      2.981     36.638
         INT  0.332E+18            17733.108    120.113    134.868
         TR   0.107E+29             1481.254      4.968     44.481
         TOT                       19214.3620   125.0815   179.3494   750.3979

       T/K    H(0)-H(T)+PV         H(T)/Eh          T*S/Eh         G(T)/Eh
   ------------------------------------------------------------------------
    298.15    0.306200E-01    0.528960E+00    0.852147E-01    0.443746E+00
   ------------------------------------------------------------------------

         :::::::::::::::::::::::::::::::::::::::::::::::::::::
         ::                  THERMODYNAMIC                  ::
         :::::::::::::::::::::::::::::::::::::::::::::::::::::
         :: total free energy         -96.130192405585 Eh   ::
         ::.................................................::
         :: total energy              -96.573937990013 Eh   ::
         :: zero point energy           0.498340233733 Eh   ::
         :: G(RRHO) w/o ZPVE           -0.054594649304 Eh   ::
         :: G(RRHO) contrib.            0.443745584429 Eh   ::
         :::::::::::::::::::::::::::::::::::::::::::::::::::::

           -------------------------------------------------
          | TOTAL ENERGY              -96.573937990013 Eh   |
          | TOTAL ENTHALPY            -96.044977721430 Eh   |
          | TOTAL FREE ENERGY         -96.130192405585 Eh   |
          | GRADIENT NORM               0.000036436958 Eh/α |
           -------------------------------------------------

 * finished run on 2025/07/17 at 00:08:13.025
