   * xtb version 6.7.1 (edcfbbe) compiled by 'albert@albert-system' on 2024-07-22

   ID    Z sym.   atoms
    1    6 C      1-9, 11-16, 18-30, 32-37
    2    7 N      10
    3    8 O      17
    4   16 S      31
    5    1 H      38-64

          program call               : xtb data2507/gas/DBT-BZ-DMAC/DBT-BZ-DMAC_gas_T1_crest.xyz --gfn 2 --spinpol --tblite --uhf 2 --ohess vtight --parallel 40 --molden --ceasefiles --namespace data2507/gas/DBT-BZ-DMAC/DBT-BZ-DMAC_gas_T1_finalOpt
 * total energy  :   -96.5870345 Eh     change       -0.8019484E-08 Eh
 * total energy  :   -96.5870639 Eh     change       -0.2942764E-04 Eh
 * total energy  :   -96.5870813 Eh     change       -0.1739999E-04 Eh
 * total energy  :   -96.5870873 Eh     change       -0.5968713E-05 Eh
 * total energy  :   -96.5870938 Eh     change       -0.6520128E-05 Eh
 * total energy  :   -96.5870982 Eh     change       -0.4393687E-05 Eh
 * total energy  :   -96.5871027 Eh     change       -0.4477902E-05 Eh
 * total energy  :   -96.5871050 Eh     change       -0.2302502E-05 Eh
 * total energy  :   -96.5871060 Eh     change       -0.9598124E-06 Eh
 * total energy  :   -96.5871063 Eh     change       -0.3652318E-06 Eh
 * total energy  :   -96.5871063 Eh     change        0.7626079E-07 Eh
 * total energy  :   -96.5871065 Eh     change       -0.2747695E-06 Eh
 * total energy  :   -96.5871066 Eh     change       -0.9955163E-07 Eh
   *** GEOMETRY OPTIMIZATION CONVERGED AFTER 13 ITERATIONS ***

 final structure:
================
64
 xtb: 6.7.1 (edcfbbe)
C            0.21986564357536        1.98598932314630        0.94648948094247
C           -0.89994847312427        0.96470465799486        0.64527887664324
C           -1.36982766556173        0.41775305817469        1.99707177892762
C           -3.38621156711180        1.47752474232437       -0.23328136259358
C           -4.06952409626805        2.80263699378802       -0.19502823110327
C           -5.45026653986606        2.65634476765817        0.32495952584352
C           -5.89256977626165        1.52791779435958        0.87318502619770
C           -5.13202149449828        0.22917146691831        1.01887584577244
C           -3.19481631264650       -0.80323026273569       -0.39961144894939
N           -2.97111101475349       -2.05366111500784        0.16506458105583
C           -1.68641389459314       -2.45681516448211        0.47456686333000
C           -1.59074391366242       -3.75512334227911        1.00101689005137
C           -0.38471132945461       -4.37762196248504        1.22077690273315
C            0.77671649213120       -3.71973159405995        0.86724040121757
C            0.70146839107527       -2.41362427980705        0.39993784604441
C            1.95728699936535       -1.79970837469820       -0.05939981330876
O            2.81691593872864       -2.34369156988144       -0.71652241005567
C            4.15791465950375        0.79337776295896       -0.53792864579755
C            5.44591595649896        1.41025418043774       -0.26156961846789
C            5.79519389270142        2.12017226740744        0.82938620796695
C            4.99488768393231        2.29338909880380        2.01357746868253
C            4.18550398779445        1.34171455900300        2.48314242314796
C            4.13130906170194        0.00285867655601        1.81389604141742
C           -0.50588526310160       -1.70483880446205        0.27582846521609
C            3.78035097199130        0.86763611259760       -1.89390306464068
C            3.42970283098676        0.21603926937487        0.50170207931796
C            2.06680051115529       -0.31392952832754        0.44775553313275
C            1.07606908612622       -0.02442156054449       -0.59538502527265
C            1.35730177461541        0.26410914865803       -1.94455523301766
C            2.56010535653896        0.60803698502185       -2.52187024964238
S           -0.08537625417116        0.09433192667059       -2.95526453633149
C           -1.10365216792360       -0.26847331758560       -1.57874689520264
C           -2.40573583122123       -0.51665984644481       -1.62010428364335
C           -3.95042402141410        0.19667782175009        0.09399711461478
C           -2.98488272521576        2.52176225475101        0.80761732192100
C           -1.95097513578470        1.86092739229689       -0.05997027116870
C           -0.37214922108218       -0.25519105421414       -0.26677468477946
H           -0.24026875840844        2.87462539776322        1.37570495364810
H            0.94499024633515        1.61813316601262        1.66383589154493
H            0.74871041667113        2.28557078445503        0.04518121737442
H           -0.62364586117799       -0.26866023585298        2.39417339889121
H           -1.48449945358296        1.22820619605573        2.71285498336759
H           -2.30977342673774       -0.11700131515071        1.92300844238787
H           -3.90252724414089        3.54400859140849       -0.96970948181586
H           -6.10405245824675        3.51389188474053        0.25355489319226
H           -6.90237331217590        1.49279824863980        1.26119874400276
H           -5.80741191288031       -0.60353846158158        0.79864448254427
H           -3.71604207421832       -2.48697319606032        0.69129610214957
H           -2.51231119903259       -4.28424255658285        1.19972887122423
H           -0.35253715907189       -5.37964923978242        1.61953112044647
H            1.74238889115394       -4.19406239879211        0.93569989941688
H            6.12778048478965        1.43264131976276       -1.10288963649269
H            6.72774045503056        2.67044295096230        0.80294038685592
H            5.09367797817507        3.23599983826284        2.53527235848279
H            3.55796381246300        1.51210773488773        3.34610858834677
H            5.15001314827347       -0.35147088201394        1.62858653206740
H            4.55231988678210        1.22729114837852       -2.56135194763928
H            3.60767582729239       -0.72874092849431        2.42881571317497
H            1.62074155895214       -0.31118896891304        1.44224762178058
H            2.54099664314440        0.74281810705887       -3.59524523089687
H           -2.95870528598945       -0.48980733285209       -2.54712883558615
H           -4.82915072278063        0.11724387309819        2.07079075464957
H           -3.09698804633668        2.50512802251158        1.87075074377810
H           -1.50061216188873        2.45684121704119       -0.85240733639762

 projected vibrational frequencies (cm⁻¹)
eigval :       -0.00    -0.00    -0.00     0.00     0.00     0.00
eigval :       31.25    32.02    54.53    58.21    67.89    86.60
eigval :       94.51   113.73   115.77   127.83   129.24   151.97
eigval :      180.72   197.67   206.21   220.94   234.47   246.71
eigval :      255.35   272.41   277.73   284.93   293.91   306.59
eigval :      322.43   323.73   330.34   333.97   340.92   344.23
eigval :      351.07   364.87   367.83   390.67   395.59   402.22
eigval :      414.25   418.40   428.55   438.23   458.07   477.77
eigval :      484.88   496.58   500.27   510.96   521.95   532.68
eigval :      546.89   556.77   571.19   579.81   588.99   602.86
eigval :      609.93   630.59   635.92   648.67   688.92   698.99
eigval :      713.69   725.08   731.14   740.64   750.25   753.61
eigval :      770.26   786.81   790.72   800.07   810.16   823.50
eigval :      832.41   837.58   846.84   848.61   864.06   866.37
eigval :      871.03   894.45   912.23   913.45   919.15   921.82
eigval :      925.06   940.42   943.86   950.50   970.08   976.74
eigval :      983.52   997.16  1002.17  1018.02  1023.86  1032.07
eigval :     1041.20  1049.13  1060.48  1079.66  1092.54  1094.44
eigval :     1107.92  1116.11  1123.61  1145.52  1149.13  1152.98
eigval :     1157.35  1162.64  1165.11  1180.43  1184.49  1186.08
eigval :     1193.91  1201.33  1213.84  1215.32  1226.62  1233.98
eigval :     1240.76  1246.69  1255.82  1270.39  1275.56  1285.74
eigval :     1297.30  1303.11  1322.90  1324.56  1326.78  1351.11
eigval :     1361.04  1367.33  1373.40  1385.74  1404.12  1406.72
eigval :     1420.25  1424.82  1439.45  1449.08  1452.56  1453.53
eigval :     1465.36  1493.04  1505.18  1506.91  1509.11  1516.46
eigval :     1521.93  1544.89  1576.24  1592.05  1654.44  1661.68
eigval :     1673.71  1691.18  1692.50  2853.18  2936.72  2947.01
eigval :     2960.57  2967.82  2997.10  2997.90  3017.06  3021.11
eigval :     3034.74  3037.73  3040.90  3049.32  3052.48  3055.38
eigval :     3057.98  3068.70  3070.47  3070.91  3071.65  3072.78
eigval :     3074.97  3083.64  3094.45  3111.00  3169.63  3414.12

   temp. (K)  partition function   enthalpy   heat capacity  entropy
                                   cal/mol     cal/K/mol   cal/K/mol   J/K/mol
 298.15  VIB  0.178E+11            17034.381    117.677     99.792
         ROT  0.245E+08              888.752      2.981     36.796
         INT  0.438E+18            17923.133    120.658    136.587
         TR   0.107E+29             1481.254      4.968     44.481
         TOT                       19404.3868   125.6258   181.0686   757.5912

       T/K    H(0)-H(T)+PV         H(T)/Eh          T*S/Eh         G(T)/Eh
   ------------------------------------------------------------------------
    298.15    0.309229E-01    0.529261E+00    0.860315E-01    0.443230E+00
   ------------------------------------------------------------------------

         :::::::::::::::::::::::::::::::::::::::::::::::::::::
         ::                  THERMODYNAMIC                  ::
         :::::::::::::::::::::::::::::::::::::::::::::::::::::
         :: total free energy         -96.143877106724 Eh   ::
         ::.................................................::
         :: total energy              -96.587106641637 Eh   ::
         :: zero point energy           0.498338226050 Eh   ::
         :: G(RRHO) w/o ZPVE           -0.055108691138 Eh   ::
         :: G(RRHO) contrib.            0.443229534912 Eh   ::
         :::::::::::::::::::::::::::::::::::::::::::::::::::::

           -------------------------------------------------
          | TOTAL ENERGY              -96.587106641637 Eh   |
          | TOTAL ENTHALPY            -96.057845556896 Eh   |
          | TOTAL FREE ENERGY         -96.143877106724 Eh   |
          | GRADIENT NORM               0.000050748663 Eh/α |
           -------------------------------------------------

 * finished run on 2025/07/17 at 00:19:36.985
