   * xtb version 6.7.1 (edcfbbe) compiled by 'albert@albert-system' on 2024-07-22

   ID    Z sym.   atoms
    1    6 C      1-9, 11-16, 18-30, 32-37
    2    7 N      10
    3    8 O      17
    4   16 S      31
    5    1 H      38-64

          program call               : xtb data2507/gas/DBT-BZ-DMAC/DBT-BZ-DMAC_gas_S0_crest.xyz --gfn 2 --ohess vtight --parallel 40 --molden --ceasefiles --namespace data2507/gas/DBT-BZ-DMAC/DBT-BZ-DMAC_gas_S0_finalOpt
          :  Hamiltonian                  GFN2-xTB          :
 * total energy  :   -96.6470893 Eh     change       -0.1094435E-08 Eh
 * total energy  :   -96.6470912 Eh     change       -0.1943151E-05 Eh
 * total energy  :   -96.6470935 Eh     change       -0.2297712E-05 Eh
 * total energy  :   -96.6470972 Eh     change       -0.3709107E-05 Eh
 * total energy  :   -96.6471020 Eh     change       -0.4718184E-05 Eh
 * total energy  :   -96.6471065 Eh     change       -0.4514620E-05 Eh
 * total energy  :   -96.6471100 Eh     change       -0.3570611E-05 Eh
 * total energy  :   -96.6471124 Eh     change       -0.2343459E-05 Eh
 * total energy  :   -96.6471139 Eh     change       -0.1545731E-05 Eh
 * total energy  :   -96.6471151 Eh     change       -0.1211993E-05 Eh
 * total energy  :   -96.6471202 Eh     change       -0.1245084E-05 Eh
 * total energy  :   -96.6471212 Eh     change       -0.1018897E-05 Eh
 * total energy  :   -96.6471219 Eh     change       -0.7243305E-06 Eh
 * total energy  :   -96.6471224 Eh     change       -0.4729694E-06 Eh
 * total energy  :   -96.6471227 Eh     change       -0.3033354E-06 Eh
 * total energy  :   -96.6471229 Eh     change       -0.2046092E-06 Eh
 * total energy  :   -96.6471230 Eh     change       -0.1544837E-06 Eh
 * total energy  :   -96.6471232 Eh     change       -0.1289007E-06 Eh
 * total energy  :   -96.6471232 Eh     change       -0.2200935E-08 Eh
   *** GEOMETRY OPTIMIZATION CONVERGED AFTER 22 ITERATIONS ***

 final structure:
================
64
 xtb: 6.7.1 (edcfbbe)
C           -0.76116837903532        1.70868564692641        2.29844146981756
C           -1.35823309731213        0.72849779223629        1.27792577881425
C           -1.75606564185985       -0.53349367831572        2.04913757040470
C           -3.59763292048638        0.77853868654187       -0.17186909040700
C           -4.86199482885677        1.50584657305619        0.15793870444960
C           -6.03639788889354        0.64241386054286       -0.10984827760833
C           -5.92215651666425       -0.64692527937454       -0.41759070281076
C           -4.63624784103612       -1.42368109531648       -0.59917235377060
C           -2.37761522293880       -0.59441300047956       -1.59013770640706
N           -1.63268228789308       -1.74888659885883       -1.89204907295878
C           -0.65241169826943       -2.05462823559095       -0.95046083086675
C           -0.26649673995007       -3.40269952739535       -0.93350702533201
C            0.58481712147556       -3.92163582133619        0.01317919013505
C            1.08876801523564       -3.07637037426542        0.97949857314094
C            0.80581305657316       -1.71568658658268        0.91767314754523
C            1.50122777585708       -0.88668019676236        1.93248999812257
O            1.64485831832191       -1.22800251886995        3.08429746444002
C            4.09829533941032        1.12748571629841        0.08798356082284
C            5.28954713920456        0.89274028532138       -0.70622964659005
C            5.42827357188156       -0.08543430065070       -1.62375591037437
C            4.44517709329060       -1.10095328910452       -1.88438427350082
C            3.67591864083703       -1.63313282559022       -0.92856397276595
C            3.91463046714204       -1.27174170072184        0.50165051383175
C           -0.06077043800713       -1.15183057648010       -0.03438281913483
C            3.73275884249064        2.53346048509921        0.17667324463351
C            3.36641993658545        0.11948986069323        0.61709429042292
C            2.07612791450425        0.39092217862406        1.37269639639502
C            1.08003232418193        0.98850699562562        0.42663917525635
C            1.34270061148375        2.15408988454858       -0.18334737072192
C            2.49116385795473        3.00146560844253        0.00617897530714
S            0.11265817776372        2.62878403687062       -1.35728965287461
C           -0.69429968925765        1.08029085919793       -1.13068967239578
C           -1.66680819421008        0.65662006535521       -1.91653224547378
C           -3.49061622324054       -0.48908354253598       -0.85008140437860
C           -3.96906934399033        1.03258923131952        1.26993620845970
C           -2.61896540144755        1.44894243032744        0.73924417318917
C           -0.26705259274034        0.36173139919613        0.12025404756486
H           -1.54331437254175        2.00340829416295        2.99620324827032
H            0.03855700719415        1.24829601248856        2.87092196177732
H           -0.38315061665752        2.60899035113270        1.82034676314982
H           -2.26641243601311       -1.25144544395990        1.41215114818441
H           -0.88755441518375       -1.01724548680019        2.48307319790044
H           -2.40683276645965       -0.26444777337296        2.87704560284273
H           -4.96562228436924        2.56867204669760       -0.03537330473006
H           -7.01536475791631        1.09484721550944       -0.03819128973509
H           -6.81835508885282       -1.23414725798785       -0.56964523373476
H           -4.75266886405962       -2.12216749093904       -1.43283810188762
H           -2.14803994540775       -2.55987091759595       -2.21026993318180
H           -0.70107571879502       -4.05790913767999       -1.67640375592887
H            0.82854309811657       -4.97284599630281        0.01319098944874
H            1.71507958842913       -3.44672773700348        1.77663571504911
H            6.03806362305102        1.67457429053005       -0.66879890581304
H            6.28597838368408       -0.05757434559887       -2.28380107434974
H            4.34185706024792       -1.42523970071914       -2.91104620216082
H            2.87684657585576       -2.32184699630902       -1.16048321010589
H            3.44986812515778       -1.96933727236287        1.19064025660814
H            4.55436415114692        3.23366760024070        0.24920957037862
H            4.99205682992601       -1.24309734728827        0.69498820637736
H            2.31094541391880        1.08811553497055        2.19053584228334
H            2.31134633612099        4.06555902260376       -0.06321816229425
H           -2.00184888045790        1.21513511457188       -2.77676781413817
H           -4.46330980552089       -2.03050347048416        0.30076894183953
H           -4.24238710659960        0.36489661954719        2.05757917176868
H           -2.45128752471624        2.51345157565801        0.58233145220366

          :  Hamiltonian                  GFN2-xTB          :
         :: gradient norm              0.000028148352 Eh/a0 ::
         :: HOMO-LUMO gap              2.128425029860 eV    ::
         :: SCC energy               -98.235822329389 Eh    ::
         :: -> dispersion             -0.105285043642 Eh    ::
         :: repulsion energy           1.588699158509 Eh    ::

    * Orbital Energies and Occupations

         #    Occupation            Energy/Eh            Energy/eV
      -------------------------------------------------------------
         1        2.0000           -0.7174303             -19.5223
       ...           ...                  ...                  ...
        78        2.0000           -0.4239581             -11.5365
        79        2.0000           -0.4225951             -11.4994
        80        2.0000           -0.4166959             -11.3389
        81        2.0000           -0.4108871             -11.1808
        82        2.0000           -0.4080466             -11.1035
        83        2.0000           -0.4069917             -11.0748
        84        2.0000           -0.3904770             -10.6254
        85        2.0000           -0.3860954             -10.5062
        86        2.0000           -0.3833553             -10.4316
        87        2.0000           -0.3749839             -10.2038
        88        2.0000           -0.3708812             -10.0922
        89        2.0000           -0.3555215              -9.6742
        90        2.0000           -0.3517721              -9.5722 (HOMO)
        91                         -0.2735540              -7.4438 (LUMO)
        92                         -0.2605749              -7.0906
        93                         -0.2432102              -6.6181
        94                         -0.2358023              -6.4165
        95                         -0.2266827              -6.1684
        96                         -0.2161809              -5.8826
        97                         -0.2138206              -5.8184
        98                         -0.2079665              -5.6591
        99                         -0.2064496              -5.6178
       100                         -0.1940854              -5.2813
       101                         -0.1643290              -4.4716
       ...                                ...                  ...
       180                          0.6861841              18.6720
      -------------------------------------------------------------
                  HL-Gap            0.0782182 Eh            2.1284 eV

     #   Z          covCN         q      C6AA      α(0)
     1   6 C        3.766    -0.105    22.541     6.767
     2   6 C        3.881     0.020    20.198     6.390
     3   6 C        3.759    -0.102    22.500     6.762
     4   6 C        3.970     0.001    20.492     6.432
     5   6 C        3.909    -0.011    20.709     6.468
     6   6 C        2.898    -0.042    29.033     8.835
     7   6 C        2.894    -0.039    28.961     8.823
     8   6 C        3.809    -0.047    21.414     6.587
     9   6 C        2.957     0.044    27.020     8.526
    10   7 N        2.700    -0.186    25.024     7.429
    11   6 C        2.929     0.073    26.357     8.419
    12   6 C        2.935    -0.056    29.391     8.891
    13   6 C        2.914    -0.031    28.767     8.795
    14   6 C        2.931    -0.035    28.876     8.813
    15   6 C        2.985    -0.017    28.426     8.746
    16   6 C        2.838     0.244    22.916     7.845
    17   8 O        0.857    -0.374    21.160     6.167
    18   6 C        2.963    -0.000    28.030     8.684
    19   6 C        2.910    -0.036    28.906     8.816
    20   6 C        2.900    -0.033    28.810     8.801
    21   6 C        2.901    -0.040    28.982     8.827
    22   6 C        2.922    -0.028    28.704     8.786
    23   6 C        3.821    -0.058    21.596     6.613
    24   6 C        2.964    -0.010    28.266     8.721
    25   6 C        2.910    -0.034    28.853     8.808
    26   6 C        2.986     0.010    27.789     8.647
    27   6 C        3.868    -0.033    21.126     6.536
    28   6 C        3.117    -0.016    28.247     8.705
    29   6 C        2.964     0.036    27.196     8.554
    30   6 C        2.929    -0.043    29.067     8.842
    31  16 S        2.207    -0.140   146.963    20.404
    32   6 C        2.979     0.042    27.059     8.533
    33   6 C        2.966    -0.061    29.510     8.910
    34   6 C        2.961    -0.022    28.551     8.764
    35   6 C        3.860    -0.042    21.280     6.560
    36   6 C        3.909    -0.016    20.802     6.483
    37   6 C        3.952     0.013    20.290     6.401
    38   1 H        0.925     0.043     2.406     2.426
    39   1 H        0.925     0.042     2.420     2.433
    40   1 H        0.925     0.037     2.491     2.468
    41   1 H        0.925     0.030     2.590     2.517
    42   1 H        0.925     0.047     2.364     2.404
    43   1 H        0.925     0.041     2.429     2.437
    44   1 H        0.925     0.032     2.562     2.503
    45   1 H        0.926     0.031     2.577     2.510
    46   1 H        0.925     0.027     2.627     2.535
    47   1 H        0.924     0.037     2.496     2.471
    48   1 H        0.860     0.154     1.374     1.836
    49   1 H        0.925     0.030     2.588     2.516
    50   1 H        0.926     0.037     2.490     2.468
    51   1 H        0.926     0.044     2.402     2.424
    52   1 H        0.925     0.035     2.523     2.484
    53   1 H        0.925     0.033     2.545     2.495
    54   1 H        0.925     0.036     2.506     2.475
    55   1 H        0.926     0.029     2.603     2.523
    56   1 H        0.925     0.043     2.405     2.425
    57   1 H        0.925     0.043     2.415     2.430
    58   1 H        0.924     0.054     2.276     2.359
    59   1 H        0.923     0.060     2.196     2.317
    60   1 H        0.925     0.045     2.387     2.416
    61   1 H        0.926     0.048     2.341     2.392
    62   1 H        0.923     0.045     2.386     2.415
    63   1 H        0.927     0.039     2.464     2.454
    64   1 H        0.925     0.035     2.519     2.482

molecular dipole:
                 x           y           z       tot (Debye)
 q only:       -0.479      -0.233      -0.668
   full:       -0.721      -0.667      -0.669       3.021

 projected vibrational frequencies (cm⁻¹)
eigval :       -0.00    -0.00    -0.00    -0.00     0.00     0.00
eigval :       25.13    36.30    51.47    71.08    88.06    89.66
eigval :       98.65   120.11   121.50   136.77   153.99   171.72
eigval :      184.84   191.72   211.15   231.17   237.22   249.90
eigval :      282.87   284.20   293.61   297.93   303.04   314.87
eigval :      321.13   334.72   343.98   345.31   350.93   367.55
eigval :      374.06   394.22   400.94   404.37   413.99   420.72
eigval :      423.37   444.17   458.49   472.63   480.50   490.90
eigval :      494.29   503.87   506.46   526.25   532.17   535.97
eigval :      553.96   561.87   573.99   582.66   603.91   610.30
eigval :      628.66   643.83   655.42   688.03   690.82   714.49
eigval :      724.38   732.96   740.45   747.03   756.56   768.75
eigval :      785.75   798.70   802.60   804.80   821.96   834.30
eigval :      842.99   856.96   863.29   868.09   882.46   893.62
eigval :      894.18   905.98   913.42   916.54   919.33   919.68
eigval :      934.28   942.16   957.45   958.80   972.20   979.84
eigval :      993.93  1003.00  1010.50  1018.29  1020.12  1023.98
eigval :     1051.84  1055.78  1068.76  1085.65  1098.04  1108.94
eigval :     1118.38  1129.32  1140.31  1144.59  1153.80  1156.49
eigval :     1167.56  1170.38  1182.08  1185.87  1190.79  1194.17
eigval :     1195.79  1203.37  1211.77  1214.86  1218.65  1228.31
eigval :     1240.08  1242.43  1243.23  1247.46  1255.59  1264.56
eigval :     1275.81  1283.34  1299.90  1322.00  1323.88  1325.34
eigval :     1343.84  1351.94  1362.34  1372.53  1403.23  1405.77
eigval :     1424.87  1425.28  1446.67  1449.96  1462.41  1493.28
eigval :     1505.74  1511.62  1521.56  1527.57  1558.50  1564.67
eigval :     1579.59  1608.85  1631.78  1646.99  1654.33  1674.80
eigval :     1690.70  1709.98  1737.41  2864.23  2873.35  2931.94
eigval :     2957.14  2960.89  2997.00  3020.93  3037.44  3040.38
eigval :     3040.96  3041.62  3052.51  3053.03  3055.22  3058.98
eigval :     3060.12  3062.49  3063.11  3069.15  3073.69  3078.52
eigval :     3081.24  3085.78  3088.89  3099.43  3178.02  3383.69

   temp. (K)  partition function   enthalpy   heat capacity  entropy
                                   cal/mol     cal/K/mol   cal/K/mol   J/K/mol
 298.15  VIB  0.540E+10            16496.880    115.929     95.822
         ROT  0.213E+08              888.752      2.981     36.514
         INT  0.115E+18            17385.632    118.910    132.336
         TR   0.107E+29             1481.254      4.968     44.481
         TOT                       18866.8862   123.8777   176.8176   739.8047

       T/K    H(0)-H(T)+PV         H(T)/Eh          T*S/Eh         G(T)/Eh
   ------------------------------------------------------------------------
    298.15    0.300663E-01    0.531902E+00    0.840117E-01    0.447890E+00
   ------------------------------------------------------------------------

         :::::::::::::::::::::::::::::::::::::::::::::::::::::
         ::                  THERMODYNAMIC                  ::
         :::::::::::::::::::::::::::::::::::::::::::::::::::::
         :: total free energy         -96.199233281355 Eh   ::
         ::.................................................::
         :: total energy              -96.647123170878 Eh   ::
         :: zero point energy           0.501835329217 Eh   ::
         :: G(RRHO) w/o ZPVE           -0.053945439695 Eh   ::
         :: G(RRHO) contrib.            0.447889889523 Eh   ::
         :::::::::::::::::::::::::::::::::::::::::::::::::::::

           -------------------------------------------------
          | TOTAL ENERGY              -96.647123170878 Eh   |
          | TOTAL ENTHALPY            -96.115221544693 Eh   |
          | TOTAL FREE ENERGY         -96.199233281355 Eh   |
          | GRADIENT NORM               0.000028172973 Eh/α |
          | HOMO-LUMO GAP               2.128424370443 eV   |
           -------------------------------------------------

 * finished run on 2025/07/17 at 00:08:03.068
