   * xtb version 6.7.1 (edcfbbe) compiled by 'albert@albert-system' on 2024-07-22

   ID    Z sym.   atoms
    1    8 O      1
    2   15 P      2
    3    6 C      3-15, 17-23, 25, 27-38
    4    7 N      16, 24, 26, 39
    5    1 H      40-62

          program call               : xtb data2507/gas/PhCzSPOTz/PhCzSPOTz_gas_T1_crest.xyz --gfn 2 --spinpol --tblite --uhf 2 --ohess vtight --parallel 40 --molden --ceasefiles --namespace data2507/gas/PhCzSPOTz/PhCzSPOTz_gas_T1_finalOpt
 * total energy  :  -100.6811756 Eh     change       -0.2593950E-08 Eh
 * total energy  :  -100.6812372 Eh     change       -0.6163954E-04 Eh
 * total energy  :  -100.6813073 Eh     change       -0.7011952E-04 Eh
 * total energy  :  -100.6813287 Eh     change       -0.2135805E-04 Eh
 * total energy  :  -100.6813556 Eh     change       -0.2690534E-04 Eh
 * total energy  :  -100.6813622 Eh     change       -0.6595135E-05 Eh
 * total energy  :  -100.6813655 Eh     change       -0.3341652E-05 Eh
 * total energy  :  -100.6813673 Eh     change       -0.1756837E-05 Eh
 * total energy  :  -100.6813694 Eh     change       -0.2152878E-05 Eh
 * total energy  :  -100.6813713 Eh     change       -0.1893738E-05 Eh
 * total energy  :  -100.6813803 Eh     change       -0.2432761E-05 Eh
 * total energy  :  -100.6813823 Eh     change       -0.1974690E-05 Eh
 * total energy  :  -100.6813838 Eh     change       -0.1465695E-05 Eh
 * total energy  :  -100.6813849 Eh     change       -0.1134744E-05 Eh
 * total energy  :  -100.6813859 Eh     change       -0.9658271E-06 Eh
 * total energy  :  -100.6813867 Eh     change       -0.8686647E-06 Eh
 * total energy  :  -100.6813876 Eh     change       -0.8511973E-06 Eh
 * total energy  :  -100.6813885 Eh     change       -0.8909500E-06 Eh
 * total energy  :  -100.6813885 Eh     change       -0.8748543E-08 Eh
   *** GEOMETRY OPTIMIZATION CONVERGED AFTER 22 ITERATIONS ***

 final structure:
================
62
 xtb: 6.7.1 (edcfbbe)
O            2.10553151443339       -1.58371900909716        2.44461495795660
P            2.13101324073334       -1.41348191825876        0.98756429771161
C            3.74554619293060       -0.89377493201460        0.33145814188201
C            4.29839948043182        0.23545111366808        0.92062196115210
C            5.53429624155284        0.69221300582888        0.50357744180540
C            6.21759778793090        0.01465428342137       -0.49491559271091
C            5.66951787486883       -1.11966211277595       -1.07003716402430
C            4.42824505489774       -1.57847413606904       -0.66124935873413
C            1.49319452160560       -2.82178486276028        0.04387101194003
C            1.28949051820693       -2.74105633843690       -1.32896765139083
C            0.73345265735452       -3.81489543972115       -1.99877723324462
C            0.37915841881606       -4.96046780460625       -1.30121449982167
C            0.57932052133610       -5.03681154691845        0.06759179293553
C            1.13493869692504       -3.96452748434927        0.74375721982136
C            0.99971300835208       -0.05255949292263        0.47760551589324
N            1.47442926049668        1.11705633969903        0.28407996671621
C            0.56914345502390        2.11851456491537        0.01668484315715
C            1.01406809189577        3.43688621517747       -0.21910810442165
C            2.38474664096919        3.75286726102902       -0.12898701476037
C            2.82227895809160        5.03667283059942       -0.35013383208153
C            1.92011747576615        6.04576028466547       -0.66934991120782
C            0.56736372633362        5.74634822787338       -0.77191522127369
C            0.11199860752499        4.46736877070786       -0.55411083676377
N           -0.74532528802313        1.74896903323715       -0.03505482109916
C           -1.14328118683332        0.53182486474374        0.16264264244933
N           -2.46184172443044        0.20553492707273        0.09749122677406
C           -3.00360968627537       -1.07799718861835       -0.00431433075699
C           -2.37493713900019       -2.30911155428592       -0.08264367368422
C           -3.17057668979226       -3.43511596788095       -0.20657191968822
C           -4.55731192165345       -3.34515693531793       -0.25766082131513
C           -5.18945605156591       -2.11799661263359       -0.18474352770283
C           -4.41045285344730       -0.97739315894411       -0.05856086727764
C           -4.73664248504821        0.42256379477986        0.03434544608060
C           -5.93535448656751        1.12021553884321        0.04721575307973
C           -5.89849116823062        2.49711465218331        0.16716089094050
C           -4.68832454135526        3.17354740920982        0.28062747628280
C           -3.48188241618076        2.49483371316387        0.27012971859702
C           -3.51468268735469        1.11924013119803        0.13228533020801
N           -0.26222784134633       -0.47092192684389        0.43950943231645
H            3.74722519592109        0.73936564647576        1.70238265616538
H            5.96690895288116        1.57294535097065        0.95465075181486
H            7.18278997996795        0.37071723756433       -0.82362029286445
H            6.20882603314938       -1.64994565472642       -1.84126474028602
H            3.99883734548164       -2.46522795332465       -1.10598412853986
H            1.55666491050207       -1.83659381737748       -1.85866757710378
H            0.56873682754287       -3.75886222739036       -3.06472212067086
H           -0.05955667080407       -5.79416049192025       -1.82958100006767
H            0.29779933596878       -5.92849917106272        0.60797826089722
H            1.29224357280056       -3.98944245131004        1.81223820500798
H            3.07748397924739        2.96149432972616        0.11476452659908
H            3.87610934534898        5.26516671565248       -0.27607169073816
H            2.26886136318568        7.05299800026558       -0.84028641270654
H           -0.13597208225422        6.52650819160071       -1.02755813159099
H           -0.93706313120247        4.23205744800827       -0.64852312600577
H           -1.30280634314851       -2.39147344400569       -0.03878506900455
H           -2.69679718178871       -4.40364347294572       -0.26589694810814
H           -5.14500464445034       -4.24558715428456       -0.35653639288675
H           -6.26535685355563       -2.04315995321310       -0.22611869174222
H           -6.87470997994274        0.59470768449943       -0.03174214203724
H           -6.82085117272427        3.05813959528264        0.18216366938790
H           -4.68856995975580        4.24787367721346        0.38623518288392
H           -2.54292120454376        3.01462918343872        0.37665808325583

 projected vibrational frequencies (cm⁻¹)
eigval :       -0.00     0.00     0.00     0.00     0.00     0.00
eigval :       10.79    14.29    20.45    27.10    38.56    40.28
eigval :       45.36    47.93    61.97    68.44    73.11    79.27
eigval :       92.13   109.83   129.53   134.71   153.45   171.80
eigval :      178.70   191.99   201.01   204.03   231.15   243.68
eigval :      255.22   271.92   274.65   310.38   325.96   335.68
eigval :      355.65   362.21   367.84   372.82   391.48   405.04
eigval :      416.22   425.33   431.65   446.70   451.05   498.12
eigval :      504.60   513.29   515.97   521.92   537.94   552.29
eigval :      562.14   583.58   584.67   585.10   585.40   609.13
eigval :      630.14   636.39   647.38   655.78   656.47   674.63
eigval :      677.00   685.01   711.87   724.03   738.40   740.13
eigval :      743.00   749.94   765.51   771.33   780.25   817.17
eigval :      843.95   862.71   867.36   870.63   872.76   880.17
eigval :      899.61   902.24   902.85   905.84   908.00   910.15
eigval :      918.84   921.33   923.87   924.62   929.63   932.37
eigval :      934.88   957.26   969.72   974.61   976.32   997.48
eigval :     1015.68  1064.74  1072.11  1073.10  1075.01  1076.62
eigval :     1086.39  1110.44  1113.86  1114.63  1117.57  1124.10
eigval :     1126.01  1142.84  1171.46  1176.55  1177.77  1179.19
eigval :     1179.99  1184.29  1187.39  1190.20  1190.94  1196.04
eigval :     1224.85  1237.74  1252.70  1265.98  1269.55  1272.94
eigval :     1286.05  1292.47  1320.83  1322.55  1330.78  1336.01
eigval :     1350.94  1358.75  1395.39  1414.95  1420.38  1422.18
eigval :     1425.27  1427.70  1449.19  1450.37  1457.02  1468.58
eigval :     1481.40  1504.46  1535.68  1570.81  1575.29  1579.40
eigval :     1581.40  1582.66  1582.98  1587.08  1595.32  1605.09
eigval :     1638.54  3061.58  3066.32  3068.76  3069.02  3069.72
eigval :     3077.94  3079.30  3080.84  3082.63  3082.77  3086.24
eigval :     3087.09  3088.63  3088.93  3090.12  3090.78  3094.30
eigval :     3094.56  3094.92  3095.77  3097.98  3101.53  3135.94

   temp. (K)  partition function   enthalpy   heat capacity  entropy
                                   cal/mol     cal/K/mol   cal/K/mol   J/K/mol
 298.15  VIB  0.114E+16            18820.773    115.954    118.314
         ROT  0.395E+08              888.752      2.981     37.741
         INT  0.451E+23            19709.526    118.935    156.054
         TR   0.116E+29             1481.254      4.968     44.627
         TOT                       21190.7797   123.9033   200.6808   839.6486

       T/K    H(0)-H(T)+PV         H(T)/Eh          T*S/Eh         G(T)/Eh
   ------------------------------------------------------------------------
    298.15    0.337697E-01    0.493324E+00    0.953499E-01    0.397974E+00
   ------------------------------------------------------------------------

         :::::::::::::::::::::::::::::::::::::::::::::::::::::
         ::                  THERMODYNAMIC                  ::
         :::::::::::::::::::::::::::::::::::::::::::::::::::::
         :: total free energy        -100.283414584664 Eh   ::
         ::.................................................::
         :: total energy             -100.681388483943 Eh   ::
         :: zero point energy           0.459554183452 Eh   ::
         :: G(RRHO) w/o ZPVE           -0.061580284173 Eh   ::
         :: G(RRHO) contrib.            0.397973899279 Eh   ::
         :::::::::::::::::::::::::::::::::::::::::::::::::::::

           -------------------------------------------------
          | TOTAL ENERGY             -100.681388483943 Eh   |
          | TOTAL ENTHALPY           -100.188064643521 Eh   |
          | TOTAL FREE ENERGY        -100.283414584664 Eh   |
          | GRADIENT NORM               0.000098605147 Eh/α |
           -------------------------------------------------

 * finished run on 2025/09/13 at 00:38:43.036
