   * xtb version 6.7.1 (edcfbbe) compiled by 'albert@albert-system' on 2024-07-22

   ID    Z sym.   atoms
    1    8 O      1
    2   15 P      2
    3    6 C      3-15, 17-23, 25, 27-38
    4    7 N      16, 24, 26, 39
    5    1 H      40-62

          program call               : xtb data2507/gas/PhCzSPOTz/PhCzSPOTz_gas_S0_crest.xyz --gfn 2 --ohess vtight --parallel 40 --molden --ceasefiles --namespace data2507/gas/PhCzSPOTz/PhCzSPOTz_gas_S0_finalOpt
          :  Hamiltonian                  GFN2-xTB          :
 * total energy  :  -100.7606983 Eh     change       -0.5219931E-09 Eh
 * total energy  :  -100.7606993 Eh     change       -0.9757619E-06 Eh
 * total energy  :  -100.7607002 Eh     change       -0.9860256E-06 Eh
 * total energy  :  -100.7607021 Eh     change       -0.1847138E-05 Eh
 * total energy  :  -100.7607035 Eh     change       -0.1400665E-05 Eh
 * total energy  :  -100.7607045 Eh     change       -0.1018066E-05 Eh
 * total energy  :  -100.7607058 Eh     change       -0.1250371E-05 Eh
 * total energy  :  -100.7607074 Eh     change       -0.1594271E-05 Eh
 * total energy  :  -100.7607087 Eh     change       -0.1316500E-05 Eh
 * total energy  :  -100.7607096 Eh     change       -0.9394402E-06 Eh
 * total energy  :  -100.7607104 Eh     change       -0.7681675E-06 Eh
 * total energy  :  -100.7607109 Eh     change       -0.5103697E-06 Eh
 * total energy  :  -100.7607111 Eh     change       -0.2566309E-06 Eh
 * total energy  :  -100.7607112 Eh     change       -0.5431498E-07 Eh
   *** GEOMETRY OPTIMIZATION CONVERGED AFTER 14 ITERATIONS ***

 final structure:
================
62
 xtb: 6.7.1 (edcfbbe)
O            2.35757503608065       -1.30748359484306        2.38698723711643
P            2.28720771967244       -1.16741949352144        0.92707646896065
C            3.82612458678737       -0.57995672919850        0.16250152435075
C            3.86373795013265        0.08592032795372       -1.05511535958651
C            5.07765243374979        0.50734202855121       -1.56664988858667
C            6.25040291716060        0.26116418497198       -0.87020280213371
C            6.21271629866668       -0.40123658917949        0.34609037126494
C            5.00015549317184       -0.82005620052231        0.86286163754778
C            1.74691325109379       -2.67675329307990        0.07301992938361
C            1.62096133387652       -2.74617165446934       -1.30813896775955
C            1.13692597156934       -3.90172284029934       -1.89275701652469
C            0.78163134690607       -4.98479688371968       -1.10319277490539
C            0.91321789924605       -4.91716151501671        0.27412679219881
C            1.39549106206261       -3.76158564065982        0.86300194738212
C            1.00984562527072        0.05380538169952        0.46149942027991
N            1.35105800749485        1.32030847639091        0.36253802035710
C            0.33319915292991        2.15978179018788        0.14018165997148
C            0.65128402795811        3.57341575824032       -0.04298839404794
C            1.94392877876386        4.02566249659113        0.22048064840720
C            2.25501486008216        5.36068074313989        0.05138358736359
C            1.28577046404078        6.25146009505846       -0.38393533762115
C            0.00169458138852        5.80435941535860       -0.65501885860200
C           -0.31821565290564        4.47124435314812       -0.48673130000025
N           -0.93408660019854        1.77855020062685        0.06432340820991
C           -1.17441010274598        0.47377956995964        0.19953672245439
N           -2.45867011019332        0.03718428995563        0.13050115234562
C           -2.86756173990362       -1.29864635572357        0.01467625059398
C           -2.12193013158907       -2.46483569796014       -0.01768979358729
C           -2.79959919846062       -3.66369759752769       -0.16589388773652
C           -4.18375864506284       -3.71085049728534       -0.27970974109661
C           -4.93266404606381       -2.54943873919065       -0.24870958133174
C           -4.27199337404701       -1.33926019132382       -0.10158571415517
C           -4.74134433355482        0.02101051302592       -0.03100292334683
C           -6.01102249470951        0.57735778311004       -0.06538847105926
C           -6.13458262499638        1.94857529328171        0.05717258949155
C           -5.01098835332527        2.74936664353593        0.22432210207367
C           -3.73504384531071        2.21154401725270        0.25927327191692
C           -3.60462598014778        0.84106065731018        0.11598602667359
N           -0.20862459622206       -0.43548899305917        0.37898556242798
H            2.94761458102919        0.29343064479773       -1.58862971951749
H            5.11048213520289        1.03305286275339       -2.51005307906352
H            7.19537222226911        0.59319133394895       -1.27490226641196
H            7.12699308430466       -0.58658567970900        0.89055695296396
H            4.93980630447582       -1.32533462032916        1.81611259164811
H            1.89870671012461       -1.89883821678675       -1.91825258583892
H            1.03251303279935       -3.95978013434155       -2.96645872531745
H            0.40145145728228       -5.88376469440088       -1.56641615630671
H            0.63695822892969       -5.76228302045239        0.88765266260959
H            1.50235487348958       -3.67635191907200        1.93466001087039
H            2.68305280790693        3.31604942241317        0.55878556860352
H            3.25535630878998        5.71069607601211        0.25905743549051
H            1.53170093516025        7.29513599796486       -0.51465098441592
H           -0.75008955397435        6.49907119933266       -0.99971699841384
H           -1.30974333734950        4.10793789711663       -0.70681699063869
H           -1.05085126034737       -2.44747789165440        0.07722389953138
H           -2.23044297505548       -4.58092371721266       -0.19090357442763
H           -4.67725285233811       -4.66480232783458       -0.39166214094974
H           -6.00804800110032       -2.57764768456194       -0.33647531838008
H           -6.88052600301423       -0.05165007194068       -0.17999645000680
H           -7.11333476556883        2.40394575798101        0.03211754627672
H           -5.13311371500520        3.81671067655863        0.33382189556901
H           -2.87145222797915        2.83681234124728        0.40360720313382

          :  Hamiltonian                  GFN2-xTB          :
         :: gradient norm              0.000190010194 Eh/a0 ::
         :: HOMO-LUMO gap              2.232607069591 eV    ::
         :: SCC energy              -102.536186555515 Eh    ::
         :: -> dispersion             -0.089824963908 Eh    ::
         :: repulsion energy           1.775475355634 Eh    ::

    * Orbital Energies and Occupations

         #    Occupation            Energy/Eh            Energy/eV
      -------------------------------------------------------------
         1        2.0000           -0.7013416             -19.0845
       ...           ...                  ...                  ...
        81        2.0000           -0.4233634             -11.5203
        82        2.0000           -0.4166793             -11.3384
        83        2.0000           -0.4152444             -11.2994
        84        2.0000           -0.4149663             -11.2918
        85        2.0000           -0.4141236             -11.2689
        86        2.0000           -0.4138324             -11.2610
        87        2.0000           -0.4127613             -11.2318
        88        2.0000           -0.4123805             -11.2214
        89        2.0000           -0.4018497             -10.9349
        90        2.0000           -0.3870973             -10.5335
        91        2.0000           -0.3866172             -10.5204
        92        2.0000           -0.3832321             -10.4283
        93        2.0000           -0.3736078             -10.1664 (HOMO)
        94                         -0.2915610              -7.9338 (LUMO)
        95                         -0.2756551              -7.5010
        96                         -0.2533425              -6.8938
        97                         -0.2504791              -6.8159
        98                         -0.2396898              -6.5223
        99                         -0.2336838              -6.3589
       100                         -0.2332628              -6.3474
       101                         -0.2325182              -6.3271
       102                         -0.2289560              -6.2302
       103                         -0.2235875              -6.0841
       104                         -0.1948907              -5.3032
       ...                                ...                  ...
       184                          1.2095000              32.9122
      -------------------------------------------------------------
                  HL-Gap            0.0820468 Eh            2.2326 eV

     #   Z          covCN         q      C6AA      α(0)
     1   8 O        0.808    -0.342    20.574     6.080
     2  15 P        4.128     0.071   157.122    22.517
     3   6 C        2.921     0.020    27.553     8.608
     4   6 C        2.975    -0.018    28.452     8.750
     5   6 C        2.920    -0.026    28.663     8.779
     6   6 C        2.921    -0.024    28.609     8.771
     7   6 C        2.919    -0.026    28.653     8.778
     8   6 C        3.034    -0.018    28.424     8.745
     9   6 C        2.922     0.018    27.605     8.616
    10   6 C        2.980    -0.022    28.559     8.766
    11   6 C        2.920    -0.026    28.658     8.779
    12   6 C        2.921    -0.024    28.602     8.770
    13   6 C        2.919    -0.026    28.641     8.776
    14   6 C        3.027    -0.017    28.401     8.742
    15   6 C        2.951     0.212    23.523     7.955
    16   7 N        1.916    -0.287    28.288     7.886
    17   6 C        2.995     0.207    23.621     7.972
    18   6 C        2.984     0.002    27.984     8.677
    19   6 C        2.924    -0.021    28.525     8.759
    20   6 C        2.918    -0.026    28.641     8.776
    21   6 C        2.920    -0.022    28.545     8.761
    22   6 C        2.918    -0.027    28.668     8.780
    23   6 C        2.923    -0.023    28.572     8.766
    24   7 N        1.846    -0.305    28.743     7.946
    25   6 C        2.925     0.259    22.650     7.805
    26   7 N        2.805    -0.033    21.873     6.946
    27   6 C        3.049     0.054    26.747     8.482
    28   6 C        2.911    -0.043    29.066     8.841
    29   6 C        2.925    -0.030    28.745     8.792
    30   6 C        2.920    -0.034    28.857     8.809
    31   6 C        2.913    -0.032    28.795     8.799
    32   6 C        3.063    -0.009    28.171     8.704
    33   6 C        3.061    -0.008    28.164     8.703
    34   6 C        2.914    -0.032    28.786     8.798
    35   6 C        2.920    -0.035    28.869     8.811
    36   6 C        2.925    -0.031    28.768     8.796
    37   6 C        2.911    -0.044    29.091     8.844
    38   6 C        3.050     0.053    26.757     8.484
    39   7 N        1.961    -0.298    28.553     7.924
    40   1 H        0.926     0.037     2.484     2.465
    41   1 H        0.926     0.037     2.485     2.465
    42   1 H        0.926     0.039     2.466     2.456
    43   1 H        0.926     0.041     2.437     2.441
    44   1 H        0.926     0.062     2.174     2.306
    45   1 H        0.926     0.037     2.492     2.469
    46   1 H        0.926     0.037     2.492     2.469
    47   1 H        0.926     0.038     2.479     2.462
    48   1 H        0.926     0.041     2.441     2.443
    49   1 H        0.926     0.067     2.117     2.275
    50   1 H        0.926     0.061     2.190     2.314
    51   1 H        0.926     0.041     2.439     2.442
    52   1 H        0.926     0.040     2.447     2.446
    53   1 H        0.926     0.040     2.451     2.448
    54   1 H        0.926     0.055     2.264     2.353
    55   1 H        0.926     0.060     2.201     2.320
    56   1 H        0.926     0.036     2.503     2.474
    57   1 H        0.926     0.036     2.505     2.475
    58   1 H        0.926     0.038     2.478     2.461
    59   1 H        0.926     0.038     2.480     2.463
    60   1 H        0.926     0.036     2.507     2.476
    61   1 H        0.926     0.037     2.483     2.464
    62   1 H        0.926     0.059     2.209     2.324

molecular dipole:
                 x           y           z       tot (Debye)
 q only:       -0.330       0.343      -1.516
   full:       -0.251       0.411      -1.726       4.555

 projected vibrational frequencies (cm⁻¹)
eigval :       -0.00    -0.00    -0.00     0.00     0.00     0.00
eigval :        7.97    13.99    21.33    24.79    29.91    32.76
eigval :       39.22    43.91    54.19    65.42    76.27    83.49
eigval :       94.74   126.86   135.87   139.81   149.51   153.91
eigval :      178.86   197.18   202.83   212.20   222.92   236.36
eigval :      262.83   275.47   285.65   321.84   354.01   356.27
eigval :      361.19   362.30   365.48   366.24   391.30   414.67
eigval :      418.36   427.72   433.72   436.31   469.52   513.18
eigval :      516.21   522.96   538.58   539.59   585.18   586.04
eigval :      586.92   587.40   592.05   614.06   621.90   638.30
eigval :      653.60   655.60   658.07   672.60   678.65   688.56
eigval :      714.19   720.01   738.13   744.05   752.71   755.65
eigval :      774.82   783.86   785.94   794.43   841.77   874.18
eigval :      874.54   876.14   877.40   879.59   899.90   902.05
eigval :      904.77   906.47   908.03   914.31   924.79   924.94
eigval :      925.97   926.25   932.36   933.58   933.97   934.99
eigval :      972.81   976.15   978.18  1015.46  1016.83  1048.30
eigval :     1070.00  1075.58  1076.49  1078.36  1079.18  1109.91
eigval :     1112.34  1116.28  1117.64  1124.67  1127.56  1146.14
eigval :     1159.68  1177.75  1177.97  1180.63  1180.71  1180.98
eigval :     1187.74  1188.56  1193.50  1211.56  1223.40  1233.55
eigval :     1255.18  1258.23  1266.07  1268.30  1272.62  1277.50
eigval :     1296.74  1322.48  1322.86  1323.52  1336.62  1350.03
eigval :     1359.59  1378.88  1410.50  1420.94  1424.31  1426.00
eigval :     1432.27  1452.47  1454.16  1457.63  1468.36  1478.02
eigval :     1482.42  1499.17  1547.04  1582.17  1583.27  1583.86
eigval :     1584.66  1586.33  1587.53  1590.83  1594.45  1598.23
eigval :     1609.93  3069.92  3072.05  3075.00  3075.80  3076.86
eigval :     3079.12  3080.34  3080.76  3080.96  3083.53  3085.31
eigval :     3086.95  3088.19  3089.92  3091.44  3091.90  3092.20
eigval :     3096.70  3098.43  3105.70  3106.55  3137.00  3148.98

   temp. (K)  partition function   enthalpy   heat capacity  entropy
                                   cal/mol     cal/K/mol   cal/K/mol   J/K/mol
 298.15  VIB  0.216E+16            18490.976    112.747    116.643
         ROT  0.398E+08              888.752      2.981     37.757
         INT  0.861E+23            19379.729    115.728    154.401
         TR   0.116E+29             1481.254      4.968     44.627
         TOT                       20860.9826   120.6959   199.0272   832.7296

       T/K    H(0)-H(T)+PV         H(T)/Eh          T*S/Eh         G(T)/Eh
   ------------------------------------------------------------------------
    298.15    0.332441E-01    0.497378E+00    0.945642E-01    0.402813E+00
   ------------------------------------------------------------------------

         :::::::::::::::::::::::::::::::::::::::::::::::::::::
         ::                  THERMODYNAMIC                  ::
         :::::::::::::::::::::::::::::::::::::::::::::::::::::
         :: total free energy        -100.357897776622 Eh   ::
         ::.................................................::
         :: total energy             -100.760711199882 Eh   ::
         :: zero point energy           0.464133556713 Eh   ::
         :: G(RRHO) w/o ZPVE           -0.061320133454 Eh   ::
         :: G(RRHO) contrib.            0.402813423259 Eh   ::
         :::::::::::::::::::::::::::::::::::::::::::::::::::::

           -------------------------------------------------
          | TOTAL ENERGY             -100.760711199882 Eh   |
          | TOTAL ENTHALPY           -100.263333551251 Eh   |
          | TOTAL FREE ENERGY        -100.357897776622 Eh   |
          | GRADIENT NORM               0.000189962991 Eh/α |
          | HOMO-LUMO GAP               2.232606275763 eV   |
           -------------------------------------------------

 * finished run on 2025/09/13 at 00:32:33.999
