   * xtb version 6.7.1 (edcfbbe) compiled by 'albert@albert-system' on 2024-07-22

   ID    Z sym.   atoms
    1    8 O      1
    2   15 P      2
    3    6 C      3-15, 17-23, 25, 27-38
    4    7 N      16, 24, 26, 39
    5    1 H      40-62

          program call               : xtb data2507/gas/PhCzSPOTz/PhCzSPOTz_gas_S0_finalOpt.xtbopt.xyz --gfn 2 --spinpol --tblite --uhf 2 --ohess vtight --parallel 40 --molden --ceasefiles --namespace data2507/gas/PhCzSPOTz/PhCzSPOTz_gas_T1_preOpt
 * total energy  :  -100.6726087 Eh     change       -0.1186251E-07 Eh
 * total energy  :  -100.6777247 Eh     change       -0.5115994E-02 Eh
 * total energy  :  -100.6800328 Eh     change       -0.2308109E-02 Eh
 * total energy  :  -100.6803408 Eh     change       -0.3080518E-03 Eh
 * total energy  :  -100.6807172 Eh     change       -0.3763865E-03 Eh
 * total energy  :  -100.6808237 Eh     change       -0.1064984E-03 Eh
 * total energy  :  -100.6809353 Eh     change       -0.1116361E-03 Eh
 * total energy  :  -100.6809859 Eh     change       -0.5052786E-04 Eh
 * total energy  :  -100.6810241 Eh     change       -0.3826208E-04 Eh
 * total energy  :  -100.6810443 Eh     change       -0.2017503E-04 Eh
 * total energy  :  -100.6812172 Eh     change       -0.6016012E-06 Eh
 * total energy  :  -100.6812175 Eh     change       -0.3175202E-06 Eh
 * total energy  :  -100.6812177 Eh     change       -0.2303293E-06 Eh
 * total energy  :  -100.6812180 Eh     change       -0.2559372E-06 Eh
 * total energy  :  -100.6812182 Eh     change       -0.2254897E-06 Eh
 * total energy  :  -100.6812185 Eh     change       -0.3173312E-06 Eh
 * total energy  :  -100.6812189 Eh     change       -0.3256585E-06 Eh
 * total energy  :  -100.6812193 Eh     change       -0.4582067E-06 Eh
 * total energy  :  -100.6812193 Eh     change       -0.1808687E-08 Eh
   *** GEOMETRY OPTIMIZATION CONVERGED AFTER 68 ITERATIONS ***

 final structure:
================
62
 xtb: 6.7.1 (edcfbbe)
O            2.26317232350490       -1.43857364193462        2.40392483412198
P            2.24897341413161       -1.20814342150331        0.95606757571071
C            3.81088508619663       -0.56294477941656        0.28912709972402
C            3.90654467130654        0.15963522238627       -0.89243856192547
C            5.14478114852782        0.60113539916319       -1.32283352480556
C            6.28217191297483        0.31877396256749       -0.58272088058081
C            6.18495995484370       -0.40134293612295        0.59675648541101
C            4.94892123931965       -0.84124132281544        1.03459258668278
C            1.73726965524501       -2.66408825037478       -0.00285288474688
C            1.72766218016220       -2.67920645305487       -1.39129096632320
C            1.26425071821015       -3.79949114332983       -2.05647577839556
C            0.81258213526163       -4.89769867042670       -1.34044683299373
C            0.82710480762337       -4.88198394387393        0.04483848681857
C            1.28719197501694       -3.76273043944421        0.71563743260644
C            0.98051016636516        0.03990577066714        0.49074042529856
N            1.34370433792354        1.25236616100544        0.31405430377397
C            0.35441094453897        2.17302745839131        0.07120211982374
C            0.68185966169987        3.52675440307459       -0.15707648909926
C            2.01932964448576        3.96022422606362       -0.05791480736091
C            2.34488614449495        5.27747492042549       -0.27547110413947
C            1.35989662561298        6.20459398452688       -0.59888905176902
C            0.03850397249494        5.78958865690628       -0.70681332516482
C           -0.30526383066978        4.47546876587674       -0.49295137881060
N           -0.92434241827175        1.68894660173781        0.02554102949129
C           -1.21028432887804        0.43764573125549        0.20887035294979
N           -2.49505619409457       -0.00297441130368        0.14303030433713
C           -2.92065485907443       -1.32910891718907        0.03313013068212
C           -2.18462811749182       -2.49848120476145       -0.05327648552537
C           -2.87687830154929       -3.69024430314655       -0.18301315999315
C           -4.26609016331436       -3.72409267729838       -0.23258613250866
C           -5.00508976989809       -2.55845143423888       -0.15421177492247
C           -4.33068435586687       -1.35365718418234       -0.02253679441824
C           -4.77994229245077        0.01166843191213        0.07345650785992
C           -6.03573547724947        0.60036986893211        0.08074564613996
C           -6.12146239455031        1.97513653968181        0.20050723914112
C           -4.97655576381054        2.75596524127871        0.32005323213092
C           -3.71470349902501        2.18660162941099        0.31588297601009
C           -3.62494029581927        0.81369201654177        0.17729852235564
N           -0.24349183634642       -0.48556073599842        0.46408184488011
H            3.01895311196525        0.40077563789897       -1.45802873351744
H            5.22215503964839        1.17219756975866       -2.23635917551949
H            7.24551294914172        0.66862689659456       -0.92343297215086
H            7.07051738008850       -0.61477715090040        1.17691212006261
H            4.84435337060181       -1.39093033364790        1.95880394081693
H            2.07953668631358       -1.82021488673393       -1.94395046205285
H            1.25125906043450       -3.81685161066055       -3.13635483615540
H            0.44792170304877       -5.76747283439959       -1.86695410315707
H            0.47693797072665       -5.73862254352512        0.60176052115944
H            1.30272329088641       -3.71891871224918        1.79482399598958
H            2.77563960537850        3.23268164510039        0.19700749414349
H            3.37419833531431        5.59666297486617       -0.19332282060183
H            1.62068618802285        7.23861144269557       -0.76677916348905
H           -0.72884993182858        6.50650280181437       -0.96352304402475
H           -1.32962606396256        4.15003918515023       -0.59150651269776
H           -1.10914463124290       -2.48479603521391       -0.01212838406127
H           -2.31847347776177       -4.61203601774363       -0.24917759054989
H           -4.77126224649779       -4.67284061374158       -0.33561977441433
H           -6.08336422333433       -2.57955320359723       -0.19588276798281
H           -6.92442065963365       -0.00620361506757       -0.00344412248034
H           -7.08991122155094        2.45235489532034        0.21000203293541
H           -5.07242566954816        3.82607272027832        0.42487873480437
H           -2.82581218682607        2.78733187997172        0.42701561457126

 projected vibrational frequencies (cm⁻¹)
eigval :       -0.00    -0.00     0.00     0.00     0.00     0.00
eigval :        8.09    13.41    20.68    22.44    29.48    40.95
eigval :       42.76    45.50    54.42    67.11    75.80    81.64
eigval :       95.71   115.97   130.69   134.21   155.54   171.40
eigval :      181.54   190.63   198.73   203.55   221.93   246.26
eigval :      256.54   271.83   287.08   312.49   326.11   341.76
eigval :      357.99   361.25   365.54   372.94   391.50   406.10
eigval :      418.19   425.48   428.31   432.10   453.54   498.32
eigval :      501.84   514.44   517.66   521.87   537.70   550.90
eigval :      560.88   583.69   584.30   585.28   585.55   607.85
eigval :      629.74   636.07   647.07   653.59   655.05   665.04
eigval :      674.74   685.19   711.81   717.12   737.37   739.29
eigval :      743.85   750.11   765.74   771.34   780.21   817.65
eigval :      844.36   863.58   867.10   872.50   873.19   873.77
eigval :      900.38   902.27   902.30   902.99   906.04   909.66
eigval :      919.68   921.14   923.74   925.37   925.97   932.88
eigval :      933.45   957.53   970.41   973.34   976.71   998.73
eigval :     1015.75  1064.56  1071.78  1073.45  1075.59  1078.46
eigval :     1088.77  1110.57  1114.62  1117.09  1119.64  1122.03
eigval :     1126.07  1142.54  1171.09  1176.27  1177.69  1179.40
eigval :     1180.09  1184.77  1187.11  1188.72  1193.14  1194.22
eigval :     1224.73  1237.66  1256.47  1264.86  1271.42  1272.94
eigval :     1285.62  1292.48  1321.68  1322.58  1331.19  1335.48
eigval :     1350.88  1358.76  1394.87  1414.91  1419.75  1422.07
eigval :     1424.75  1427.28  1448.80  1450.77  1456.79  1468.33
eigval :     1481.25  1500.85  1535.40  1570.31  1575.30  1580.55
eigval :     1580.99  1581.95  1583.23  1587.27  1595.40  1605.11
eigval :     1633.22  3066.42  3069.74  3075.05  3076.90  3078.14
eigval :     3079.36  3081.40  3083.24  3083.41  3083.94  3084.52
eigval :     3089.11  3089.53  3089.58  3090.08  3090.37  3093.93
eigval :     3094.36  3095.34  3095.76  3098.28  3101.54  3132.89

   temp. (K)  partition function   enthalpy   heat capacity  entropy
                                   cal/mol     cal/K/mol   cal/K/mol   J/K/mol
 298.15  VIB  0.263E+16            18846.849    115.645    118.669
         ROT  0.399E+08              888.752      2.981     37.760
         INT  0.105E+24            19735.602    118.626    156.429
         TR   0.116E+29             1481.254      4.968     44.627
         TOT                       21216.8557   123.5940   201.0554   841.2158

       T/K    H(0)-H(T)+PV         H(T)/Eh          T*S/Eh         G(T)/Eh
   ------------------------------------------------------------------------
    298.15    0.338112E-01    0.493335E+00    0.955279E-01    0.397807E+00
   ------------------------------------------------------------------------

         :::::::::::::::::::::::::::::::::::::::::::::::::::::
         ::                  THERMODYNAMIC                  ::
         :::::::::::::::::::::::::::::::::::::::::::::::::::::
         :: total free energy        -100.283412035188 Eh   ::
         ::.................................................::
         :: total energy             -100.681219337442 Eh   ::
         :: zero point energy           0.459524001193 Eh   ::
         :: G(RRHO) w/o ZPVE           -0.061716698938 Eh   ::
         :: G(RRHO) contrib.            0.397807302255 Eh   ::
         :::::::::::::::::::::::::::::::::::::::::::::::::::::

           -------------------------------------------------
          | TOTAL ENERGY             -100.681219337442 Eh   |
          | TOTAL ENTHALPY           -100.187884124590 Eh   |
          | TOTAL FREE ENERGY        -100.283412035188 Eh   |
          | GRADIENT NORM               0.000072492289 Eh/α |
           -------------------------------------------------

 * finished run on 2025/09/13 at 00:32:42.197
