   * xtb version 6.7.1 (edcfbbe) compiled by 'albert@albert-system' on 2024-07-22

   ID    Z sym.   atoms
    1    8 O      1
    2   15 P      2
    3    6 C      3-15, 17-23, 25, 27-38
    4    7 N      16, 24, 26, 39
    5    1 H      40-62

          program call               : xtb data2507/gas/PhCzSPOTz/PhCzSPOTz.xyz --gfn 2 --ohess vtight --parallel 40 --molden --ceasefiles --namespace data2507/gas/PhCzSPOTz/PhCzSPOTz_gas_S0_preOpt
          :  Hamiltonian                  GFN2-xTB          :
 * total energy  :  -100.7352200 Eh     change       -0.3881553E-09 Eh
 * total energy  :  -100.7510105 Eh     change       -0.1579046E-01 Eh
 * total energy  :  -100.7565965 Eh     change       -0.5586034E-02 Eh
 * total energy  :  -100.7577446 Eh     change       -0.1148072E-02 Eh
 * total energy  :  -100.7584859 Eh     change       -0.7413031E-03 Eh
 * total energy  :  -100.7586650 Eh     change       -0.1790917E-03 Eh
 * total energy  :  -100.7588086 Eh     change       -0.1436611E-03 Eh
 * total energy  :  -100.7589048 Eh     change       -0.9616389E-04 Eh
 * total energy  :  -100.7589759 Eh     change       -0.7114467E-04 Eh
 * total energy  :  -100.7590325 Eh     change       -0.5655809E-04 Eh
 * total energy  :  -100.7598636 Eh     change       -0.1376932E-05 Eh
 * total energy  :  -100.7598652 Eh     change       -0.1553424E-05 Eh
 * total energy  :  -100.7598670 Eh     change       -0.1825295E-05 Eh
 * total energy  :  -100.7598690 Eh     change       -0.1993879E-05 Eh
 * total energy  :  -100.7598709 Eh     change       -0.1843615E-05 Eh
 * total energy  :  -100.7598725 Eh     change       -0.1599888E-05 Eh
 * total energy  :  -100.7598738 Eh     change       -0.1345148E-05 Eh
 * total energy  :  -100.7598750 Eh     change       -0.1195955E-05 Eh
 * total energy  :  -100.7598750 Eh     change       -0.6268351E-08 Eh
   *** GEOMETRY OPTIMIZATION CONVERGED AFTER 94 ITERATIONS ***

 final structure:
================
62
 xtb: 6.7.1 (edcfbbe)
O            1.41680292281506       -3.00286448394985        0.96540980675810
P            1.97263310533686       -1.77178478338833        0.40081086680830
C            3.26995770600691       -0.99874443927640        1.41470601248089
C            3.94625189472171        0.14907937118364        1.02437212345048
C            4.91276453755374        0.68490397529992        1.85526006897901
C            5.20732704922816        0.07709884962408        3.06631331739886
C            4.53432845207873       -1.07049231880224        3.45176272678151
C            3.56344884962080       -1.60863562932841        2.62564036883097
C            2.67555354356195       -1.96358681804040       -1.26847116669717
C            3.04717212208053       -3.25208116941675       -1.62720419820175
C            3.60463751819936       -3.49027268202489       -2.87030960601110
C            3.78771202531904       -2.44010020984106       -3.75530836406811
C            3.40707947016759       -1.15556772308112       -3.40036584042139
C            2.85035660366790       -0.91162169389252       -2.15747318414826
C            0.72616929916011       -0.44982533327131        0.19872100303791
N            1.08226170913552        0.78277086237049       -0.11524087090195
C            0.06341773117239        1.63763842011992       -0.25467598488388
C            0.38684470721640        3.01556920462269       -0.62237804524474
C            1.68089136546302        3.49592937798086       -0.42979833591092
C            1.99359196706060        4.79668143105632       -0.77375389728851
C            1.02318561360226        5.62466538605276       -1.31630172415497
C           -0.26391647160464        5.14950273732381       -1.51432601647899
C           -0.58504050127156        3.85111666105780       -1.16838411329548
N           -1.20930403510266        1.31455836119707       -0.08651241836462
C           -1.46285281160134        0.04620572952300        0.24536804518641
N           -2.74706307313759       -0.34001681000974        0.43538601350938
C           -3.18321305225363       -1.65628406514679        0.66292382977610
C           -2.46100309940894       -2.82837942340589        0.81510212523508
C           -3.17157580249750       -3.99996272228249        1.02298234543524
C           -4.55985357337738       -4.01570340791723        1.07975147782952
C           -5.28338856606191       -2.84723567641906        0.93216549892128
C           -4.59125701271616       -1.66392700254857        0.72470352520509
C           -5.03232222260236       -0.30341714463871        0.54806719292583
C           -6.29064052297930        0.27819113582259        0.53394915051516
C           -6.38395041498435        1.64685047128609        0.36253175194256
C           -5.23991609964600        2.42224896297159        0.21929586830761
C           -3.97449718193713        1.85818568103052        0.22928051381983
C           -3.87694168876486        0.48609047138265        0.38230163097338
N           -0.50056551192014       -0.87292054480602        0.38910599198857
H            3.71095438473351        0.61395157662794        0.08017480608334
H            5.44223070048632        1.57918631782854        1.55905209939916
H            5.96459459468787        0.50037706685475        3.71010201116505
H            4.76573136938108       -1.54375503536143        4.39479071879325
H            3.02140746986837       -2.50202093363398        2.90141365340732
H            2.88207385779876       -4.05444231140030       -0.92240984675908
H            3.89461718669697       -4.49229499455945       -3.15061391658022
H            4.22182799491300       -2.62301131069528       -4.72742870807319
H            3.54186195903793       -0.34075673807565       -4.09711176958160
H            2.53617547274142        0.08549741281853       -1.88445822640501
H            2.42170077002441        2.84108735602720        0.00217235990572
H            2.99559469047581        5.16896181486674       -0.61891556252729
H            1.27040208023102        6.64093599774834       -1.58600750713839
H           -1.01757889977514        5.79472768356502       -1.94108561834252
H           -1.57946286008506        3.46507442837157       -1.32955591889055
H           -1.38540211807382       -2.83811157241424        0.78094803086462
H           -2.62502317993420       -4.92263081991668        1.14566250080496
H           -5.07673876974692       -4.94972453590043        1.24339345091615
H           -6.36186707295596       -2.84897492521601        0.97769465735973
H           -7.17464152791523       -0.32836682325177        0.65825847069127
H           -7.35388000386463        2.12128554199079        0.34691854727034
H           -5.33609056092024        3.49130401812479        0.10026169674777
H           -3.09357508909141        2.46783877718589        0.13133358085397

          :  Hamiltonian                  GFN2-xTB          :
         :: gradient norm              0.000059140668 Eh/a0 ::
         :: HOMO-LUMO gap              2.248435396750 eV    ::
         :: SCC energy              -102.535623819336 Eh    ::
         :: -> dispersion             -0.087135045229 Eh    ::
         :: repulsion energy           1.775748807812 Eh    ::

    * Orbital Energies and Occupations

         #    Occupation            Energy/Eh            Energy/eV
      -------------------------------------------------------------
         1        2.0000           -0.7006274             -19.0650
       ...           ...                  ...                  ...
        81        2.0000           -0.4190334             -11.4025
        82        2.0000           -0.4171618             -11.3515
        83        2.0000           -0.4158429             -11.3157
        84        2.0000           -0.4143348             -11.2746
        85        2.0000           -0.4135167             -11.2524
        86        2.0000           -0.4131042             -11.2411
        87        2.0000           -0.4121414             -11.2149
        88        2.0000           -0.4088449             -11.1252
        89        2.0000           -0.4005437             -10.8993
        90        2.0000           -0.3851686             -10.4810
        91        2.0000           -0.3829372             -10.4203
        92        2.0000           -0.3803376             -10.3495
        93        2.0000           -0.3732522             -10.1567 (HOMO)
        94                         -0.2906238              -7.9083 (LUMO)
        95                         -0.2778283              -7.5601
        96                         -0.2510787              -6.8322
        97                         -0.2477657              -6.7420
        98                         -0.2365199              -6.4360
        99                         -0.2361068              -6.4248
       100                         -0.2325062              -6.3268
       101                         -0.2308177              -6.2809
       102                         -0.2253610              -6.1324
       103                         -0.2224558              -6.0533
       104                         -0.1937097              -5.2711
       ...                                ...                  ...
       184                          1.2140231              33.0353
      -------------------------------------------------------------
                  HL-Gap            0.0826285 Eh            2.2484 eV

     #   Z          covCN         q      C6AA      α(0)
     1   8 O        0.808    -0.338    20.504     6.070
     2  15 P        4.129     0.060   157.578    22.549
     3   6 C        2.922     0.017    27.632     8.620
     4   6 C        2.976    -0.025    28.619     8.775
     5   6 C        2.920    -0.027    28.686     8.783
     6   6 C        2.920    -0.025    28.636     8.775
     7   6 C        2.919    -0.027    28.676     8.781
     8   6 C        3.030    -0.020    28.485     8.754
     9   6 C        2.921     0.017    27.627     8.619
    10   6 C        3.038    -0.019    28.454     8.749
    11   6 C        2.919    -0.026    28.664     8.780
    12   6 C        2.920    -0.025    28.627     8.774
    13   6 C        2.920    -0.027    28.678     8.782
    14   6 C        2.969    -0.026    28.655     8.781
    15   6 C        2.944     0.208    23.609     7.969
    16   7 N        1.895    -0.298    28.562     7.923
    17   6 C        2.995     0.205    23.652     7.978
    18   6 C        2.985     0.002    27.980     8.677
    19   6 C        2.924    -0.022    28.560     8.764
    20   6 C        2.918    -0.026    28.661     8.779
    21   6 C        2.920    -0.022    28.565     8.765
    22   6 C        2.919    -0.026    28.658     8.779
    23   6 C        2.923    -0.022    28.565     8.765
    24   7 N        1.846    -0.307    28.809     7.955
    25   6 C        2.922     0.257    22.689     7.811
    26   7 N        2.805    -0.031    21.842     6.941
    27   6 C        3.046     0.052    26.786     8.489
    28   6 C        2.910    -0.043    29.064     8.840
    29   6 C        2.925    -0.028    28.698     8.785
    30   6 C        2.920    -0.034    28.855     8.809
    31   6 C        2.913    -0.032    28.810     8.802
    32   6 C        3.062    -0.009    28.189     8.707
    33   6 C        3.060    -0.008    28.152     8.701
    34   6 C        2.914    -0.032    28.796     8.800
    35   6 C        2.920    -0.035    28.873     8.812
    36   6 C        2.925    -0.032    28.789     8.799
    37   6 C        2.911    -0.045    29.120     8.849
    38   6 C        3.047     0.052    26.785     8.488
    39   7 N        1.986    -0.281    28.085     7.860
    40   1 H        0.926     0.055     2.258     2.350
    41   1 H        0.926     0.036     2.503     2.474
    42   1 H        0.926     0.037     2.485     2.465
    43   1 H        0.926     0.040     2.453     2.449
    44   1 H        0.926     0.064     2.150     2.293
    45   1 H        0.926     0.063     2.169     2.303
    46   1 H        0.926     0.041     2.442     2.444
    47   1 H        0.926     0.038     2.474     2.460
    48   1 H        0.926     0.037     2.492     2.469
    49   1 H        0.926     0.050     2.314     2.379
    50   1 H        0.926     0.055     2.263     2.352
    51   1 H        0.926     0.039     2.459     2.452
    52   1 H        0.926     0.039     2.456     2.451
    53   1 H        0.926     0.040     2.451     2.448
    54   1 H        0.926     0.053     2.284     2.363
    55   1 H        0.926     0.083     1.944     2.181
    56   1 H        0.926     0.044     2.395     2.420
    57   1 H        0.926     0.035     2.516     2.480
    58   1 H        0.926     0.035     2.510     2.477
    59   1 H        0.926     0.037     2.484     2.465
    60   1 H        0.926     0.035     2.521     2.483
    61   1 H        0.926     0.036     2.505     2.475
    62   1 H        0.926     0.059     2.210     2.325

molecular dipole:
                 x           y           z       tot (Debye)
 q only:        0.281       1.263      -0.595
   full:        0.440       1.537      -0.695       4.430

 projected vibrational frequencies (cm⁻¹)
eigval :       -0.00    -0.00    -0.00     0.00     0.00     0.00
eigval :        6.69    14.05    17.89    27.38    31.72    33.81
eigval :       43.49    48.61    55.59    58.47    84.50    94.82
eigval :       97.25   134.15   140.84   142.06   149.25   157.86
eigval :      177.67   196.02   202.21   217.10   224.00   239.67
eigval :      263.04   275.46   284.05   327.51   343.89   353.77
eigval :      363.08   367.59   367.69   388.97   391.99   410.59
eigval :      423.34   429.99   432.91   441.40   472.80   493.61
eigval :      514.41   523.40   539.11   539.92   583.22   585.23
eigval :      586.77   586.97   588.41   615.15   621.98   637.94
eigval :      652.70   655.55   658.78   673.05   679.02   686.04
eigval :      714.26   716.49   738.55   747.36   751.57   754.77
eigval :      775.98   782.84   785.85   794.38   837.90   872.43
eigval :      874.74   879.30   881.63   881.96   899.02   904.42
eigval :      906.28   908.50   912.30   913.15   924.44   924.78
eigval :      930.02   930.58   931.58   933.01   934.38   935.68
eigval :      971.62   974.52   977.48  1015.62  1016.71  1047.85
eigval :     1070.95  1075.72  1077.18  1079.21  1080.17  1108.90
eigval :     1112.62  1116.78  1118.05  1122.93  1123.33  1147.17
eigval :     1160.55  1177.92  1179.87  1180.40  1180.56  1181.04
eigval :     1186.96  1188.66  1195.35  1212.25  1223.11  1232.91
eigval :     1255.76  1264.69  1266.39  1270.97  1274.59  1276.63
eigval :     1296.12  1320.75  1321.73  1322.89  1333.54  1347.12
eigval :     1359.97  1381.31  1410.55  1419.85  1423.91  1425.92
eigval :     1432.32  1450.31  1451.94  1463.32  1466.81  1479.99
eigval :     1483.16  1494.62  1549.64  1582.41  1582.49  1584.02
eigval :     1584.34  1584.65  1585.82  1589.49  1595.09  1597.06
eigval :     1609.04  3071.47  3072.11  3075.48  3075.90  3077.18
eigval :     3079.26  3079.50  3080.15  3082.18  3083.10  3084.98
eigval :     3087.81  3090.50  3090.83  3091.81  3092.15  3097.07
eigval :     3098.75  3103.51  3104.60  3106.09  3139.36  3140.66

   temp. (K)  partition function   enthalpy   heat capacity  entropy
                                   cal/mol     cal/K/mol   cal/K/mol   J/K/mol
 298.15  VIB  0.163E+16            18420.762    112.941    116.165
         ROT  0.420E+08              888.752      2.981     37.863
         INT  0.685E+23            19309.514    115.922    154.027
         TR   0.116E+29             1481.254      4.968     44.627
         TOT                       20790.7682   120.8902   198.6541   831.1686

       T/K    H(0)-H(T)+PV         H(T)/Eh          T*S/Eh         G(T)/Eh
   ------------------------------------------------------------------------
    298.15    0.331322E-01    0.497451E+00    0.943870E-01    0.403065E+00
   ------------------------------------------------------------------------

         :::::::::::::::::::::::::::::::::::::::::::::::::::::
         ::                  THERMODYNAMIC                  ::
         :::::::::::::::::::::::::::::::::::::::::::::::::::::
         :: total free energy        -100.356810491991 Eh   ::
         ::.................................................::
         :: total energy             -100.759875011523 Eh   ::
         :: zero point energy           0.464319272909 Eh   ::
         :: G(RRHO) w/o ZPVE           -0.061254753377 Eh   ::
         :: G(RRHO) contrib.            0.403064519532 Eh   ::
         :::::::::::::::::::::::::::::::::::::::::::::::::::::

           -------------------------------------------------
          | TOTAL ENERGY             -100.759875011523 Eh   |
          | TOTAL ENTHALPY           -100.262423540567 Eh   |
          | TOTAL FREE ENERGY        -100.356810491991 Eh   |
          | GRADIENT NORM               0.000059152740 Eh/α |
          | HOMO-LUMO GAP               2.248435459148 eV   |
           -------------------------------------------------

 * finished run on 2025/09/13 at 00:26:58.027
