   * xtb version 6.7.1 (edcfbbe) compiled by 'albert@albert-system' on 2024-07-22

   ID    Z sym.   atoms
    1    8 O      1, 9
    2    6 C      2-8, 10-16, 18-31, 33-47
    3    7 N      17, 32
    4    1 H      48-73

          program call               : xtb data2507/toluene/Xm-mCP/Xm-mCP_toluene_S0_crest.xyz --gfn 2 --gbsa toluene --ohess vtight --parallel 40 --molden --ceasefiles --namespace data2507/toluene/Xm-mCP/Xm-mCP_toluene_S0_finalOpt
      * Solvation model:               GBSA
        Solvent                        toluene
        Solvent mass                       9.2140E+01 g/mol
          :  Hamiltonian                  GFN2-xTB          :
 * total energy  :  -119.4607435 Eh     change       -0.7067413E-08 Eh
 * total energy  :  -119.4608242 Eh     change       -0.8062800E-04 Eh
 * total energy  :  -119.4608497 Eh     change       -0.2552289E-04 Eh
 * total energy  :  -119.4608542 Eh     change       -0.4527137E-05 Eh
 * total energy  :  -119.4608584 Eh     change       -0.4175261E-05 Eh
 * total energy  :  -119.4608626 Eh     change       -0.4249529E-05 Eh
 * total energy  :  -119.4608671 Eh     change       -0.4523442E-05 Eh
 * total energy  :  -119.4608725 Eh     change       -0.5385450E-05 Eh
 * total energy  :  -119.4608791 Eh     change       -0.6553956E-05 Eh
 * total energy  :  -119.4608854 Eh     change       -0.6263756E-05 Eh
 * total energy  :  -119.4608977 Eh     change       -0.2111166E-05 Eh
 * total energy  :  -119.4608990 Eh     change       -0.1331077E-05 Eh
 * total energy  :  -119.4608999 Eh     change       -0.9046329E-06 Eh
 * total energy  :  -119.4609007 Eh     change       -0.8137605E-06 Eh
 * total energy  :  -119.4609015 Eh     change       -0.7695466E-06 Eh
 * total energy  :  -119.4609024 Eh     change       -0.8504714E-06 Eh
 * total energy  :  -119.4609031 Eh     change       -0.7713304E-06 Eh
 * total energy  :  -119.4609038 Eh     change       -0.6583864E-06 Eh
 * total energy  :  -119.4609038 Eh     change       -0.6206662E-08 Eh
   *** GEOMETRY OPTIMIZATION CONVERGED AFTER 22 ITERATIONS ***

 final structure:
================
73
 xtb: 6.7.1 (edcfbbe)
O            5.02636685636314        1.35544966125286        1.20200616460809
C            5.25253131087856        0.30561245890189        0.60926503265690
C            6.60427236304714       -0.22954369649901        0.41420149935551
C            7.72058897179073        0.45248957935588        0.91198159062660
C            8.98904515155860       -0.04709312565753        0.73131282871386
C            9.17029321965433       -1.24629410424070        0.04524982959543
C            8.08871973398810       -1.93722564968932       -0.45512570034514
C            6.79919843292165       -1.43361978262978       -0.27472645028340
O            5.77850807589804       -2.15937198290333       -0.79070871628909
C            4.50986600129359       -1.71577875973885       -0.64000195598561
C            3.48944693203223       -2.49708787324135       -1.18675726758744
C            2.17838542563121       -2.10126153431802       -1.06466100319818
C            1.83586181768077       -0.91572672264382       -0.39908683298707
C            0.42960232743751       -0.50246231493283       -0.27260679259753
C           -0.56571014237094       -1.44882647990845       -0.04844314432107
C           -1.89496229565774       -1.05772553546512        0.07055894722053
N           -2.89009770077712       -2.01972445003902        0.29042301074181
C           -3.07000391616725       -3.17199664525317       -0.45042523635866
C           -2.38704615247235       -3.61514063746210       -1.57425779187811
C           -2.79139224120920       -4.80536463057825       -2.14855433717857
C           -3.85582655116783       -5.53884732202732       -1.62801040265390
C           -4.55608737952037       -5.08948138503865       -0.52586018037842
C           -4.16843768917261       -3.89512706402304        0.06846005623361
C           -4.66868034640393       -3.13486417767449        1.18034129733441
C           -5.70662130266238       -3.33200148858980        2.08230096735869
C           -5.91328496937037       -2.38939709510277        3.06996057493994
C           -5.09056974454130       -1.26963150339569        3.17461727046019
C           -4.05107753597105       -1.05225225811237        2.29007587601380
C           -3.85409543416414       -1.98313907900094        1.27981692542688
C           -2.23712152960595        0.28675822080066       -0.01850915426059
C           -1.24531698969878        1.23697950378721       -0.23675842266053
N           -1.58591324199094        2.59278635938158       -0.32801520842684
C           -2.58672078059690        3.12875322476190       -1.11651448552922
C           -3.43689278825487        2.50193653564209       -2.01679868871924
C           -4.34052728843309        3.28775910743847       -2.70696063173981
C           -4.39819879149788        4.66706654415102       -2.51870675213590
C           -3.53912092998732        5.29975226722281       -1.64205032198213
C           -2.62233460926611        4.53085795216267       -0.93632049285028
C           -1.59272412088656        4.84755262599720        0.01457285529708
C           -1.15994768130161        6.03304321775145        0.59523478160874
C           -0.12847950700490        5.98356457838305        1.51201823863201
C            0.45767169095556        4.76982016008104        1.86568610799660
C            0.04199278078571        3.57758374141430        1.30381372237417
C           -0.97529610859820        3.62384793133846        0.36110197222019
C            0.08100879035546        0.84126935842266       -0.37067653605478
C            2.85297593394606       -0.14564641798732        0.13679142686874
C            4.19177859245249       -0.52778980351455        0.02938240076715
H            7.54478992050369        1.37877258137012        1.43892834350072
H            9.84249064639791        0.48696220720396        1.11924406826976
H           10.16545553860556       -1.63924106462228       -0.09624677262541
H            8.20892895285069       -2.86694677978042       -0.98861138293724
H            3.75598780048392       -3.40596825620157       -1.70277164881077
H            1.40214971711470       -2.70730035930691       -1.50521566151345
H           -0.30927398022797       -2.48988693113182        0.07034546273850
H           -1.57606430669078       -3.04201379464438       -1.99735632215309
H           -2.27424554262415       -5.17325396346336       -3.02287464701535
H           -4.14070129533440       -6.46621650057546       -2.10305292835840
H           -5.39185600229941       -5.64955948448012       -0.13376573383695
H           -6.33442358642333       -4.20768907745297        2.01124417353203
H           -6.71742847364768       -2.52169367417353        3.77898076882447
H           -5.26674976659186       -0.55675647986806        3.96705114414116
H           -3.41007169777164       -0.18955324770531        2.39257424722281
H           -3.26693540720714        0.59182618521727        0.08260632757316
H           -3.39098778974478        1.43668629313555       -2.18561332226655
H           -5.01502986570608        2.82174096809406       -3.41056342181140
H           -5.12023502766539        5.24646982418495       -3.07517623701229
H           -3.57264325445655        6.37073779737644       -1.50842908030899
H           -1.62549156004739        6.97180670603345        0.33445761903227
H            0.22621836578348        6.89466532446990        1.97127048525638
H            1.25405528028447        4.75873671007339        2.59572052543655
H            0.49070683227110        2.64187199091258        1.60100162043298
H            0.83604579602859        1.58220416995273       -0.58223771418918
H            2.64489376539644        0.76799516000068        0.67334952032920

          :  Hamiltonian                  GFN2-xTB          :
         :: gradient norm              0.000080532404 Eh/a0 ::
         :: HOMO-LUMO gap              1.890437052694 eV    ::
         :: SCC energy              -121.609392260506 Eh    ::
         :: -> dispersion             -0.101885023787 Eh    ::
         :: -> Gsolv                  -0.052421802232 Eh    ::
         :: repulsion energy           2.148488455392 Eh    ::

    * Orbital Energies and Occupations

         #    Occupation            Energy/Eh            Energy/eV
      -------------------------------------------------------------
         1        2.0000           -0.7572912             -20.6069
       ...           ...                  ...                  ...
        98        2.0000           -0.4199344             -11.4270
        99        2.0000           -0.4195308             -11.4160
       100        2.0000           -0.4189695             -11.4007
       101        2.0000           -0.4155333             -11.3072
       102        2.0000           -0.4153061             -11.3011
       103        2.0000           -0.4064046             -11.0588
       104        2.0000           -0.4058891             -11.0448
       105        2.0000           -0.3973910             -10.8136
       106        2.0000           -0.3941491             -10.7253
       107        2.0000           -0.3798333             -10.3358
       108        2.0000           -0.3792396             -10.3196
       109        2.0000           -0.3651640              -9.9366
       110        2.0000           -0.3644922              -9.9183 (HOMO)
       111                         -0.2950199              -8.0279 (LUMO)
       112                         -0.2671954              -7.2708
       113                         -0.2492643              -6.7828
       114                         -0.2464380              -6.7059
       115                         -0.2453543              -6.6764
       116                         -0.2397176              -6.5230
       117                         -0.2383145              -6.4849
       118                         -0.2231871              -6.0732
       119                         -0.2226308              -6.0581
       120                         -0.2185511              -5.9471
       121                         -0.1963467              -5.3429
       ...                                ...                  ...
       214                          0.7437132              20.2375
      -------------------------------------------------------------
                  HL-Gap            0.0694722 Eh            1.8904 eV

     #   Z          covCN         q      C6AA      α(0)
     1   8 O        0.857    -0.451    22.734     6.393
     2   6 C        2.831     0.223    23.306     7.911
     3   6 C        2.973    -0.043    29.058     8.842
     4   6 C        2.923    -0.018    28.461     8.749
     5   6 C        2.916    -0.032    28.801     8.800
     6   6 C        2.921    -0.018    28.468     8.750
     7   6 C        2.915    -0.049    29.225     8.865
     8   6 C        2.886     0.142    24.900     8.181
     9   8 O        1.711    -0.209    17.482     5.645
    10   6 C        2.886     0.142    24.913     8.183
    11   6 C        2.914    -0.050    29.240     8.867
    12   6 C        2.925    -0.024    28.611     8.772
    13   6 C        2.973     0.011    27.759     8.642
    14   6 C        2.975     0.017    27.630     8.622
    15   6 C        2.927    -0.054    29.330     8.881
    16   6 C        2.910     0.067    26.498     8.441
    17   7 N        2.803    -0.043    22.073     6.978
    18   6 C        3.074     0.046    26.884     8.501
    19   6 C        2.910    -0.052    29.296     8.875
    20   6 C        2.924    -0.035    28.863     8.810
    21   6 C        2.920    -0.042    29.046     8.838
    22   6 C        2.912    -0.034    28.852     8.808
    23   6 C        3.066    -0.018    28.379     8.735
    24   6 C        3.067    -0.018    28.382     8.736
    25   6 C        2.912    -0.034    28.856     8.809
    26   6 C        2.920    -0.042    29.043     8.837
    27   6 C        2.924    -0.034    28.857     8.809
    28   6 C        2.909    -0.052    29.282     8.873
    29   6 C        3.073     0.047    26.880     8.501
    30   6 C        2.925    -0.059    29.473     8.903
    31   6 C        2.910     0.068    26.488     8.439
    32   7 N        2.802    -0.044    22.086     6.980
    33   6 C        3.072     0.047    26.878     8.501
    34   6 C        2.910    -0.052    29.286     8.874
    35   6 C        2.924    -0.035    28.861     8.810
    36   6 C        2.920    -0.042    29.043     8.837
    37   6 C        2.912    -0.034    28.855     8.808
    38   6 C        3.067    -0.018    28.378     8.735
    39   6 C        3.066    -0.018    28.385     8.736
    40   6 C        2.912    -0.034    28.858     8.809
    41   6 C        2.920    -0.042    29.039     8.837
    42   6 C        2.924    -0.034    28.845     8.808
    43   6 C        2.910    -0.051    29.264     8.870
    44   6 C        3.073     0.047    26.874     8.500
    45   6 C        2.927    -0.052    29.298     8.877
    46   6 C        2.929    -0.024    28.593     8.769
    47   6 C        2.972    -0.043    29.066     8.843
    48   1 H        0.926     0.059     2.211     2.325
    49   1 H        0.926     0.056     2.242     2.342
    50   1 H        0.926     0.063     2.169     2.303
    51   1 H        0.926     0.066     2.132     2.283
    52   1 H        0.926     0.068     2.109     2.271
    53   1 H        0.926     0.065     2.143     2.289
    54   1 H        0.926     0.054     2.269     2.355
    55   1 H        0.926     0.031     2.570     2.507
    56   1 H        0.926     0.032     2.562     2.503
    57   1 H        0.926     0.029     2.605     2.524
    58   1 H        0.926     0.031     2.574     2.509
    59   1 H        0.926     0.031     2.566     2.505
    60   1 H        0.926     0.029     2.607     2.525
    61   1 H        0.926     0.030     2.583     2.513
    62   1 H        0.926     0.029     2.596     2.520
    63   1 H        0.926     0.053     2.280     2.361
    64   1 H        0.926     0.031     2.579     2.511
    65   1 H        0.926     0.031     2.570     2.507
    66   1 H        0.926     0.029     2.601     2.522
    67   1 H        0.926     0.031     2.567     2.505
    68   1 H        0.926     0.032     2.562     2.503
    69   1 H        0.926     0.029     2.606     2.524
    70   1 H        0.926     0.030     2.586     2.515
    71   1 H        0.926     0.029     2.601     2.522
    72   1 H        0.926     0.050     2.315     2.380
    73   1 H        0.926     0.061     2.191     2.315

molecular dipole:
                 x           y           z       tot (Debye)
 q only:        0.857      -1.576      -0.866
   full:        0.946      -1.608      -0.866       5.227

 projected vibrational frequencies (cm⁻¹)
eigval :       -0.00    -0.00    -0.00    -0.00    -0.00     0.00
eigval :       13.49    18.42    21.16    22.55    25.59    33.40
eigval :       38.40    68.83    70.06    76.94    99.11   105.08
eigval :      117.84   134.58   138.09   141.44   145.88   148.32
eigval :      156.10   192.50   209.54   236.21   240.81   247.99
eigval :      251.71   270.93   271.49   274.62   291.01   310.98
eigval :      320.54   346.78   359.98   375.79   386.66   395.36
eigval :      397.35   412.52   422.32   424.85   427.09   435.91
eigval :      437.01   448.45   470.89   502.50   509.43   511.25
eigval :      517.43   520.07   525.93   533.01   540.98   542.26
eigval :      542.87   572.59   579.77   587.96   589.74   605.69
eigval :      619.32   622.39   634.95   640.12   657.34   662.65
eigval :      671.72   673.79   677.29   690.88   707.26   708.83
eigval :      715.74   741.57   749.24   754.13   767.72   768.87
eigval :      770.37   779.85   780.50   783.12   789.04   829.27
eigval :      840.65   847.08   866.88   868.11   875.67   876.32
eigval :      876.74   879.95   888.75   892.49   896.96   898.29
eigval :      899.37   902.72   904.64   905.59   911.11   919.56
eigval :      920.57   921.17   922.24   923.65   923.98   927.24
eigval :      929.44   985.63  1000.91  1011.06  1012.93  1032.94
eigval :     1069.26  1069.73  1072.64  1073.76  1075.50  1096.65
eigval :     1111.72  1120.49  1123.80  1132.64  1150.70  1151.78
eigval :     1163.08  1165.67  1168.21  1177.38  1180.30  1180.67
eigval :     1181.30  1194.17  1214.02  1217.92  1225.18  1230.56
eigval :     1233.33  1235.12  1236.25  1241.50  1243.24  1271.34
eigval :     1280.06  1295.27  1299.99  1301.33  1303.18  1317.44
eigval :     1331.33  1344.68  1350.61  1355.52  1355.92  1359.79
eigval :     1360.85  1388.25  1403.20  1418.16  1422.94  1426.77
eigval :     1428.15  1429.85  1443.97  1453.03  1456.90  1470.40
eigval :     1474.38  1479.28  1486.24  1486.32  1547.64  1565.21
eigval :     1568.38  1568.97  1573.34  1575.16  1587.28  1587.75
eigval :     1588.63  1593.70  1597.28  1597.70  1612.23  1612.79
eigval :     1638.60  3071.17  3071.80  3072.05  3073.20  3076.72
eigval :     3077.32  3077.76  3078.31  3084.27  3084.77  3085.62
eigval :     3085.88  3088.60  3090.96  3091.68  3092.86  3093.16
eigval :     3093.95  3094.02  3096.88  3101.85  3104.15  3104.99
eigval :     3107.42  3108.65  3109.31

   temp. (K)  partition function   enthalpy   heat capacity  entropy
                                   cal/mol     cal/K/mol   cal/K/mol   J/K/mol
 298.15  VIB  0.151E+16            20403.573    132.989    124.103
         ROT  0.905E+08              888.752      2.981     39.390
         INT  0.137E+24            21292.325    135.970    163.493
         TR   0.143E+29             1481.254      4.968     45.052
         TOT                       22773.5790   140.9383   208.5446   872.5505

       T/K    H(0)-H(T)+PV         H(T)/Eh          T*S/Eh         G(T)/Eh
   ------------------------------------------------------------------------
    298.15    0.362920E-01    0.586101E+00    0.990863E-01    0.487015E+00
   ------------------------------------------------------------------------

         :::::::::::::::::::::::::::::::::::::::::::::::::::::
         ::                  THERMODYNAMIC                  ::
         :::::::::::::::::::::::::::::::::::::::::::::::::::::
         :: total free energy        -118.973888811208 Eh   ::
         ::.................................................::
         :: total energy             -119.460903804835 Eh   ::
         :: zero point energy           0.549809240952 Eh   ::
         :: G(RRHO) w/o ZPVE           -0.062794247325 Eh   ::
         :: G(RRHO) contrib.            0.487014993627 Eh   ::
         :::::::::::::::::::::::::::::::::::::::::::::::::::::

           -------------------------------------------------
          | TOTAL ENERGY             -119.460903804835 Eh   |
          | TOTAL ENTHALPY           -118.874802555636 Eh   |
          | TOTAL FREE ENERGY        -118.973888811208 Eh   |
          | GRADIENT NORM               0.000080477652 Eh/α |
          | HOMO-LUMO GAP               1.890436063791 eV   |
           -------------------------------------------------

 * finished run on 2025/09/10 at 14:17:56.510
