   * xtb version 6.7.1 (edcfbbe) compiled by 'albert@albert-system' on 2024-07-22

   ID    Z sym.   atoms
    1    8 O      1, 9
    2    6 C      2-8, 10-16, 18-31, 33-47
    3    7 N      17, 32
    4    1 H      48-73

          program call               : xtb data2507/toluene/Xm-mCP/Xm-mCP.xyz --gfn 2 --gbsa toluene --ohess vtight --parallel 40 --molden --ceasefiles --namespace data2507/toluene/Xm-mCP/Xm-mCP_toluene_S0_preOpt
      * Solvation model:               GBSA
        Solvent                        toluene
        Solvent mass                       9.2140E+01 g/mol
          :  Hamiltonian                  GFN2-xTB          :
 * total energy  :  -119.4425111 Eh     change       -0.5968502E-08 Eh
 * total energy  :  -119.4557451 Eh     change       -0.1323402E-01 Eh
 * total energy  :  -119.4586476 Eh     change       -0.2902495E-02 Eh
 * total energy  :  -119.4592532 Eh     change       -0.6055769E-03 Eh
 * total energy  :  -119.4596325 Eh     change       -0.3793233E-03 Eh
 * total energy  :  -119.4597369 Eh     change       -0.1043695E-03 Eh
 * total energy  :  -119.4598096 Eh     change       -0.7271941E-04 Eh
 * total energy  :  -119.4598484 Eh     change       -0.3879322E-04 Eh
 * total energy  :  -119.4599031 Eh     change       -0.5471402E-04 Eh
 * total energy  :  -119.4599364 Eh     change       -0.3329897E-04 Eh
 * total energy  :  -119.4604892 Eh     change       -0.2636663E-06 Eh
 * total energy  :  -119.4604896 Eh     change       -0.4617042E-06 Eh
 * total energy  :  -119.4604898 Eh     change       -0.1564637E-06 Eh
 * total energy  :  -119.4604901 Eh     change       -0.2936721E-06 Eh
 * total energy  :  -119.4604905 Eh     change       -0.4042649E-06 Eh
 * total energy  :  -119.4604907 Eh     change       -0.2161688E-06 Eh
 * total energy  :  -119.4604907 Eh     change        0.2402800E-07 Eh
 * total energy  :  -119.4604908 Eh     change       -0.1421714E-06 Eh
 * total energy  :  -119.4604909 Eh     change       -0.7297137E-07 Eh
   *** GEOMETRY OPTIMIZATION CONVERGED AFTER 52 ITERATIONS ***

 final structure:
================
73
 xtb: 6.7.1 (edcfbbe)
O            4.94804408353097        1.60087327681376        1.85467048029884
C            5.30070941187023        0.58993278678675        1.25616844785363
C            6.69386463267232        0.13342136742773        1.20622842839046
C            7.70217897594802        0.84594738403812        1.86555009460017
C            9.00873349294385        0.41889632932147        1.82349308671273
C            9.33777616723276       -0.73640189513440        1.11727296204351
C            8.36478549076721       -1.45545309076213        0.45854072617326
C            7.03704668882744       -1.02588920113621        0.49870814536804
O            6.12776027344614       -1.77638617187498       -0.16828777823450
C            4.82644068519356       -1.40865527858736       -0.15045470733907
C            3.92353912408835       -2.21753945108225       -0.84405973878668
C            2.58532696555561       -1.90193506088929       -0.85622787875035
C            2.09881325058716       -0.77131602688495       -0.18470177810978
C            0.66299897555851       -0.44967864396180       -0.19736553321931
C           -0.28555408268777       -1.46425397579862       -0.11358994910656
C           -1.64300487108262       -1.16197977437733       -0.11241949428261
N           -2.58466806474178       -2.19933796513830       -0.05346300259310
C           -2.61043618011239       -3.30346979923955       -0.88403180396864
C           -1.79068033682482       -3.62003054496234       -1.95800781626790
C           -2.05236424110845       -4.78821955767573       -2.64839161998122
C           -3.10879966101598       -5.62330608842928       -2.28985899544841
C           -3.94360070143054       -5.30061743540624       -1.23828929362476
C           -3.70076973997644       -4.13068498195338       -0.52946702898646
C           -4.35913062396565       -3.48724321994603        0.57367040412531
C           -5.46248138376957       -3.81419598226145        1.35181991855757
C           -5.82813930518354       -2.96161574688994        2.37475990361257
C           -5.09907518976722       -1.80338725014918        2.63695251218903
C           -3.99721371288924       -1.45906109892708        1.87763345863630
C           -3.64005371999288       -2.29729671576486        0.83176416991279
C           -2.06381570782531        0.16054308979118       -0.19466478100035
C           -1.11909916882534        1.17854388852795       -0.27444532114739
N           -1.53428607269856        2.51329856504283       -0.38264186390895
C           -1.11463856225012        3.41100701601657       -1.34637690193318
C           -0.24908299538410        3.22246116999305       -2.41463181065974
C           -0.01812441305491        4.29449705278238       -3.25582034984820
C           -0.63612381879833        5.52657193997530       -3.05149719643668
C           -1.51577356237249        5.71367514311638       -2.00374023780900
C           -1.76382652190814        4.65076522641141       -1.14439282403645
C           -2.61005444582690        4.48679836217354        0.00490787746337
C           -3.46512737409242        5.33900146108802        0.69216189170521
C           -4.12846927242417        4.85753738147975        1.80353714312175
C           -3.93539880610146        3.54890660391157        2.24132948474920
C           -3.08958817832202        2.68390356698599        1.57383064766431
C           -2.44005740700478        3.15274658171353        0.44130648086526
C            0.23740928626494        0.87316766191862       -0.27229887908541
C            3.00066650739595        0.02935841390842        0.49385804270865
C            4.36392264382438       -0.27205552726301        0.52419303218151
H            7.41283176191115        1.73658140120957        2.40374287039329
H            9.77799765535478        0.97568455587468        2.33565281964040
H           10.36294541159357       -1.07231339921285        1.08437530063275
H            8.60005119682075       -2.35165848564662       -0.09370745707165
H            4.30078316148938       -3.08475503007461       -1.36270675246992
H            1.90157101324884       -2.52907209120163       -1.40688920112898
H            0.02507857822233       -2.49258663440507       -0.01438671437007
H           -0.98390284048976       -2.96767002354534       -2.25595511740522
H           -1.42743144057700       -5.05814096525053       -3.48724856593434
H           -3.27975171466338       -6.52971167134501       -2.85201582713221
H           -4.77236813274980       -5.93954843903844       -0.97204601338512
H           -6.01835766026571       -4.71981118761817        1.15970756619931
H           -6.68533647781643       -3.19635263173067        2.98866244546505
H           -5.39929587150302       -1.16262287317061        3.45337134961900
H           -3.42638073763341       -0.57129383932622        2.10133414443368
H           -3.11690954164607        0.39415528800206       -0.22769149175792
H            0.22386241378806        2.26840899633387       -2.59215304562560
H            0.65540793401128        4.17344760287736       -4.09180175879917
H           -0.42748977757186        6.34121254139040       -3.72948062278503
H           -2.00579508986370        6.66408108415842       -1.85349367154834
H           -3.60138614544616        6.35849732191336        0.36343959569242
H           -4.79934863570332        5.50384602198874        2.35037543862828
H           -4.45426877906083        3.20422411145933        3.12398841931903
H           -2.92966778666906        1.67953331876381        1.93387747121926
H            0.95964843405315        1.67212868506490       -0.33397464645166
H            2.67693953689624        0.90188955781996        1.04179071026020

          :  Hamiltonian                  GFN2-xTB          :
         :: gradient norm              0.000046481476 Eh/a0 ::
         :: HOMO-LUMO gap              1.866621548943 eV    ::
         :: SCC energy              -121.609393857123 Eh    ::
         :: -> dispersion             -0.102251757994 Eh    ::
         :: -> Gsolv                  -0.052342497657 Eh    ::
         :: repulsion energy           2.148902970493 Eh    ::

    * Orbital Energies and Occupations

         #    Occupation            Energy/Eh            Energy/eV
      -------------------------------------------------------------
         1        2.0000           -0.7572569             -20.6060
       ...           ...                  ...                  ...
        98        2.0000           -0.4203761             -11.4390
        99        2.0000           -0.4198092             -11.4236
       100        2.0000           -0.4183878             -11.3849
       101        2.0000           -0.4157967             -11.3144
       102        2.0000           -0.4154919             -11.3061
       103        2.0000           -0.4065323             -11.0623
       104        2.0000           -0.4060881             -11.0502
       105        2.0000           -0.3973186             -10.8116
       106        2.0000           -0.3942547             -10.7282
       107        2.0000           -0.3799201             -10.3382
       108        2.0000           -0.3794676             -10.3258
       109        2.0000           -0.3664350              -9.9712
       110        2.0000           -0.3635659              -9.8931 (HOMO)
       111                         -0.2949688              -8.0265 (LUMO)
       112                         -0.2673570              -7.2752
       113                         -0.2493572              -6.7854
       114                         -0.2464962              -6.7075
       115                         -0.2454448              -6.6789
       116                         -0.2400989              -6.5334
       117                         -0.2384417              -6.4883
       118                         -0.2232433              -6.0748
       119                         -0.2228103              -6.0630
       120                         -0.2186313              -5.9493
       121                         -0.1969429              -5.3591
       ...                                ...                  ...
       214                          0.7441300              20.2488
      -------------------------------------------------------------
                  HL-Gap            0.0685971 Eh            1.8666 eV

     #   Z          covCN         q      C6AA      α(0)
     1   8 O        0.857    -0.451    22.735     6.393
     2   6 C        2.831     0.223    23.305     7.911
     3   6 C        2.973    -0.043    29.056     8.842
     4   6 C        2.923    -0.018    28.460     8.749
     5   6 C        2.916    -0.032    28.801     8.800
     6   6 C        2.921    -0.018    28.468     8.750
     7   6 C        2.915    -0.049    29.225     8.865
     8   6 C        2.886     0.142    24.900     8.181
     9   8 O        1.711    -0.209    17.481     5.645
    10   6 C        2.886     0.142    24.911     8.183
    11   6 C        2.913    -0.050    29.241     8.867
    12   6 C        2.925    -0.024    28.613     8.772
    13   6 C        2.973     0.011    27.758     8.642
    14   6 C        2.975     0.017    27.623     8.621
    15   6 C        2.927    -0.053    29.323     8.880
    16   6 C        2.910     0.067    26.495     8.440
    17   7 N        2.802    -0.044    22.080     6.979
    18   6 C        3.075     0.046    26.883     8.501
    19   6 C        2.910    -0.052    29.293     8.875
    20   6 C        2.924    -0.035    28.861     8.810
    21   6 C        2.920    -0.042    29.046     8.838
    22   6 C        2.912    -0.034    28.852     8.808
    23   6 C        3.067    -0.018    28.379     8.735
    24   6 C        3.067    -0.018    28.387     8.736
    25   6 C        2.912    -0.034    28.855     8.808
    26   6 C        2.920    -0.042    29.047     8.838
    27   6 C        2.923    -0.034    28.855     8.809
    28   6 C        2.910    -0.051    29.258     8.870
    29   6 C        3.074     0.047    26.876     8.500
    30   6 C        2.924    -0.058    29.435     8.897
    31   6 C        2.910     0.068    26.485     8.439
    32   7 N        2.802    -0.044    22.094     6.981
    33   6 C        3.074     0.047    26.873     8.500
    34   6 C        2.910    -0.052    29.290     8.874
    35   6 C        2.924    -0.035    28.861     8.810
    36   6 C        2.920    -0.042    29.045     8.838
    37   6 C        2.912    -0.034    28.857     8.809
    38   6 C        3.067    -0.018    28.381     8.736
    39   6 C        3.067    -0.018    28.385     8.736
    40   6 C        2.912    -0.034    28.854     8.808
    41   6 C        2.920    -0.042    29.046     8.838
    42   6 C        2.923    -0.034    28.858     8.809
    43   6 C        2.910    -0.051    29.259     8.870
    44   6 C        3.074     0.047    26.871     8.499
    45   6 C        2.927    -0.052    29.291     8.876
    46   6 C        2.928    -0.024    28.595     8.770
    47   6 C        2.972    -0.043    29.062     8.843
    48   1 H        0.926     0.059     2.211     2.325
    49   1 H        0.926     0.056     2.242     2.342
    50   1 H        0.926     0.063     2.169     2.303
    51   1 H        0.926     0.066     2.131     2.283
    52   1 H        0.926     0.068     2.108     2.270
    53   1 H        0.926     0.065     2.142     2.289
    54   1 H        0.926     0.054     2.265     2.354
    55   1 H        0.926     0.031     2.572     2.508
    56   1 H        0.926     0.032     2.561     2.502
    57   1 H        0.926     0.029     2.604     2.524
    58   1 H        0.926     0.031     2.574     2.509
    59   1 H        0.926     0.031     2.569     2.506
    60   1 H        0.926     0.028     2.608     2.525
    61   1 H        0.926     0.030     2.580     2.512
    62   1 H        0.926     0.027     2.631     2.536
    63   1 H        0.926     0.052     2.289     2.366
    64   1 H        0.926     0.031     2.576     2.510
    65   1 H        0.926     0.031     2.575     2.510
    66   1 H        0.926     0.029     2.603     2.523
    67   1 H        0.926     0.031     2.567     2.505
    68   1 H        0.926     0.031     2.568     2.506
    69   1 H        0.926     0.029     2.603     2.523
    70   1 H        0.926     0.031     2.573     2.508
    71   1 H        0.926     0.027     2.623     2.533
    72   1 H        0.926     0.051     2.307     2.375
    73   1 H        0.926     0.061     2.181     2.310

molecular dipole:
                 x           y           z       tot (Debye)
 q only:        1.079      -1.498      -0.800
   full:        1.152      -1.523      -0.795       5.258

 projected vibrational frequencies (cm⁻¹)
eigval :       -0.00    -0.00    -0.00    -0.00     0.00     0.00
eigval :       13.38    16.28    19.60    23.48    27.96    31.67
eigval :       41.45    62.45    67.33    78.88    97.63   101.81
eigval :      117.34   133.78   138.63   139.33   142.00   152.15
eigval :      156.40   194.53   204.59   221.15   247.33   248.40
eigval :      255.82   270.26   270.63   273.29   287.84   310.30
eigval :      321.21   344.01   363.62   377.51   385.42   394.67
eigval :      396.83   412.39   421.52   423.57   429.32   434.77
eigval :      436.73   448.94   463.74   503.34   509.73   511.67
eigval :      518.18   520.12   525.03   533.52   540.74   542.05
eigval :      559.59   568.53   573.78   587.82   589.58   605.45
eigval :      615.68   620.71   632.92   646.22   659.40   663.07
eigval :      671.94   673.44   676.58   690.52   707.36   708.99
eigval :      716.10   743.08   749.08   755.18   765.49   768.00
eigval :      770.06   777.16   779.42   782.66   790.50   828.56
eigval :      841.06   846.14   860.55   867.29   869.60   875.30
eigval :      876.93   883.02   889.88   893.14   896.78   898.48
eigval :      899.58   900.21   903.65   906.22   907.76   919.27
eigval :      920.03   920.59   920.81   923.00   923.70   924.24
eigval :      930.22   985.72  1000.98  1011.18  1013.17  1032.15
eigval :     1066.51  1069.69  1071.69  1073.15  1076.00  1096.25
eigval :     1111.90  1119.02  1124.30  1132.39  1147.93  1151.85
eigval :     1163.53  1166.01  1168.54  1176.82  1178.23  1181.79
eigval :     1182.22  1194.22  1213.91  1218.40  1225.54  1230.86
eigval :     1230.99  1234.83  1236.11  1241.83  1243.10  1271.46
eigval :     1280.05  1295.76  1300.63  1301.37  1304.13  1315.97
eigval :     1331.44  1344.65  1350.24  1356.24  1356.75  1360.40
eigval :     1361.24  1387.56  1402.93  1418.06  1423.23  1426.53
eigval :     1428.44  1430.06  1444.26  1452.20  1456.68  1470.66
eigval :     1475.25  1479.10  1486.85  1487.05  1547.16  1564.70
eigval :     1568.41  1569.15  1573.39  1575.26  1587.92  1588.58
eigval :     1588.71  1593.82  1597.80  1598.40  1612.75  1613.57
eigval :     1638.61  3071.83  3071.85  3072.36  3072.54  3077.62
eigval :     3077.81  3078.63  3078.79  3085.61  3086.26  3087.41
eigval :     3087.63  3088.58  3092.32  3092.44  3092.85  3093.14
eigval :     3095.36  3095.73  3096.63  3101.74  3102.71  3103.77
eigval :     3104.98  3108.51  3109.42

   temp. (K)  partition function   enthalpy   heat capacity  entropy
                                   cal/mol     cal/K/mol   cal/K/mol   J/K/mol
 298.15  VIB  0.192E+16            20437.156    133.014    124.563
         ROT  0.914E+08              888.752      2.981     39.408
         INT  0.175E+24            21325.909    135.995    163.971
         TR   0.143E+29             1481.254      4.968     45.052
         TOT                       22807.1626   140.9628   209.0227   874.5509

       T/K    H(0)-H(T)+PV         H(T)/Eh          T*S/Eh         G(T)/Eh
   ------------------------------------------------------------------------
    298.15    0.363455E-01    0.586052E+00    0.993134E-01    0.486739E+00
   ------------------------------------------------------------------------

         :::::::::::::::::::::::::::::::::::::::::::::::::::::
         ::                  THERMODYNAMIC                  ::
         :::::::::::::::::::::::::::::::::::::::::::::::::::::
         :: total free energy        -118.973752111604 Eh   ::
         ::.................................................::
         :: total energy             -119.460490887770 Eh   ::
         :: zero point energy           0.549706673260 Eh   ::
         :: G(RRHO) w/o ZPVE           -0.062967897093 Eh   ::
         :: G(RRHO) contrib.            0.486738776166 Eh   ::
         :::::::::::::::::::::::::::::::::::::::::::::::::::::

           -------------------------------------------------
          | TOTAL ENERGY             -119.460490887770 Eh   |
          | TOTAL ENTHALPY           -118.874438687380 Eh   |
          | TOTAL FREE ENERGY        -118.973752111604 Eh   |
          | GRADIENT NORM               0.000046518142 Eh/α |
          | HOMO-LUMO GAP               1.866621207906 eV   |
           -------------------------------------------------

 * finished run on 2025/09/10 at 14:13:51.848
