   * xtb version 6.7.1 (edcfbbe) compiled by 'albert@albert-system' on 2024-07-22

   ID    Z sym.   atoms
    1    8 O      1, 9
    2    6 C      2-8, 10-16, 18-31, 33-47
    3    7 N      17, 32
    4    1 H      48-73

          program call               : xtb data2507/toluene/Xm-mCP/Xm-mCP_toluene_T1_crest.xyz --gfn 2 --uhf 2 --gbsa toluene --ohess vtight --parallel 40 --molden --ceasefiles --namespace data2507/toluene/Xm-mCP/Xm-mCP_toluene_T1_finalOpt
      * Solvation model:               GBSA
        Solvent                        toluene
        Solvent mass                       9.2140E+01 g/mol
          :  Hamiltonian                  GFN2-xTB          :
 * total energy  :  -119.3699620 Eh     change       -0.4732357E-09 Eh
 * total energy  :  -119.3701116 Eh     change       -0.1495267E-03 Eh
 * total energy  :  -119.3701588 Eh     change       -0.4729231E-04 Eh
 * total energy  :  -119.3701651 Eh     change       -0.6257037E-05 Eh
 * total energy  :  -119.3701703 Eh     change       -0.5211848E-05 Eh
 * total energy  :  -119.3701783 Eh     change       -0.8000487E-05 Eh
 * total energy  :  -119.3701887 Eh     change       -0.1035167E-04 Eh
 * total energy  :  -119.3701971 Eh     change       -0.8435473E-05 Eh
 * total energy  :  -119.3702031 Eh     change       -0.6004295E-05 Eh
 * total energy  :  -119.3702084 Eh     change       -0.5324723E-05 Eh
 * total energy  :  -119.3702687 Eh     change       -0.2748664E-06 Eh
 * total energy  :  -119.3702690 Eh     change       -0.2599315E-06 Eh
 * total energy  :  -119.3702692 Eh     change       -0.2368565E-06 Eh
 * total energy  :  -119.3702695 Eh     change       -0.2580310E-06 Eh
 * total energy  :  -119.3702697 Eh     change       -0.2803622E-06 Eh
 * total energy  :  -119.3702700 Eh     change       -0.2466344E-06 Eh
 * total energy  :  -119.3702702 Eh     change       -0.1967453E-06 Eh
 * total energy  :  -119.3702704 Eh     change       -0.1784678E-06 Eh
 * total energy  :  -119.3702704 Eh     change       -0.1662031E-08 Eh
   *** GEOMETRY OPTIMIZATION CONVERGED AFTER 44 ITERATIONS ***

 final structure:
================
73
 xtb: 6.7.1 (edcfbbe)
O            5.02064336922047        1.29201937064244       -1.10437836890176
C            5.24877251937729        0.31255814422423       -0.32207889762034
C            6.58301011908709       -0.12709356156482        0.00197412015499
C            7.71528130322691        0.50804772028488       -0.54051688038046
C            8.98645482803223        0.07874483437690       -0.22038324148111
C            9.17248689542921       -0.99281667431492        0.64027877563244
C            8.06810941490991       -1.63968416867951        1.18695522251890
C            6.78939994122852       -1.21511582819542        0.87367797617456
O            5.75193755976264       -1.90058804488684        1.44599023223510
C            4.47620543656169       -1.51511866824364        1.16108510165103
C            3.45189080622812       -2.23142499140746        1.75565781379957
C            2.12431520692979       -1.89626058286035        1.51282147955392
C            1.81118810269754       -0.82632246704239        0.67380078991373
C            0.41300664885709       -0.46169943473086        0.41027860756677
C           -0.55935495592943       -1.44660014958753        0.25365701008089
C           -1.88337708926042       -1.10097337098186       -0.00025809798760
N           -2.84070120403269       -2.10729820607992       -0.18156885371518
C           -2.72221302287080       -3.17579535221494       -1.04849949734048
C           -1.70076072373148       -3.48220518624926       -1.93866164606468
C           -1.84547811776338       -4.61516073725227       -2.71883569621001
C           -2.97919603478062       -5.41886451130168       -2.62919221400992
C           -4.01197253907853       -5.10305498163847       -1.76234947896440
C           -3.88844748558649       -3.97305805535114       -0.96894232378729
C           -4.74604887777584       -3.34616093656959        0.00387515948450
C           -5.99397343347476       -3.65986920679906        0.51987300784940
C           -6.53759089906288       -2.83188007605185        1.48764686717333
C           -5.84347603881302       -1.71756972145877        1.95178612120945
C           -4.59720347847325       -1.38722781936421        1.45217730335323
C           -4.05935439646763       -2.19660504135777        0.46070399684213
C           -2.25387605484649        0.23653418544136       -0.09570629754698
C           -1.28515044460720        1.22413542518767        0.05929143160504
N           -1.63721498121244        2.57322647896800       -0.06653058748212
C           -2.68745928984111        3.20453826336443        0.56964966496353
C           -3.57686781001818        2.70812678355162        1.51313995477982
C           -4.53262637255597        3.57015157047047        2.01880895292232
C           -4.59934182261546        4.89866761010074        1.60757834914798
C           -3.69620516878106        5.40807056735771        0.68934834423752
C           -2.73048155856371        4.56070435821802        0.16896209811312
C           -1.64484634437751        4.74577397620179       -0.75968370203163
C           -1.18916839726354        5.83281116606874       -1.48898172187501
C           -0.09770048502051        5.65907805706546       -2.32376150595060
C            0.52237610326134        4.41833634953448       -2.44602699806422
C            0.08207147125161        3.31896279053814       -1.73161301105529
C           -0.99454698599384        3.49403502324440       -0.87141293491575
C            0.03758643025855        0.87578634948723        0.31491602211456
C            2.83941632561218       -0.10525023976580        0.08004041733494
C            4.18817193095850       -0.43423244727608        0.30211054998152
H            7.55154272912475        1.33971511734499       -1.20932579350236
H            9.84049024398919        0.58620391178564       -0.64482883610372
H           10.16622297219779       -1.32971399155538        0.89029364298551
H            8.18422855941261       -2.47755968875530        1.85711652498742
H            3.70835864900041       -3.04700719010596        2.41375331356978
H            1.34234668131620       -2.45013270133907        2.00697078573392
H           -0.28648685572605       -2.48727978302020        0.32973578335990
H           -0.82628555209443       -2.85620855168446       -2.02839834622791
H           -1.06336296313905       -4.87846810699486       -3.41511123646149
H           -3.05481569157206       -6.29643339274475       -3.25362803771323
H           -4.89606020932838       -5.71940883502951       -1.70697325657706
H           -6.52594903206136       -4.53389371584583        0.17688382443960
H           -7.50997264228470       -3.05749413789196        1.89901264471824
H           -6.28485058492992       -1.10157513038696        2.72078359576136
H           -4.05455934388268       -0.53722503107098        1.83363781464288
H           -3.27164368045673        0.50422921680008       -0.33370524570041
H           -3.51503865927976        1.68772541634101        1.85546206147235
H           -5.23781843794329        3.20635968613880        2.75087114279040
H           -5.36044736510075        5.54267777674758        2.02181599639016
H           -3.73768561248867        6.44337596551710        0.38796495924991
H           -1.67631194100612        6.79235075645081       -1.40849596962998
H            0.27577504113928        6.49407508256920       -2.89727007791440
H            1.36444964642493        4.30851875902393       -3.11296903016239
H            0.55974682573806        2.35870949124320       -1.84951537800868
H            0.77205426615964        1.65008242483257        0.47221128311867
H            2.63973746590085        0.71172554363444       -0.59595911162278

          :  Hamiltonian                  GFN2-xTB          :
         :: gradient norm              0.000032361376 Eh/a0 ::
         :: HOMO-LUMO gap              0.384918742099 eV    ::
         :: SCC energy              -121.504291784457 Eh    ::
         :: -> dispersion             -0.102360641524 Eh    ::
         :: -> Gsolv                  -0.062649585686 Eh    ::
         :: repulsion energy           2.134021415045 Eh    ::

    * Orbital Energies and Occupations

         #    Occupation            Energy/Eh            Energy/eV
      -------------------------------------------------------------
         1        2.0000           -0.7334094             -19.9571
       ...           ...                  ...                  ...
        99        2.0000           -0.4189417             -11.4000
       100        2.0000           -0.4188195             -11.3967
       101        2.0000           -0.4183911             -11.3850
       102        2.0000           -0.4068377             -11.0706
       103        2.0000           -0.4055376             -11.0352
       104        2.0000           -0.4020418             -10.9401
       105        2.0000           -0.3926621             -10.6849
       106        2.0000           -0.3925752             -10.6825
       107        1.9864           -0.3806453             -10.3579
       108        1.9151           -0.3788308             -10.3085
       109        1.5902           -0.3769185             -10.2565
       110        1.5083           -0.3766033             -10.2479
       111        0.9994           -0.2777472              -7.5579 (HOMO)
       112        0.0006           -0.2636016              -7.1730 (LUMO)
       113        0.0000           -0.2607077              -7.0942
       114        0.0000           -0.2570316              -6.9942
       115                         -0.2513708              -6.8401
       116                         -0.2364638              -6.4345
       117                         -0.2364277              -6.4335
       118                         -0.2285487              -6.2191
       119                         -0.2232896              -6.0760
       120                         -0.2115130              -5.7556
       121                         -0.2025081              -5.5105
       122                         -0.2000103              -5.4426
       ...                                ...                  ...
       214                          0.7312969              19.8996
      -------------------------------------------------------------
                  HL-Gap            0.0141456 Eh            0.3849 eV

     #   Z          covCN         q      C6AA      α(0)
     1   8 O        0.857    -0.502    23.830     6.545
     2   6 C        2.836     0.164    24.457     8.104
     3   6 C        2.975    -0.036    28.891     8.817
     4   6 C        2.921    -0.041    29.025     8.835
     5   6 C        2.914    -0.037    28.909     8.817
     6   6 C        2.918    -0.045    29.116     8.849
     7   6 C        2.915    -0.059    29.477     8.903
     8   6 C        2.879     0.127    25.210     8.231
     9   8 O        1.710    -0.248    18.111     5.746
    10   6 C        2.878     0.131    25.124     8.217
    11   6 C        2.913    -0.062    29.535     8.912
    12   6 C        2.922    -0.050    29.250     8.869
    13   6 C        2.972     0.003    27.960     8.673
    14   6 C        2.975     0.025    27.439     8.592
    15   6 C        2.927    -0.045    29.109     8.848
    16   6 C        2.910     0.066    26.512     8.443
    17   7 N        2.803    -0.014    21.520     6.890
    18   6 C        3.072     0.046    26.885     8.502
    19   6 C        2.909    -0.043    29.068     8.841
    20   6 C        2.923    -0.030    28.739     8.791
    21   6 C        2.920    -0.032    28.806     8.801
    22   6 C        2.912    -0.028    28.706     8.786
    23   6 C        3.065    -0.011    28.212     8.710
    24   6 C        3.065    -0.010    28.212     8.710
    25   6 C        2.912    -0.028    28.703     8.785
    26   6 C        2.920    -0.033    28.816     8.803
    27   6 C        2.923    -0.030    28.749     8.793
    28   6 C        2.910    -0.043    29.069     8.841
    29   6 C        3.071     0.046    26.892     8.503
    30   6 C        2.923    -0.059    29.455     8.900
    31   6 C        2.911     0.067    26.504     8.442
    32   7 N        2.803    -0.013    21.508     6.888
    33   6 C        3.071     0.046    26.888     8.502
    34   6 C        2.910    -0.043    29.061     8.840
    35   6 C        2.922    -0.030    28.748     8.793
    36   6 C        2.920    -0.032    28.805     8.801
    37   6 C        2.912    -0.028    28.696     8.784
    38   6 C        3.064    -0.010    28.202     8.708
    39   6 C        3.065    -0.010    28.212     8.710
    40   6 C        2.912    -0.028    28.703     8.785
    41   6 C        2.920    -0.032    28.788     8.799
    42   6 C        2.923    -0.029    28.714     8.788
    43   6 C        2.909    -0.041    29.015     8.833
    44   6 C        3.071     0.047    26.869     8.499
    45   6 C        2.927    -0.045    29.108     8.848
    46   6 C        2.927    -0.048    29.185     8.860
    47   6 C        2.973    -0.037    28.916     8.821
    48   1 H        0.926     0.033     2.544     2.494
    49   1 H        0.926     0.037     2.485     2.465
    50   1 H        0.926     0.039     2.458     2.452
    51   1 H        0.926     0.045     2.388     2.416
    52   1 H        0.926     0.046     2.364     2.404
    53   1 H        0.926     0.045     2.378     2.411
    54   1 H        0.926     0.063     2.168     2.303
    55   1 H        0.926     0.041     2.435     2.440
    56   1 H        0.926     0.041     2.439     2.442
    57   1 H        0.926     0.041     2.434     2.439
    58   1 H        0.926     0.045     2.389     2.417
    59   1 H        0.926     0.044     2.401     2.423
    60   1 H        0.926     0.041     2.431     2.438
    61   1 H        0.926     0.043     2.405     2.425
    62   1 H        0.926     0.040     2.444     2.445
    63   1 H        0.926     0.063     2.161     2.299
    64   1 H        0.926     0.042     2.425     2.435
    65   1 H        0.926     0.045     2.389     2.417
    66   1 H        0.926     0.042     2.416     2.431
    67   1 H        0.926     0.044     2.393     2.419
    68   1 H        0.926     0.046     2.371     2.408
    69   1 H        0.926     0.042     2.426     2.436
    70   1 H        0.926     0.040     2.453     2.449
    71   1 H        0.926     0.039     2.460     2.453
    72   1 H        0.926     0.057     2.237     2.339
    73   1 H        0.926     0.037     2.493     2.469

molecular dipole:
                 x           y           z       tot (Debye)
 q only:       -6.394      -0.521       0.596
   full:       -6.108      -0.559       0.592      15.663

 projected vibrational frequencies (cm⁻¹)
eigval :       -0.00    -0.00    -0.00     0.00     0.00     0.00
eigval :       13.46    17.31    18.97    25.57    26.28    28.72
eigval :       42.22    62.87    68.31    76.18    98.26    99.35
eigval :      111.38   133.67   136.22   143.54   144.31   146.77
eigval :      154.94   192.75   206.52   222.21   244.31   249.06
eigval :      253.90   267.62   270.12   271.93   284.86   309.80
eigval :      318.06   322.63   350.30   367.20   378.24   391.11
eigval :      394.73   398.64   406.73   418.26   420.18   433.08
eigval :      434.85   441.85   458.81   492.89   496.96   508.84
eigval :      514.23   514.79   521.04   530.40   535.56   536.35
eigval :      545.82   559.81   566.57   581.39   583.95   585.92
eigval :      590.63   616.64   619.64   628.33   643.38   655.92
eigval :      658.95   670.13   673.77   674.98   677.52   707.51
eigval :      709.65   710.65   747.30   747.39   753.11   763.16
eigval :      767.43   767.97   771.32   772.41   777.48   793.35
eigval :      816.28   828.58   834.03   842.73   858.21   860.45
eigval :      863.06   865.16   868.06   871.27   872.96   890.91
eigval :      894.51   895.16   895.65   899.55   901.03   906.14
eigval :      907.12   910.05   911.22   918.61   920.52   921.61
eigval :      923.51   981.64   999.13  1009.77  1011.84  1031.09
eigval :     1062.72  1066.93  1068.45  1070.21  1071.71  1089.04
eigval :     1097.55  1105.45  1115.28  1120.74  1136.50  1140.79
eigval :     1157.87  1159.93  1161.73  1172.43  1173.93  1175.44
eigval :     1177.43  1178.39  1189.79  1196.38  1213.31  1222.32
eigval :     1223.99  1225.90  1227.81  1228.64  1239.00  1243.04
eigval :     1271.52  1279.67  1281.54  1286.74  1292.59  1315.86
eigval :     1319.67  1329.97  1332.92  1334.86  1348.24  1356.70
eigval :     1358.24  1360.39  1374.87  1401.91  1406.08  1407.11
eigval :     1409.43  1414.68  1422.11  1433.39  1440.17  1448.48
eigval :     1459.39  1461.12  1470.39  1478.03  1478.97  1493.78
eigval :     1509.94  1527.48  1544.10  1550.76  1560.69  1562.05
eigval :     1563.68  1575.48  1576.81  1577.97  1580.63  1596.16
eigval :     1602.38  3073.58  3081.65  3081.82  3082.64  3083.44
eigval :     3087.10  3087.83  3087.96  3089.35  3089.87  3091.90
eigval :     3093.34  3093.96  3095.61  3096.44  3097.72  3098.13
eigval :     3099.41  3100.21  3100.99  3103.83  3104.26  3104.81
eigval :     3106.25  3106.70  3108.82

   temp. (K)  partition function   enthalpy   heat capacity  entropy
                                   cal/mol     cal/K/mol   cal/K/mol   J/K/mol
 298.15  VIB  0.272E+16            20730.123    135.006    126.166
         ROT  0.895E+08              888.752      2.981     39.367
         INT  0.243E+24            21618.875    137.987    165.534
         TR   0.143E+29             1481.254      4.968     45.052
         TOT                       23100.1294   142.9549   210.5854   881.0894

       T/K    H(0)-H(T)+PV         H(T)/Eh          T*S/Eh         G(T)/Eh
   ------------------------------------------------------------------------
    298.15    0.368124E-01    0.581969E+00    0.100056E+00    0.481914E+00
   ------------------------------------------------------------------------

         :::::::::::::::::::::::::::::::::::::::::::::::::::::
         ::                  THERMODYNAMIC                  ::
         :::::::::::::::::::::::::::::::::::::::::::::::::::::
         :: total free energy        -118.888356828311 Eh   ::
         ::.................................................::
         :: total energy             -119.370270364724 Eh   ::
         :: zero point energy           0.545157061257 Eh   ::
         :: G(RRHO) w/o ZPVE           -0.063243524844 Eh   ::
         :: G(RRHO) contrib.            0.481913536413 Eh   ::
         :::::::::::::::::::::::::::::::::::::::::::::::::::::

           -------------------------------------------------
          | TOTAL ENERGY             -119.370270364724 Eh   |
          | TOTAL ENTHALPY           -118.788300904040 Eh   |
          | TOTAL FREE ENERGY        -118.888356828311 Eh   |
          | GRADIENT NORM               0.000032732952 Eh/α |
          | HOMO-LUMO GAP               0.384920319159 eV   |
           -------------------------------------------------

 * finished run on 2025/09/10 at 14:29:02.179
