   * xtb version 6.7.1 (edcfbbe) compiled by 'albert@albert-system' on 2024-07-22

   ID    Z sym.   atoms
    1    8 O      1, 9
    2    6 C      2-8, 10-16, 18-31, 33-47
    3    7 N      17, 32
    4    1 H      48-73

          program call               : xtb data2507/toluene/Xm-mCP/Xm-mCP_toluene_S0_finalOpt.xtbopt.xyz --gfn 2 --uhf 2 --gbsa toluene --ohess vtight --parallel 40 --molden --ceasefiles --namespace data2507/toluene/Xm-mCP/Xm-mCP_toluene_T1_preOpt
      * Solvation model:               GBSA
        Solvent                        toluene
        Solvent mass                       9.2140E+01 g/mol
          :  Hamiltonian                  GFN2-xTB          :
 * total energy  :  -119.3663338 Eh     change       -0.7822308E-08 Eh
 * total energy  :  -119.3693895 Eh     change       -0.3055664E-02 Eh
 * total energy  :  -119.3701510 Eh     change       -0.7615744E-03 Eh
 * total energy  :  -119.3701905 Eh     change       -0.3947116E-04 Eh
 * total energy  :  -119.3701986 Eh     change       -0.8149309E-05 Eh
 * total energy  :  -119.3702015 Eh     change       -0.2883816E-05 Eh
 * total energy  :  -119.3702036 Eh     change       -0.2102979E-05 Eh
 * total energy  :  -119.3702057 Eh     change       -0.2041204E-05 Eh
 * total energy  :  -119.3702068 Eh     change       -0.1152405E-05 Eh
 * total energy  :  -119.3702081 Eh     change       -0.1257240E-05 Eh
 * total energy  :  -119.3702104 Eh     change       -0.1138637E-05 Eh
 * total energy  :  -119.3702118 Eh     change       -0.1345530E-05 Eh
 * total energy  :  -119.3702134 Eh     change       -0.1652688E-05 Eh
 * total energy  :  -119.3702150 Eh     change       -0.1576971E-05 Eh
 * total energy  :  -119.3702160 Eh     change       -0.1022686E-05 Eh
 * total energy  :  -119.3702166 Eh     change       -0.5347120E-06 Eh
 * total energy  :  -119.3702168 Eh     change       -0.2897939E-06 Eh
 * total energy  :  -119.3702170 Eh     change       -0.1509628E-06 Eh
 * total energy  :  -119.3702170 Eh     change       -0.1168192E-07 Eh
   *** GEOMETRY OPTIMIZATION CONVERGED AFTER 20 ITERATIONS ***

 final structure:
================
73
 xtb: 6.7.1 (edcfbbe)
O            4.97478209475411        1.38411506596428        1.20585985944719
C            5.22370658869470        0.29463038975740        0.59392503726155
C            6.56339228429039       -0.20898177130386        0.42061788440206
C            7.67735475383759        0.48207316142940        0.93140180059906
C            8.95409666400990       -0.01060888703400        0.75737030043359
C            9.16384151277989       -1.20014807267610        0.07577058027742
C            8.07769027420345       -1.90293523973398       -0.43759393782680
C            6.79376470880969       -1.41624302879959       -0.26925723823923
O            5.77503752899365       -2.16083021670855       -0.79973823531289
C            4.49477706691900       -1.72020005369882       -0.64957464657819
C            3.48922901996480       -2.50148597622475       -1.19249470043341
C            2.15797374059850       -2.11682567714389       -1.07734517991084
C            1.82106275650170       -0.93348766985460       -0.41855200352828
C            0.41917848686837       -0.51615585951714       -0.29038283633899
C           -0.58322267452994       -1.45746729089352       -0.06881402727577
C           -1.91094692385707       -1.06060557196138        0.05603883043060
N           -2.90669087473432       -2.02017198292977        0.27806740103418
C           -3.08127215320903       -3.17552896179806       -0.45721859779658
C           -2.39968149856806       -3.61561613219042       -1.58469704417367
C           -2.79981508868834       -4.81099102227817       -2.15361674925573
C           -3.85737573881523       -5.54743855576309       -1.62564838243229
C           -4.55782403923216       -5.09925499133499       -0.51829967050837
C           -4.17349401198325       -3.90404010519969        0.06974623024935
C           -4.67079666165040       -3.14203408878558        1.18637470222124
C           -5.69736375938026       -3.34263077239926        2.09609657614912
C           -5.89829908443941       -2.39586701106160        3.08647852196957
C           -5.08049317828296       -1.27300032626625        3.18294650805859
C           -4.04938190384955       -1.05254084699875        2.28778368276498
C           -3.85984044185494       -1.98569089692917        1.27634470700193
C           -2.25069258415826        0.28601731492168       -0.02411921330956
C           -1.25203548998203        1.23087516356247       -0.24171888382794
N           -1.58419335275312        2.58821709912821       -0.32627719727038
C           -2.58329239984415        3.13095854701966       -1.11011625742217
C           -3.44452627211976        2.50792100149384       -2.00462296560406
C           -4.34704217862700        3.30127720422100       -2.68979163417978
C           -4.38998297453352        4.68022535299814       -2.50245476550825
C           -3.51646731802490        5.30991744273330       -1.63145516869509
C           -2.60389929493158        4.53480097667336       -0.93295485337522
C           -1.55985884744984        4.84282845436905        0.01067859631737
C           -1.10933663408809        6.02178798708635        0.58378887144965
C           -0.06547462035550        5.95966033839806        1.49195940116138
C            0.51090440158274        4.74119120273458        1.84165886360766
C            0.07460027003566        3.55208487867920        1.28627835340268
C           -0.95259259426877        3.61153808118486        0.35289831366231
C            0.07242240790532        0.82978734965248       -0.38191421955588
C            2.83147158718627       -0.14805822769870        0.12294392268234
C            4.18292674241692       -0.52157019896628        0.02571955749272
H            7.49511161674676        1.40619411818392        1.45921387095297
H            9.79393842419693        0.53941247816338        1.15640790478586
H           10.16185639369610       -1.58608362660837       -0.06004485236252
H            8.21203546583201       -2.83162594924426       -0.97059504248642
H            3.76360365083442       -3.40860175540485       -1.70813749183653
H            1.39409346052108       -2.72923214926535       -1.52819270192056
H           -0.32633813093290       -2.49855403909774        0.04705153053296
H           -1.59295231752510       -3.04000200311087       -2.01138721388095
H           -2.28360337592794       -5.17846986724668       -3.02792739315595
H           -4.13974178764387       -6.47751104790116       -2.09576172225877
H           -5.38751578973282       -5.66455728548673       -0.12261644974404
H           -6.32204806800364       -4.22044698072132        2.03460545132630
H           -6.69433751686303       -2.53255887251232        3.80299525043926
H           -5.25093216327306       -0.56111453264856        3.97663854001326
H           -3.40780184919165       -0.19047121228527        2.38534193320453
H           -3.27822086315959        0.59570994839711        0.08452668773262
H           -3.40482556065207        1.44334209090201       -2.17512440883315
H           -5.02911982712358        2.84084626541984       -3.38869679620728
H           -5.10915995553877        5.26648570343060       -3.05441175329741
H           -3.54011321519967        6.38093735545665       -1.50169117007379
H           -1.56446819253510        6.96633359322725        0.32836663546148
H            0.30449102792538        6.86731484350003        1.94472207381598
H            1.31611227574532        4.72082352119795        2.56087881876554
H            0.51784504339736        2.61264523032716        1.57826942492058
H            0.83230378149069        1.56472344582868       -0.59622164993852
H            2.61268325973138        0.75988759777012        0.66323969521990

          :  Hamiltonian                  GFN2-xTB          :
         :: gradient norm              0.000142025076 Eh/a0 ::
         :: HOMO-LUMO gap              0.385998488855 eV    ::
         :: SCC energy              -121.503565456744 Eh    ::
         :: -> dispersion             -0.101769155322 Eh    ::
         :: -> Gsolv                  -0.062647453309 Eh    ::
         :: repulsion energy           2.133348451595 Eh    ::

    * Orbital Energies and Occupations

         #    Occupation            Energy/Eh            Energy/eV
      -------------------------------------------------------------
         1        2.0000           -0.7340771             -19.9753
       ...           ...                  ...                  ...
        99        2.0000           -0.4189755             -11.4009
       100        2.0000           -0.4185673             -11.3898
       101        2.0000           -0.4183930             -11.3851
       102        2.0000           -0.4069561             -11.0738
       103        2.0000           -0.4058245             -11.0430
       104        2.0000           -0.4023403             -10.9482
       105        2.0000           -0.3924733             -10.6797
       106        2.0000           -0.3922464             -10.6736
       107        1.9823           -0.3805154             -10.3544
       108        1.7536           -0.3777618             -10.2794
       109        1.7316           -0.3776524             -10.2764
       110        1.5325           -0.3768232             -10.2539
       111        0.9994           -0.2779759              -7.5641 (HOMO)
       112        0.0006           -0.2637905              -7.1781 (LUMO)
       113        0.0000           -0.2603821              -7.0854
       114        0.0000           -0.2568166              -6.9883
       115                         -0.2509072              -6.8275
       116                         -0.2362935              -6.4299
       117                         -0.2361649              -6.4264
       118                         -0.2287781              -6.2254
       119                         -0.2236959              -6.0871
       120                         -0.2113363              -5.7508
       121                         -0.2029571              -5.5227
       122                         -0.1992471              -5.4218
       ...                                ...                  ...
       214                          0.7310174              19.8920
      -------------------------------------------------------------
                  HL-Gap            0.0141855 Eh            0.3860 eV

     #   Z          covCN         q      C6AA      α(0)
     1   8 O        0.857    -0.502    23.836     6.546
     2   6 C        2.836     0.164    24.458     8.104
     3   6 C        2.975    -0.036    28.889     8.816
     4   6 C        2.921    -0.041    29.020     8.834
     5   6 C        2.914    -0.036    28.898     8.815
     6   6 C        2.918    -0.045    29.114     8.848
     7   6 C        2.915    -0.059    29.468     8.902
     8   6 C        2.879     0.127    25.209     8.231
     9   8 O        1.710    -0.247    18.084     5.742
    10   6 C        2.878     0.132    25.117     8.216
    11   6 C        2.913    -0.062    29.532     8.911
    12   6 C        2.922    -0.050    29.244     8.868
    13   6 C        2.972     0.004    27.938     8.670
    14   6 C        2.975     0.025    27.443     8.593
    15   6 C        2.927    -0.046    29.148     8.854
    16   6 C        2.910     0.066    26.518     8.444
    17   7 N        2.803    -0.014    21.530     6.891
    18   6 C        3.072     0.046    26.887     8.502
    19   6 C        2.909    -0.043    29.077     8.842
    20   6 C        2.923    -0.030    28.746     8.792
    21   6 C        2.920    -0.033    28.815     8.803
    22   6 C        2.912    -0.028    28.705     8.786
    23   6 C        3.064    -0.011    28.217     8.711
    24   6 C        3.065    -0.011    28.213     8.710
    25   6 C        2.912    -0.028    28.705     8.785
    26   6 C        2.920    -0.033    28.813     8.802
    27   6 C        2.923    -0.030    28.748     8.793
    28   6 C        2.909    -0.044    29.085     8.843
    29   6 C        3.070     0.046    26.890     8.503
    30   6 C        2.924    -0.058    29.441     8.898
    31   6 C        2.910     0.067    26.511     8.443
    32   7 N        2.803    -0.014    21.524     6.891
    33   6 C        3.069     0.047    26.886     8.502
    34   6 C        2.909    -0.044    29.081     8.843
    35   6 C        2.923    -0.030    28.749     8.793
    36   6 C        2.920    -0.032    28.804     8.801
    37   6 C        2.912    -0.028    28.698     8.784
    38   6 C        3.065    -0.010    28.202     8.708
    39   6 C        3.065    -0.011    28.219     8.711
    40   6 C        2.912    -0.028    28.705     8.785
    41   6 C        2.920    -0.032    28.794     8.800
    42   6 C        2.923    -0.029    28.718     8.788
    43   6 C        2.909    -0.041    29.022     8.834
    44   6 C        3.070     0.047    26.869     8.499
    45   6 C        2.927    -0.045    29.122     8.850
    46   6 C        2.927    -0.047    29.176     8.858
    47   6 C        2.973    -0.037    28.913     8.820
    48   1 H        0.926     0.033     2.539     2.492
    49   1 H        0.926     0.038     2.481     2.463
    50   1 H        0.926     0.040     2.453     2.449
    51   1 H        0.926     0.045     2.382     2.413
    52   1 H        0.926     0.047     2.355     2.400
    53   1 H        0.926     0.045     2.377     2.411
    54   1 H        0.926     0.062     2.181     2.309
    55   1 H        0.926     0.042     2.427     2.436
    56   1 H        0.926     0.042     2.426     2.436
    57   1 H        0.926     0.041     2.436     2.441
    58   1 H        0.926     0.044     2.399     2.422
    59   1 H        0.926     0.044     2.397     2.421
    60   1 H        0.926     0.041     2.434     2.440
    61   1 H        0.926     0.042     2.425     2.435
    62   1 H        0.926     0.041     2.430     2.438
    63   1 H        0.926     0.065     2.145     2.290
    64   1 H        0.926     0.044     2.400     2.423
    65   1 H        0.926     0.044     2.401     2.423
    66   1 H        0.926     0.042     2.419     2.432
    67   1 H        0.926     0.044     2.392     2.419
    68   1 H        0.926     0.046     2.376     2.410
    69   1 H        0.926     0.041     2.431     2.438
    70   1 H        0.926     0.039     2.457     2.451
    71   1 H        0.926     0.039     2.464     2.455
    72   1 H        0.926     0.056     2.243     2.342
    73   1 H        0.926     0.037     2.486     2.466

molecular dipole:
                 x           y           z       tot (Debye)
 q only:       -6.257      -0.556      -0.897
   full:       -5.981      -0.594      -0.879      15.440

 projected vibrational frequencies (cm⁻¹)
eigval :       -0.00     0.00     0.00     0.00     0.00     0.00
eigval :       13.45    18.26    21.09    22.08    25.46    32.66
eigval :       40.53    69.43    70.36    77.86    98.41   104.64
eigval :      113.32   133.39   138.82   141.19   144.37   146.67
eigval :      154.87   193.04   208.08   233.44   241.06   245.84
eigval :      250.52   267.73   268.45   270.91   285.79   308.50
eigval :      318.77   329.54   350.88   362.10   378.94   391.35
eigval :      393.18   399.16   406.81   418.58   419.92   434.03
eigval :      434.60   442.48   467.44   493.89   497.22   505.70
eigval :      513.77   514.75   519.55   531.61   535.62   536.45
eigval :      545.67   550.60   560.84   583.32   584.22   585.72
eigval :      601.54   618.37   620.69   631.97   633.21   655.09
eigval :      658.62   670.47   673.59   675.65   679.80   707.31
eigval :      708.90   710.13   747.59   750.81   752.29   767.45
eigval :      768.69   768.88   771.54   777.34   778.20   789.01
eigval :      815.67   829.09   832.78   842.45   860.04   863.21
eigval :      865.75   865.84   869.63   872.49   874.25   891.66
eigval :      893.91   896.57   898.28   899.86   904.76   905.60
eigval :      908.63   909.46   910.67   922.46   923.71   924.82
eigval :      929.78   982.00   998.71  1009.79  1011.41  1031.85
eigval :     1067.01  1067.46  1069.35  1070.51  1072.54  1089.06
eigval :     1097.32  1105.84  1117.08  1121.11  1140.94  1141.09
eigval :     1158.04  1161.42  1162.63  1174.48  1175.86  1176.98
eigval :     1178.41  1178.64  1190.30  1195.97  1214.43  1224.04
eigval :     1225.31  1226.79  1228.33  1229.78  1239.27  1242.79
eigval :     1271.60  1281.05  1282.19  1287.17  1292.53  1315.93
eigval :     1320.23  1330.35  1331.97  1333.93  1348.85  1356.46
eigval :     1357.83  1361.13  1375.70  1402.75  1405.29  1407.58
eigval :     1410.74  1414.27  1421.68  1434.65  1441.41  1448.00
eigval :     1459.29  1461.05  1470.36  1478.18  1478.58  1492.30
eigval :     1508.72  1525.38  1545.48  1546.12  1560.68  1561.34
eigval :     1562.45  1575.16  1576.19  1576.74  1579.87  1595.95
eigval :     1601.90  3073.65  3081.38  3081.79  3082.23  3082.69
eigval :     3086.88  3087.31  3088.04  3088.19  3088.87  3092.21
eigval :     3093.58  3093.99  3094.22  3095.26  3095.70  3096.58
eigval :     3099.56  3099.82  3100.25  3100.80  3101.74  3105.01
eigval :     3108.07  3108.47  3109.22

   temp. (K)  partition function   enthalpy   heat capacity  entropy
                                   cal/mol     cal/K/mol   cal/K/mol   J/K/mol
 298.15  VIB  0.208E+16            20693.126    135.013    125.738
         ROT  0.902E+08              888.752      2.981     39.382
         INT  0.188E+24            21581.878    137.994    165.120
         TR   0.143E+29             1481.254      4.968     45.052
         TOT                       23063.1320   142.9621   210.1712   879.3565

       T/K    H(0)-H(T)+PV         H(T)/Eh          T*S/Eh         G(T)/Eh
   ------------------------------------------------------------------------
    298.15    0.367534E-01    0.582093E+00    0.998591E-01    0.482234E+00
   ------------------------------------------------------------------------

         :::::::::::::::::::::::::::::::::::::::::::::::::::::
         ::                  THERMODYNAMIC                  ::
         :::::::::::::::::::::::::::::::::::::::::::::::::::::
         :: total free energy        -118.887982878318 Eh   ::
         ::.................................................::
         :: total energy             -119.370217003646 Eh   ::
         :: zero point energy           0.545339823553 Eh   ::
         :: G(RRHO) w/o ZPVE           -0.063105698225 Eh   ::
         :: G(RRHO) contrib.            0.482234125328 Eh   ::
         :::::::::::::::::::::::::::::::::::::::::::::::::::::

           -------------------------------------------------
          | TOTAL ENERGY             -119.370217003646 Eh   |
          | TOTAL ENTHALPY           -118.788123739816 Eh   |
          | TOTAL FREE ENERGY        -118.887982878318 Eh   |
          | GRADIENT NORM               0.000137962702 Eh/α |
          | HOMO-LUMO GAP               0.386006380740 eV   |
           -------------------------------------------------

 * finished run on 2025/09/10 at 14:18:10.167
