   * xtb version 6.7.1 (edcfbbe) compiled by 'albert@albert-system' on 2024-07-22

   ID    Z sym.   atoms
    1    6 C      1-4, 6-14, 16-19, 21, 22, 24, 25, 27-31, 33-42, 44, 46
    2    7 N      5, 15, 20, 23, 26, 32
    3    8 O      43, 45
    4    1 H      47-94

          program call               : xtb data2507/toluene/Pd-1/Pd-1.xyz --gfn 2 --gbsa toluene --ohess vtight --parallel 40 --molden --ceasefiles --namespace data2507/toluene/Pd-1/Pd-1_toluene_S0_preOpt
      * Solvation model:               GBSA
        Solvent                        toluene
        Solvent mass                       9.2140E+01 g/mol
          :  Hamiltonian                  GFN2-xTB          :
 * total energy  :  -131.5060397 Eh     change       -0.6461619E-08 Eh
 * total energy  :  -131.5232730 Eh     change       -0.1723323E-01 Eh
 * total energy  :  -131.5291557 Eh     change       -0.5882748E-02 Eh
 * total energy  :  -131.5312131 Eh     change       -0.2057392E-02 Eh
 * total energy  :  -131.5332078 Eh     change       -0.1994638E-02 Eh
 * total energy  :  -131.5349628 Eh     change       -0.1755031E-02 Eh
 * total energy  :  -131.5368038 Eh     change       -0.1841016E-02 Eh
 * total energy  :  -131.5381650 Eh     change       -0.1361175E-02 Eh
 * total energy  :  -131.5393358 Eh     change       -0.1170856E-02 Eh
 * total energy  :  -131.5404060 Eh     change       -0.1070122E-02 Eh
 * total energy  :  -131.5608261 Eh     change       -0.1598546E-06 Eh
 * total energy  :  -131.5608262 Eh     change       -0.1504776E-06 Eh
 * total energy  :  -131.5608264 Eh     change       -0.1324441E-06 Eh
 * total energy  :  -131.5608265 Eh     change       -0.1325060E-06 Eh
 * total energy  :  -131.5608266 Eh     change       -0.1246497E-06 Eh
 * total energy  :  -131.5608267 Eh     change       -0.1155812E-06 Eh
 * total energy  :  -131.5608269 Eh     change       -0.1114780E-06 Eh
 * total energy  :  -131.5608270 Eh     change       -0.1036862E-06 Eh
 * total energy  :  -131.5608271 Eh     change       -0.9858229E-07 Eh
   *** GEOMETRY OPTIMIZATION CONVERGED AFTER 414 ITERATIONS ***

 final structure:
================
94
 xtb: 6.7.1 (edcfbbe)
C            5.62086683368217        0.11536107265363        1.90706779997958
C            5.21565210289043        1.16817238742403        2.93251714028075
C            4.75496961605530        2.49301379104633        2.31933773965045
C            3.31715317977450        2.50906880492006        1.77812607140666
N            3.11879113667266        1.84657539098028        0.50517641148756
C            3.60433454083214        2.57014428753987       -0.65560372197752
C            4.81796350459439        1.90325620197700       -1.31590096355244
C            5.20627576146172        2.56845626854379       -2.63705018760922
C            5.73549831262374        3.98879519812107       -2.46398469950453
C            2.45402342218642        0.67233668016095        0.37495228424679
C            2.06961256543218        0.18118013821143       -0.89963858377252
C            1.38242222893370       -0.99104620749974       -1.03067179055939
C            1.02590826034175       -1.77931231869055        0.07698206609705
C            0.29118150185687       -2.98032404201580       -0.09038786464612
N           -0.09534518749540       -3.69355876962385        0.91404090864774
C           -0.78627879324759       -4.86766255420113        0.81060930324646
C           -0.52105817543627       -5.82593730981029       -0.16023342492841
C           -1.20547114790910       -7.03769246518014       -0.18751799501689
C           -0.91998848457287       -7.98286757974281       -1.18932312419430
N           -0.67151866593300       -8.73695609468553       -2.02012414182047
C           -2.18257174523520       -7.30473996272488        0.79415240561455
C           -2.88315743935977       -8.52740882265106        0.77725058695051
N           -3.46167739426087       -9.51931163153479        0.77163196265770
C           -2.44445552691860       -6.36531723232481        1.78131277095948
C           -1.76924607274348       -5.14136586431150        1.81563213413946
N           -1.95790388406423       -4.31909420608962        2.87095930640447
C           -1.99902909460463       -3.04206802721291        2.96117157224758
C           -2.21161472868697       -2.01392490105801        1.98267900779280
C           -1.75429568347931       -0.72029821633612        2.29911514131300
C           -1.75830196619949        0.30473567349762        1.39732345539309
C           -2.25562781875099        0.12385433643011        0.08513825838313
N           -2.20510144921173        1.11243586289505       -0.84094387104390
C           -1.85095365548359        2.46906297272047       -0.47442178865441
C           -2.95041979129197        3.19274901970348        0.31347868509190
C           -2.50860907923541        4.59487887046939        0.72803648940813
C           -3.59616677680486        5.31705151913730        1.51510705926429
C           -2.61257422039696        0.88728734025592       -2.21120827019172
C           -4.10790230883217        1.12192385605558       -2.45972835080130
C           -4.49914725010829        0.75597267394323       -3.89008612863131
C           -5.97717407410528        1.01845250263383       -4.15543141056300
C           -2.80486811375278       -1.13675911367483       -0.20343764545474
C           -2.79061490715129       -2.17369281519568        0.70650185938751
O           -3.41934020277081       -3.32118720101731        0.31848986611386
C            1.41599775830972       -1.30694487284782        1.35527132990734
O            1.13131092984057       -2.00155174811917        2.47301759582714
C            2.10471190242149       -0.11818716826800        1.48334453924984
H            4.78924664230581       -0.15084427431758        1.26189003929617
H            5.95600063121436       -0.78782381532139        2.41362030332826
H            6.44006946727532        0.47935585585875        1.29038396364781
H            4.42756711782842        0.76831226450863        3.57413400876460
H            6.07791392493997        1.37245831256845        3.57280968345243
H            5.44725372007541        2.78501381347006        1.52902344138984
H            4.80190608642350        3.26008737032237        3.09584033976065
H            3.02428042465846        3.55770003158860        1.64360612698242
H            2.64492267246574        2.08456447327926        2.52213023066580
H            3.88488951529092        3.56974566008912       -0.32433536751657
H            2.80023033900662        2.68170273156363       -1.39073120272103
H            4.59394786730803        0.85101660210863       -1.49866101304488
H            5.66707446583420        1.94087655022516       -0.63295658364548
H            4.34353045446237        2.58195499153169       -3.30732991092759
H            5.97994483515359        1.96049882735662       -3.11173199478923
H            6.56572785471402        4.00294616841425       -1.76087622193402
H            6.09138657936795        4.37485213552654       -3.41677767208544
H            4.96019475071762        4.65756272470573       -2.09924031344539
H            2.30338303240306        0.73287367135581       -1.79255725506370
H            1.09574552583271       -1.33362251587731       -2.01489904067295
H            0.01169738888312       -3.25024925443515       -1.11525634239635
H            0.23717747438028       -5.62954629444381       -0.90564780287902
H           -3.18619714385958       -6.57307904115549        2.53841318240992
H           -1.84502093193084       -2.67565166256312        3.97492432601983
H           -1.33969830593250       -0.55781626602921        3.28301308353020
H           -1.35602440033582        1.25288073601093        1.70599561734710
H           -0.92520200665262        2.46262744546027        0.10847511364179
H           -1.65189167494668        3.02241770275273       -1.39379292195947
H           -3.20566985522869        2.61200677845080        1.20128400648688
H           -3.84984995940325        3.26382620729174       -0.29960480949073
H           -1.60650361732803        4.52500462055167        1.34005471239736
H           -2.26109669080290        5.17577474822420       -0.16336087271295
H           -3.26376163065795        6.31228146458152        1.80161675496609
H           -3.84448479939230        4.76476318471792        2.41907669817700
H           -4.49986799906999        5.41669038697033        0.91746553166418
H           -2.34764588530790       -0.13261764573904       -2.49878053307568
H           -2.03519910845382        1.56113784006170       -2.85014942094422
H           -4.34401378107615        2.17216132885891       -2.28263501094202
H           -4.69136739132858        0.52553251145793       -1.75566873890904
H           -4.28240956648994       -0.30025932952874       -4.06777905706882
H           -3.89678630084618        1.33948343726140       -4.59034334124543
H           -6.21189697041586        2.07073341453494       -4.00923593162042
H           -6.59687421174295        0.43214485841192       -3.47991374922893
H           -6.23500343441174        0.74835011386628       -5.17703786613837
H           -3.28692728522857       -1.34820837464318       -1.14226527906430
H           -3.43080521486438       -3.95274423524338        1.04843427787103
H            0.60246608687191       -2.78812436559660        2.18960325401496
H            2.38138139286174        0.15369438917222        2.48704176724151

          :  Hamiltonian                  GFN2-xTB          :
         :: gradient norm              0.000023654616 Eh/a0 ::
         :: HOMO-LUMO gap              1.637285988431 eV    ::
         :: SCC energy              -133.655156396974 Eh    ::
         :: -> dispersion             -0.113202528447 Eh    ::
         :: -> Gsolv                  -0.067020610111 Eh    ::
         :: repulsion energy           2.094329341534 Eh    ::

    * Orbital Energies and Occupations

         #    Occupation            Energy/Eh            Energy/eV
      -------------------------------------------------------------
         1        2.0000           -0.7282433             -19.8165
       ...           ...                  ...                  ...
       109        2.0000           -0.4313537             -11.7377
       110        2.0000           -0.4301019             -11.7037
       111        2.0000           -0.4281890             -11.6516
       112        2.0000           -0.4264441             -11.6041
       113        2.0000           -0.4236086             -11.5270
       114        2.0000           -0.4213396             -11.4652
       115        2.0000           -0.4165507             -11.3349
       116        2.0000           -0.3988497             -10.8533
       117        2.0000           -0.3940221             -10.7219
       118        2.0000           -0.3913415             -10.6489
       119        2.0000           -0.3779827             -10.2854
       120        2.0000           -0.3631424              -9.8816
       121        2.0000           -0.3593824              -9.7793 (HOMO)
       122                         -0.2992132              -8.1420 (LUMO)
       123                         -0.2884708              -7.8497
       124                         -0.2707852              -7.3684
       125                         -0.2490239              -6.7763
       126                         -0.2247956              -6.1170
       127                         -0.2211025              -6.0165
       128                         -0.2194909              -5.9727
       129                         -0.2166373              -5.8950
       130                         -0.1988042              -5.4097
       131                         -0.1863111              -5.0698
       132                         -0.1740183              -4.7353
       ...                                ...                  ...
       232                          1.1726081              31.9083
      -------------------------------------------------------------
                  HL-Gap            0.0601692 Eh            1.6373 eV

     #   Z          covCN         q      C6AA      α(0)
     1   6 C        3.751    -0.103    22.533     6.770
     2   6 C        3.799    -0.053    21.525     6.606
     3   6 C        3.799    -0.067    21.789     6.646
     4   6 C        3.745    -0.014    20.889     6.520
     5   7 N        2.736    -0.050    22.202     6.998
     6   6 C        3.749    -0.015    20.901     6.520
     7   6 C        3.801    -0.065    21.751     6.640
     8   6 C        3.800    -0.055    21.555     6.610
     9   6 C        3.751    -0.106    22.594     6.779
    10   6 C        2.906     0.075    26.335     8.415
    11   6 C        2.919    -0.072    29.802     8.952
    12   6 C        2.920    -0.034    28.842     8.807
    13   6 C        2.973    -0.058    29.427     8.898
    14   6 C        2.857     0.078    26.257     8.399
    15   7 N        1.845    -0.285    28.237     7.875
    16   6 C        2.926     0.076    26.292     8.409
    17   6 C        2.925    -0.046    29.137     8.852
    18   6 C        2.974     0.004    27.924     8.668
    19   6 C        1.911     0.116    28.237     8.582
    20   7 N        0.911    -0.278    27.175     7.539
    21   6 C        2.973     0.010    27.785     8.646
    22   6 C        1.912     0.118    28.200     8.576
    23   7 N        0.911    -0.269    26.954     7.509
    24   6 C        2.931    -0.052    29.284     8.875
    25   6 C        2.915     0.077    26.275     8.405
    26   7 N        1.835    -0.235    26.990     7.699
    27   6 C        2.844     0.073    26.357     8.414
    28   6 C        2.963    -0.056    29.382     8.891
    29   6 C        2.929    -0.032    28.805     8.802
    30   6 C        2.919    -0.071    29.761     8.946
    31   6 C        2.910     0.074    26.349     8.417
    32   7 N        2.737    -0.058    22.353     7.022
    33   6 C        3.748    -0.014    20.884     6.518
    34   6 C        3.802    -0.067    21.778     6.644
    35   6 C        3.801    -0.055    21.562     6.611
    36   6 C        3.752    -0.105    22.560     6.773
    37   6 C        3.748    -0.012    20.855     6.514
    38   6 C        3.802    -0.065    21.752     6.640
    39   6 C        3.801    -0.054    21.544     6.608
    40   6 C        3.752    -0.104    22.548     6.772
    41   6 C        2.923    -0.093    30.329     9.031
    42   6 C        2.844     0.148    24.775     8.157
    43   8 O        1.660    -0.418    21.198     6.215
    44   6 C        2.844     0.153    24.679     8.142
    45   8 O        1.657    -0.419    21.226     6.219
    46   6 C        2.920    -0.094    30.358     9.035
    47   1 H        0.925     0.038     2.469     2.457
    48   1 H        0.925     0.028     2.621     2.532
    49   1 H        0.925     0.034     2.526     2.485
    50   1 H        0.924     0.031     2.570     2.507
    51   1 H        0.924     0.032     2.551     2.498
    52   1 H        0.924     0.051     2.304     2.374
    53   1 H        0.924     0.044     2.395     2.420
    54   1 H        0.924     0.051     2.308     2.376
    55   1 H        0.925     0.059     2.208     2.324
    56   1 H        0.925     0.064     2.156     2.296
    57   1 H        0.924     0.051     2.302     2.373
    58   1 H        0.924     0.040     2.453     2.449
    59   1 H        0.924     0.046     2.364     2.405
    60   1 H        0.924     0.033     2.550     2.497
    61   1 H        0.924     0.034     2.526     2.485
    62   1 H        0.925     0.037     2.486     2.466
    63   1 H        0.925     0.034     2.527     2.486
    64   1 H        0.925     0.038     2.475     2.460
    65   1 H        0.926     0.055     2.256     2.349
    66   1 H        0.926     0.037     2.486     2.466
    67   1 H        0.924     0.000     3.057     2.734
    68   1 H        0.925     0.035     2.512     2.478
    69   1 H        0.926     0.048     2.346     2.395
    70   1 H        0.925     0.052     2.298     2.371
    71   1 H        0.926     0.048     2.340     2.392
    72   1 H        0.926     0.056     2.247     2.344
    73   1 H        0.924     0.053     2.284     2.363
    74   1 H        0.924     0.060     2.202     2.320
    75   1 H        0.924     0.043     2.415     2.430
    76   1 H        0.924     0.044     2.401     2.423
    77   1 H        0.924     0.035     2.518     2.481
    78   1 H        0.924     0.036     2.500     2.473
    79   1 H        0.925     0.037     2.489     2.467
    80   1 H        0.925     0.036     2.505     2.475
    81   1 H        0.925     0.036     2.503     2.474
    82   1 H        0.924     0.050     2.317     2.381
    83   1 H        0.924     0.056     2.252     2.347
    84   1 H        0.924     0.046     2.364     2.405
    85   1 H        0.924     0.040     2.445     2.445
    86   1 H        0.924     0.029     2.599     2.521
    87   1 H        0.924     0.036     2.508     2.476
    88   1 H        0.925     0.038     2.471     2.458
    89   1 H        0.925     0.035     2.517     2.481
    90   1 H        0.925     0.036     2.504     2.475
    91   1 H        0.926     0.054     2.274     2.358
    92   1 H        0.805     0.304     0.708     1.321
    93   1 H        0.805     0.328     0.643     1.260
    94   1 H        0.926     0.057     2.240     2.340

molecular dipole:
                 x           y           z       tot (Debye)
 q only:        2.038       9.254      -0.309
   full:        1.982       9.322      -0.392      24.243

 projected vibrational frequencies (cm⁻¹)
eigval :       -0.00    -0.00     0.00     0.00     0.00     0.00
eigval :        5.49    10.26    13.50    17.42    21.90    23.52
eigval :       25.69    29.29    32.48    40.80    43.88    47.70
eigval :       49.34    59.29    65.04    72.04    73.47    81.12
eigval :       88.30    96.95    99.29   104.90   105.23   115.09
eigval :      124.29   129.19   140.75   149.96   156.38   161.57
eigval :      169.71   179.80   192.35   200.46   203.51   218.29
eigval :      222.30   227.78   228.24   231.29   237.80   246.46
eigval :      264.86   267.63   280.10   282.22   286.90   292.84
eigval :      311.09   332.69   340.04   343.58   353.10   365.10
eigval :      374.61   386.89   397.94   398.87   401.31   408.14
eigval :      415.26   421.67   434.37   437.29   439.06   449.95
eigval :      465.16   467.69   476.33   488.92   499.89   512.51
eigval :      525.90   536.02   544.44   550.36   559.26   582.22
eigval :      598.93   605.89   615.69   640.40   653.35   658.01
eigval :      675.99   682.17   694.79   710.53   725.66   727.29
eigval :      737.29   770.58   775.05   784.20   793.43   797.46
eigval :      803.66   805.67   813.88   825.17   828.35   833.66
eigval :      836.93   844.11   845.96   850.83   853.14   867.14
eigval :      872.74   882.74   898.68   906.61   912.84   913.35
eigval :      924.03   930.66   940.14   942.41   943.41   951.22
eigval :      956.84   959.47  1000.41  1013.04  1020.02  1033.86
eigval :     1044.95  1063.52  1085.84  1092.24  1099.15  1100.35
eigval :     1105.79  1114.34  1116.96  1123.98  1125.95  1126.70
eigval :     1127.22  1130.34  1145.35  1146.64  1161.91  1172.89
eigval :     1177.39  1179.48  1190.13  1204.17  1204.95  1211.24
eigval :     1213.84  1220.55  1224.40  1231.59  1232.55  1238.52
eigval :     1239.08  1250.78  1259.09  1261.26  1262.62  1264.48
eigval :     1268.62  1272.49  1274.68  1278.46  1279.22  1282.95
eigval :     1285.77  1289.76  1293.04  1304.86  1328.61  1330.57
eigval :     1335.52  1339.60  1345.57  1347.46  1347.79  1349.79
eigval :     1356.34  1358.12  1358.79  1363.50  1367.15  1379.48
eigval :     1391.54  1407.03  1413.79  1414.67  1415.21  1416.48
eigval :     1420.52  1448.51  1453.51  1461.62  1468.39  1475.97
eigval :     1476.24  1478.43  1485.74  1488.42  1491.45  1491.88
eigval :     1492.36  1493.35  1495.25  1496.99  1498.80  1499.23
eigval :     1499.42  1499.99  1502.35  1503.48  1504.10  1506.35
eigval :     1507.57  1508.55  1509.99  1518.67  1520.09  1523.24
eigval :     1580.74  1588.98  1620.29  1661.26  2348.74  2356.85
eigval :     2875.58  2910.78  2927.37  2941.56  2953.39  2958.66
eigval :     2960.20  2963.57  2963.75  2971.53  2972.90  2973.74
eigval :     2976.82  2977.28  2977.85  2978.54  2981.72  2982.88
eigval :     2984.31  2987.02  2991.46  2996.23  3000.65  3002.57
eigval :     3002.72  3005.86  3018.11  3024.39  3026.70  3027.56
eigval :     3028.71  3029.19  3030.38  3030.66  3033.57  3036.16
eigval :     3037.49  3044.22  3064.10  3071.67  3076.41  3085.28
eigval :     3093.12  3133.09  3133.40  3137.40  3138.27  3502.82

   temp. (K)  partition function   enthalpy   heat capacity  entropy
                                   cal/mol     cal/K/mol   cal/K/mol   J/K/mol
 298.15  VIB  0.129E+26            28966.783    164.676    187.518
         ROT  0.838E+08              888.752      2.981     39.237
         INT  0.108E+34            29855.535    167.657    226.755
         TR   0.150E+29             1481.254      4.968     45.140
         TOT                       31336.7894   172.6253   271.8954  1137.6105

       T/K    H(0)-H(T)+PV         H(T)/Eh          T*S/Eh         G(T)/Eh
   ------------------------------------------------------------------------
    298.15    0.499384E-01    0.830302E+00    0.129186E+00    0.701116E+00
   ------------------------------------------------------------------------

         :::::::::::::::::::::::::::::::::::::::::::::::::::::
         ::                  THERMODYNAMIC                  ::
         :::::::::::::::::::::::::::::::::::::::::::::::::::::
         :: total free energy        -130.859711411481 Eh   ::
         ::.................................................::
         :: total energy             -131.560827053374 Eh   ::
         :: zero point energy           0.780363580898 Eh   ::
         :: G(RRHO) w/o ZPVE           -0.079247939005 Eh   ::
         :: G(RRHO) contrib.            0.701115641893 Eh   ::
         :::::::::::::::::::::::::::::::::::::::::::::::::::::

           -------------------------------------------------
          | TOTAL ENERGY             -131.560827053374 Eh   |
          | TOTAL ENTHALPY           -130.730525119877 Eh   |
          | TOTAL FREE ENERGY        -130.859711411481 Eh   |
          | GRADIENT NORM               0.000023669894 Eh/α |
          | HOMO-LUMO GAP               1.637287333037 eV   |
           -------------------------------------------------

 * finished run on 2025/09/02 at 13:47:30.210
