   * xtb version 6.7.1 (edcfbbe) compiled by 'albert@albert-system' on 2024-07-22

   ID    Z sym.   atoms
    1    6 C      1-4, 6-14, 16-19, 21, 22, 24, 25, 27-31, 33-42, 44, 46
    2    7 N      5, 15, 20, 23, 26, 32
    3    8 O      43, 45
    4    1 H      47-94

          program call               : xtb data2507/toluene/Pd-1/Pd-1_toluene_T1_crest.xyz --gfn 2 --uhf 2 --gbsa toluene --ohess vtight --parallel 40 --molden --ceasefiles --namespace data2507/toluene/Pd-1/Pd-1_toluene_T1_finalOpt
      * Solvation model:               GBSA
        Solvent                        toluene
        Solvent mass                       9.2140E+01 g/mol
          :  Hamiltonian                  GFN2-xTB          :
 * total energy  :  -131.5223498 Eh     change       -0.1146699E-07 Eh
 * total energy  :  -131.5245975 Eh     change       -0.2247621E-02 Eh
 * total energy  :  -131.5255962 Eh     change       -0.9987134E-03 Eh
 * total energy  :  -131.5262497 Eh     change       -0.6535251E-03 Eh
 * total energy  :  -131.5265736 Eh     change       -0.3238603E-03 Eh
 * total energy  :  -131.5268438 Eh     change       -0.2702289E-03 Eh
 * total energy  :  -131.5272191 Eh     change       -0.3753432E-03 Eh
 * total energy  :  -131.5274538 Eh     change       -0.2346283E-03 Eh
 * total energy  :  -131.5276993 Eh     change       -0.2455294E-03 Eh
 * total energy  :  -131.5279320 Eh     change       -0.2327263E-03 Eh
 * total energy  :  -131.5296542 Eh     change       -0.1381191E-05 Eh
 * total energy  :  -131.5296542 Eh     change        0.2057328E-07 Eh
 * total energy  :  -131.5296542 Eh     change        0.2755374E-07 Eh
 * total energy  :  -131.5296541 Eh     change        0.5140600E-07 Eh
 * total energy  :  -131.5296540 Eh     change        0.1017474E-06 Eh
 * total energy  :  -131.5296539 Eh     change        0.1129896E-06 Eh
 * total energy  :  -131.5296546 Eh     change       -0.6297076E-06 Eh
 * total energy  :  -131.5296550 Eh     change       -0.4777079E-06 Eh
 * total energy  :  -131.5296551 Eh     change       -0.4956632E-07 Eh
   *** GEOMETRY OPTIMIZATION CONVERGED AFTER 106 ITERATIONS ***

 final structure:
================
94
 xtb: 6.7.1 (edcfbbe)
C           -6.00964443150461        2.19439617201020       -4.26740502288444
C           -5.77520779187847        1.98976724085449       -2.77509356766129
C           -4.51332490762499        2.70675125150185       -2.30009695872349
C           -4.29828906570409        2.52546913036517       -0.79089266072225
N           -3.09303244115629        3.17497933882460       -0.32079720022226
C           -3.28352149701879        4.52935877672389        0.15112085315947
C           -3.78033645402546        4.59523130430281        1.60359796794485
C           -2.75697609019340        4.10058306526347        2.62284180146894
C           -3.33137135576527        4.10946877742640        4.03556901494260
C           -1.87575003613692        2.57741946721846       -0.42118824201429
C           -1.73249595900856        1.29804277692089       -1.00699949274507
C           -0.50901097101495        0.68009903803768       -1.07304487857240
C            0.65238468782236        1.27970085581933       -0.58947639945883
C            1.94410575560190        0.54516086499153       -0.61047279816722
N            3.07742898659427        1.40197901813707       -0.69527680890553
C            4.26309079593376        0.92298830907868       -0.40949354259261
C            5.43101263171355        1.66553449991808       -0.67794591065017
C            6.67745000159018        1.09633526427730       -0.52328024917450
C            7.83647414337785        1.83628930979465       -0.82018882341958
N            8.77597617054409        2.45196702110297       -1.06337034539082
C            6.80360899426022       -0.25731991875557       -0.07938318385861
C            8.08270689309702       -0.83302904038332        0.02770200466352
N            9.12164834102309       -1.31617511610412        0.11729025348364
C            5.68305713209369       -0.98702139193967        0.25731993971795
C            4.39884053552398       -0.41164042801844        0.17510833220482
N            3.34447495220832       -1.04544374615517        0.62639895167868
C            2.10494325206151       -0.35264235661697        0.71693349914096
C            0.93520246656245       -1.25605416678417        0.86666396328152
C           -0.21221181372985       -0.81803953128653        1.52537964598568
C           -1.35088806552143       -1.58071166525688        1.58754026167410
C           -1.41335530530696       -2.84803110299120        0.96534120035287
N           -2.55443696413335       -3.59073146817161        0.99053464538529
C           -2.58165285408086       -4.94832439549913        0.49727834812362
C           -2.85834228480875       -5.04100615023415       -1.01034392705100
C           -2.81496941532889       -6.47945858788369       -1.52724170799776
C           -1.41291619082981       -7.08010374165200       -1.53090421127233
C           -3.81870701699495       -2.99392319972588        1.36600876573679
C           -4.30399859515997       -1.94125768798405        0.35862234471473
C           -5.62713286272833       -1.29837796550092        0.77744490969222
C           -5.50038137476622       -0.40357772391030        2.00652845894867
C           -0.24327644669936       -3.30717725849962        0.34150422733965
C            0.90615863673399       -2.53807888677607        0.29064401107179
O            1.99192757628171       -3.06103444889395       -0.32750887421876
C            0.53224692681710        2.56407946592937       -0.03071826338169
O            1.61154748197153        3.23889017045830        0.43248501865769
C           -0.70115763910623        3.18491874498717        0.05048289172468
H           -6.12817244505277        3.25153074943208       -4.49598100893233
H           -6.90856366642972        1.67253091842615       -4.58785128841619
H           -5.16843923061743        1.81355929804194       -4.84304442627827
H           -6.63760334686899        2.36433291883901       -2.21907417420322
H           -5.68413692304382        0.92107528213524       -2.56935856140127
H           -4.59488051761382        3.77166169331657       -2.52695562547014
H           -3.64696074846939        2.32307341678526       -2.84150735463701
H           -4.27169974473750        1.46333695228700       -0.54255852800836
H           -5.14491040425897        2.96350144712857       -0.25862991039353
H           -4.03153311328531        5.00304256780227       -0.49217458008890
H           -2.36042338184076        5.09803014636502        0.04975166391839
H           -4.69194846683853        4.00240522334292        1.70124938851848
H           -4.03634229694183        5.63300664087831        1.82526750012160
H           -1.87126617406479        4.73887483777010        2.59339781653590
H           -2.44354784707345        3.08695556308181        2.36628349508480
H           -2.58895771587830        3.76171718178293        4.75047172542998
H           -3.63361312586133        5.11548365812822        4.31954344087523
H           -4.20130554555255        3.45917337543560        4.10089383726542
H           -2.57753429318308        0.78245762825124       -1.42630440914956
H           -0.43598471968214       -0.29964758321884       -1.52273193015979
H            1.95273055209779       -0.16986237476449       -1.45130933073706
H            5.32959198915519        2.67135702525410       -1.05725359851455
H            5.77613705377478       -1.99326941861737        0.63763766749017
H            2.13565952330052        0.36393541586923        1.55571225067088
H           -0.19553596075745        0.15078456223576        2.00310624710436
H           -2.18959454514005       -1.19598511398594        2.13952833547621
H           -1.63089330177390       -5.42639334722098        0.73530087965053
H           -3.36436021012297       -5.48982304538021        1.03560478902591
H           -2.12636436573251       -4.43710745344262       -1.54951442524700
H           -3.84805026733022       -4.62695102632380       -1.21055649736305
H           -3.47616908019527       -7.10356431876414       -0.92181983196511
H           -3.19915028122836       -6.48701791748450       -2.54986868969020
H           -1.02707599431613       -7.19943582523838       -0.52139287875182
H           -0.72652379366742       -6.44737429459443       -2.09062500712022
H           -1.42702931039023       -8.06164894821321       -1.99975672322763
H           -3.72976616617017       -2.54632756389057        2.35921732113408
H           -4.56130451334474       -3.79062280049535        1.42996225796881
H           -4.43222328124986       -2.42099830627585       -0.61322416098231
H           -3.53911467311962       -1.17070282434430        0.24844246685433
H           -6.36667895536933       -2.07864091314388        0.96994486101417
H           -5.99648346771070       -0.69840195927163       -0.05694213829486
H           -5.29160315660792       -0.98542150940939        2.90077347201729
H           -6.42877812878669        0.13830749497176        2.17223954120674
H           -4.69980899385138        0.32010373748762        1.87097712653157
H           -0.18726002013419       -4.26865757751892       -0.13818809507888
H            2.75378528384234       -2.47577773684133       -0.09513555679334
H            2.40622225830740        2.75220432701954        0.10301972576346
H           -0.70108498809248        4.16138331152829        0.50188043216014

          :  Hamiltonian                  GFN2-xTB          :
         :: gradient norm              0.000047012023 Eh/a0 ::
         :: HOMO-LUMO gap              1.783596316067 eV    ::
         :: SCC energy              -133.575105502148 Eh    ::
         :: -> dispersion             -0.111320187397 Eh    ::
         :: -> Gsolv                  -0.072655325449 Eh    ::
         :: repulsion energy           2.045450387911 Eh    ::

    * Orbital Energies and Occupations

         #    Occupation            Energy/Eh            Energy/eV
      -------------------------------------------------------------
         1        2.0000           -0.7135611             -19.4170
       ...           ...                  ...                  ...
       110        2.0000           -0.4305201             -11.7150
       111        2.0000           -0.4299586             -11.6998
       112        2.0000           -0.4289373             -11.6720
       113        2.0000           -0.4287351             -11.6665
       114        2.0000           -0.4265179             -11.6061
       115        2.0000           -0.4209287             -11.4541
       116        2.0000           -0.3979034             -10.8275
       117        2.0000           -0.3942700             -10.7286
       118        2.0000           -0.3936588             -10.7120
       119        2.0000           -0.3742144             -10.1829
       120        1.9947           -0.3635548              -9.8928
       121        1.0053           -0.3535991              -9.6219
       122        1.0000           -0.3468023              -9.4370 (HOMO)
       123                         -0.2812555              -7.6534 (LUMO)
       124                         -0.2503342              -6.8119
       125                         -0.2295601              -6.2466
       126                         -0.2291192              -6.2347
       127                         -0.2205673              -6.0019
       128                         -0.2199701              -5.9857
       129                         -0.2182566              -5.9391
       130                         -0.2155916              -5.8665
       131                         -0.1725205              -4.6945
       132                         -0.1668139              -4.5392
       133                         -0.1066281              -2.9015
       ...                                ...                  ...
       232                          1.1716256              31.8816
      -------------------------------------------------------------
                  HL-Gap            0.0655468 Eh            1.7836 eV

     #   Z          covCN         q      C6AA      α(0)
     1   6 C        3.752    -0.105    22.566     6.774
     2   6 C        3.801    -0.055    21.559     6.611
     3   6 C        3.802    -0.067    21.775     6.644
     4   6 C        3.751    -0.020    20.989     6.533
     5   7 N        2.737    -0.035    21.913     6.952
     6   6 C        3.748    -0.017    20.948     6.528
     7   6 C        3.802    -0.067    21.786     6.645
     8   6 C        3.800    -0.054    21.538     6.608
     9   6 C        3.752    -0.105    22.564     6.774
    10   6 C        2.905     0.070    26.431     8.430
    11   6 C        2.921    -0.067    29.661     8.931
    12   6 C        2.920    -0.038    28.945     8.823
    13   6 C        2.969    -0.051    29.255     8.872
    14   6 C        3.810     0.083    19.189     6.235
    15   7 N        1.845    -0.323    29.225     8.012
    16   6 C        2.921     0.087    26.060     8.371
    17   6 C        2.925    -0.051    29.278     8.874
    18   6 C        2.971     0.007    27.851     8.656
    19   6 C        1.912     0.116    28.243     8.583
    20   7 N        0.911    -0.275    27.101     7.529
    21   6 C        2.971     0.007    27.852     8.657
    22   6 C        1.912     0.116    28.244     8.583
    23   7 N        0.911    -0.275    27.102     7.529
    24   6 C        2.926    -0.051    29.278     8.874
    25   6 C        2.921     0.087    26.062     8.372
    26   7 N        1.845    -0.323    29.223     8.012
    27   6 C        3.810     0.083    19.189     6.235
    28   6 C        2.969    -0.050    29.240     8.870
    29   6 C        2.920    -0.038    28.941     8.822
    30   6 C        2.921    -0.064    29.601     8.922
    31   6 C        2.910     0.070    26.432     8.430
    32   7 N        2.737    -0.041    22.036     6.972
    33   6 C        3.747    -0.016    20.924     6.525
    34   6 C        3.801    -0.065    21.743     6.639
    35   6 C        3.800    -0.056    21.580     6.614
    36   6 C        3.751    -0.105    22.560     6.774
    37   6 C        3.747    -0.017    20.944     6.528
    38   6 C        3.801    -0.067    21.777     6.644
    39   6 C        3.800    -0.057    21.592     6.616
    40   6 C        3.751    -0.108    22.621     6.783
    41   6 C        2.921    -0.090    30.269     9.022
    42   6 C        2.845     0.147    24.808     8.163
    43   8 O        1.657    -0.426    21.357     6.239
    44   6 C        2.845     0.147    24.803     8.162
    45   8 O        1.657    -0.427    21.375     6.241
    46   6 C        2.922    -0.089    30.239     9.018
    47   1 H        0.925     0.036     2.507     2.476
    48   1 H        0.925     0.037     2.491     2.468
    49   1 H        0.925     0.036     2.509     2.477
    50   1 H        0.924     0.038     2.480     2.463
    51   1 H        0.924     0.036     2.498     2.471
    52   1 H        0.924     0.042     2.421     2.433
    53   1 H        0.924     0.044     2.401     2.423
    54   1 H        0.924     0.065     2.146     2.291
    55   1 H        0.924     0.067     2.119     2.277
    56   1 H        0.924     0.062     2.176     2.307
    57   1 H        0.925     0.059     2.212     2.326
    58   1 H        0.924     0.050     2.322     2.383
    59   1 H        0.924     0.048     2.339     2.392
    60   1 H        0.924     0.030     2.584     2.514
    61   1 H        0.924     0.034     2.526     2.485
    62   1 H        0.925     0.034     2.537     2.491
    63   1 H        0.925     0.036     2.507     2.476
    64   1 H        0.925     0.039     2.461     2.453
    65   1 H        0.926     0.062     2.170     2.304
    66   1 H        0.926     0.034     2.529     2.487
    67   1 H        0.923     0.019     2.749     2.593
    68   1 H        0.926     0.045     2.380     2.412
    69   1 H        0.926     0.045     2.379     2.412
    70   1 H        0.923     0.019     2.749     2.593
    71   1 H        0.926     0.034     2.528     2.486
    72   1 H        0.926     0.064     2.154     2.295
    73   1 H        0.924     0.061     2.182     2.310
    74   1 H        0.924     0.059     2.210     2.325
    75   1 H        0.924     0.044     2.392     2.419
    76   1 H        0.924     0.046     2.375     2.410
    77   1 H        0.924     0.038     2.480     2.463
    78   1 H        0.924     0.039     2.463     2.454
    79   1 H        0.925     0.034     2.525     2.485
    80   1 H        0.925     0.035     2.521     2.483
    81   1 H        0.925     0.035     2.516     2.480
    82   1 H        0.924     0.062     2.177     2.307
    83   1 H        0.924     0.063     2.164     2.301
    84   1 H        0.924     0.043     2.409     2.427
    85   1 H        0.924     0.046     2.368     2.407
    86   1 H        0.924     0.037     2.484     2.465
    87   1 H        0.924     0.041     2.438     2.442
    88   1 H        0.925     0.035     2.519     2.482
    89   1 H        0.925     0.038     2.472     2.459
    90   1 H        0.925     0.040     2.450     2.448
    91   1 H        0.926     0.063     2.165     2.301
    92   1 H        0.806     0.319     0.666     1.282
    93   1 H        0.806     0.319     0.666     1.282
    94   1 H        0.926     0.058     2.217     2.328

molecular dipole:
                 x           y           z       tot (Debye)
 q only:      -11.684      -0.687       0.523
   full:      -11.617      -0.689       0.531      29.610

 projected vibrational frequencies (cm⁻¹)
eigval :       -0.00    -0.00    -0.00    -0.00     0.00     0.00
eigval :       11.24    17.74    18.32    19.37    22.96    26.67
eigval :       29.29    32.42    34.43    41.83    45.91    48.13
eigval :       56.18    60.91    67.41    72.57    77.69    80.06
eigval :       85.27    94.95    98.60   106.39   117.81   121.33
eigval :      125.46   135.24   145.58   152.46   169.74   177.76
eigval :      181.66   195.93   201.01   207.01   213.61   220.93
eigval :      228.67   230.75   233.16   241.75   250.01   250.75
eigval :      261.47   281.21   283.68   290.82   306.12   309.24
eigval :      320.83   333.79   360.69   367.45   386.54   387.87
eigval :      397.24   400.59   407.30   412.78   417.00   428.14
eigval :      435.36   436.34   452.08   457.94   465.84   480.23
eigval :      489.47   501.94   514.16   522.56   537.98   544.69
eigval :      549.33   556.17   560.59   583.86   593.83   597.19
eigval :      604.31   632.21   640.53   664.83   680.46   684.24
eigval :      693.60   707.67   715.54   718.62   726.50   733.78
eigval :      773.92   775.58   781.26   782.92   788.34   799.46
eigval :      814.37   814.82   819.83   825.17   829.36   830.57
eigval :      832.27   837.28   840.40   852.60   860.98   865.44
eigval :      880.98   906.65   909.21   915.46   923.78   927.86
eigval :      931.29   944.34   946.50   957.78   964.75   970.10
eigval :      999.03  1004.20  1011.36  1036.44  1041.68  1052.17
eigval :     1067.49  1072.10  1084.51  1093.90  1097.37  1099.81
eigval :     1114.45  1114.98  1122.98  1125.40  1126.44  1128.16
eigval :     1135.83  1139.16  1141.81  1147.87  1160.10  1162.49
eigval :     1181.22  1190.21  1191.40  1198.06  1199.75  1203.91
eigval :     1207.53  1212.19  1213.87  1223.38  1227.78  1229.69
eigval :     1233.32  1238.39  1239.82  1247.56  1251.56  1255.04
eigval :     1260.02  1266.08  1268.97  1270.33  1275.39  1278.94
eigval :     1282.94  1285.34  1288.77  1297.42  1302.92  1306.08
eigval :     1307.39  1321.04  1326.39  1327.92  1330.65  1343.17
eigval :     1347.07  1349.18  1349.77  1353.33  1357.38  1359.04
eigval :     1367.69  1388.40  1392.71  1395.43  1414.22  1416.40
eigval :     1416.53  1417.86  1444.76  1446.90  1464.02  1467.90
eigval :     1469.55  1479.25  1482.21  1483.96  1484.86  1487.23
eigval :     1488.51  1489.35  1490.89  1493.29  1493.47  1496.50
eigval :     1497.72  1498.51  1499.81  1500.27  1502.32  1502.78
eigval :     1503.41  1504.49  1506.37  1509.21  1509.97  1516.61
eigval :     1521.77  1526.43  1584.45  1588.19  2342.03  2347.34
eigval :     2812.05  2820.99  2947.07  2951.74  2955.91  2964.12
eigval :     2966.70  2967.61  2968.52  2972.61  2977.65  2979.21
eigval :     2979.57  2980.02  2984.09  2985.50  2985.88  2985.96
eigval :     2986.98  2987.26  2990.11  2990.86  2992.35  2992.55
eigval :     2998.10  2998.43  2999.05  3014.82  3024.34  3025.88
eigval :     3026.86  3028.61  3029.83  3031.41  3032.32  3033.38
eigval :     3036.27  3036.75  3041.23  3042.74  3076.21  3079.53
eigval :     3091.03  3091.21  3136.64  3137.38  3138.22  3139.22

   temp. (K)  partition function   enthalpy   heat capacity  entropy
                                   cal/mol     cal/K/mol   cal/K/mol   J/K/mol
 298.15  VIB  0.405E+24            28252.102    162.740    181.162
         ROT  0.879E+08              888.752      2.981     39.330
         INT  0.356E+32            29140.855    165.720    220.492
         TR   0.150E+29             1481.254      4.968     45.140
         TOT                       30622.1085   170.6886   265.6319  1111.4039

       T/K    H(0)-H(T)+PV         H(T)/Eh          T*S/Eh         G(T)/Eh
   ------------------------------------------------------------------------
    298.15    0.487994E-01    0.829334E+00    0.126210E+00    0.703124E+00
   ------------------------------------------------------------------------

         :::::::::::::::::::::::::::::::::::::::::::::::::::::
         ::                  THERMODYNAMIC                  ::
         :::::::::::::::::::::::::::::::::::::::::::::::::::::
         :: total free energy        -130.826531311547 Eh   ::
         ::.................................................::
         :: total energy             -131.529655118836 Eh   ::
         :: zero point energy           0.780534666852 Eh   ::
         :: G(RRHO) w/o ZPVE           -0.077410859562 Eh   ::
         :: G(RRHO) contrib.            0.703123807289 Eh   ::
         :::::::::::::::::::::::::::::::::::::::::::::::::::::

           -------------------------------------------------
          | TOTAL ENERGY             -131.529655118836 Eh   |
          | TOTAL ENTHALPY           -130.700321015937 Eh   |
          | TOTAL FREE ENERGY        -130.826531311547 Eh   |
          | GRADIENT NORM               0.000048465982 Eh/α |
          | HOMO-LUMO GAP               1.783618407888 eV   |
           -------------------------------------------------

 * finished run on 2025/09/02 at 17:05:55.722
