   * xtb version 6.7.1 (edcfbbe) compiled by 'albert@albert-system' on 2024-07-22

   ID    Z sym.   atoms
    1    6 C      1-4, 6-14, 16-19, 21, 22, 24, 25, 27-31, 33-42, 44, 46
    2    7 N      5, 15, 20, 23, 26, 32
    3    8 O      43, 45
    4    1 H      47-94

          program call               : xtb data2507/toluene/Pd-1/Pd-1_toluene_S0_finalOpt.xtbopt.xyz --gfn 2 --uhf 2 --gbsa toluene --ohess vtight --parallel 40 --molden --ceasefiles --namespace data2507/toluene/Pd-1/Pd-1_toluene_T1_preOpt
      * Solvation model:               GBSA
        Solvent                        toluene
        Solvent mass                       9.2140E+01 g/mol
          :  Hamiltonian                  GFN2-xTB          :
 * total energy  :  -131.5045958 Eh     change       -0.1093525E-08 Eh
 * total energy  :  -131.5091294 Eh     change       -0.4533633E-02 Eh
 * total energy  :  -131.5113368 Eh     change       -0.2207442E-02 Eh
 * total energy  :  -131.5129023 Eh     change       -0.1565428E-02 Eh
 * total energy  :  -131.5139637 Eh     change       -0.1061440E-02 Eh
 * total energy  :  -131.5140319 Eh     change       -0.6822457E-04 Eh
 * total energy  :  -131.5149448 Eh     change       -0.9128768E-03 Eh
 * total energy  :  -131.5152690 Eh     change       -0.3241634E-03 Eh
 * total energy  :  -131.5156504 Eh     change       -0.3813853E-03 Eh
 * total energy  :  -131.5159552 Eh     change       -0.3048340E-03 Eh
 * total energy  :  -131.5299560 Eh     change       -0.1608144E-05 Eh
 * total energy  :  -131.5299576 Eh     change       -0.1562828E-05 Eh
 * total energy  :  -131.5299591 Eh     change       -0.1516779E-05 Eh
 * total energy  :  -131.5299606 Eh     change       -0.1475867E-05 Eh
 * total energy  :  -131.5299620 Eh     change       -0.1468011E-05 Eh
 * total energy  :  -131.5299635 Eh     change       -0.1467278E-05 Eh
 * total energy  :  -131.5299650 Eh     change       -0.1443733E-05 Eh
 * total energy  :  -131.5299663 Eh     change       -0.1357502E-05 Eh
 * total energy  :  -131.5299663 Eh     change       -0.2445120E-08 Eh
   *** GEOMETRY OPTIMIZATION CONVERGED AFTER 152 ITERATIONS ***

 final structure:
================
94
 xtb: 6.7.1 (edcfbbe)
C           -4.31085079704780        3.61423088958913       -4.46542038770438
C           -3.88455094343475        2.90277850731792       -3.18570884435017
C           -4.79469077140322        3.26956492231871       -2.01604249408250
C           -4.36745095323592        2.63424274177428       -0.68376542681327
N           -3.11357972555497        3.15889395333442       -0.18732711958503
C           -3.22710185457697        4.41253929331437        0.52663628627885
C           -3.33529210205129        4.20762561011984        2.04407075701008
C           -3.47613584078763        5.53647819670558        2.78270911389311
C           -3.60773101083221        5.33074080510638        4.28770662859612
C           -1.92269205212220        2.51418882476911       -0.30770571078947
C           -1.79514083481378        1.29020614276517       -1.00316309121885
C           -0.58654243362038        0.64735001074371       -1.09553160042718
C            0.57737027505583        1.17189775465274       -0.53705505830609
C            1.85616603793706        0.41870851537703       -0.60916242781749
N            3.00241124378786        1.26383610392490       -0.62251380475191
C            4.18035128049624        0.74366081915923       -0.37992244829545
C            5.36016712941777        1.48767966658384       -0.58405511146460
C            6.59705368083357        0.88708975478388       -0.47868622922780
C            7.76862535741566        1.63076219830938       -0.70960981220304
N            8.71844042640626        2.24961472750126       -0.89853186153344
C            6.70049363761729       -0.50161142664981       -0.15289410494094
C            7.97037854699408       -1.10434504594737       -0.09732495667185
N            9.00195753457887       -1.60891578156171       -0.05158715675477
C            5.56817191586505       -1.23857581871472        0.12331433029362
C            4.29387751497813       -0.63655491070662        0.09248204070615
N            3.22942712625492       -1.28500320711221        0.49652156636436
C            2.00171410920516       -0.58000763263138        0.64357704528087
C            0.81951705632163       -1.47615283753900        0.74008828902765
C           -0.31826765614317       -1.06680242558946        1.43215489669756
C           -1.45126813873485       -1.83860812265720        1.49630202968365
C           -1.51899133005820       -3.08775301005553        0.83950190323397
N           -2.64007762941022       -3.85971876481867        0.88754081591364
C           -2.79523365136598       -5.00383134747501        0.01668955146135
C           -3.00360131200133       -4.61666284845079       -1.45394720562881
C           -3.10260080202399       -5.85174851136007       -2.34641305827215
C           -3.32029409538710       -5.47239020767461       -3.80691877401537
C           -3.77557330268939       -3.48555166664031        1.70075818204188
C           -4.72878281644474       -2.50925524037743        0.99523042546685
C           -5.82216639746666       -1.97873008898420        1.92404171354755
C           -5.30408571820050       -0.99438818761029        2.96807163168079
C           -0.36876819430025       -3.50331419543387        0.15048392796264
C            0.77660918888897       -2.72855509829397        0.10241401597981
O            1.84940435868633       -3.22422152921595       -0.55938551821052
C            0.47481430676262        2.40348515003694        0.13310113848022
O            1.56009497657262        3.00694836961418        0.67449523625492
C           -0.74572261704555        3.04439984124083        0.24749841550814
H           -5.33253527287995        3.34900708388206       -4.73007512859129
H           -3.65961145217019        3.33502351855016       -5.29065833716295
H           -4.25886766677842        4.69386755776397       -4.34054325702220
H           -3.91706325759592        1.82408257023248       -3.35206082842451
H           -2.85386646154376        3.17477998884304       -2.94896528893595
H           -5.81301552527685        2.94270306683006       -2.23508492529302
H           -4.81149796365514        4.35589714283936       -1.90988539955103
H           -4.31061772249148        1.55312892059740       -0.79440126070913
H           -5.13587736342583        2.84804643631289        0.06533965813736
H           -4.12591990715607        4.92198487028648        0.17396600196929
H           -2.37623819211439        5.05621586033892        0.29418173486538
H           -2.45027333140333        3.68052519968382        2.40424255807395
H           -4.20394489516741        3.58186040578627        2.25924102069215
H           -4.35621298418852        6.06707901834651        2.41212410152784
H           -2.60273660758182        6.16000700514956        2.57829455908884
H           -3.70493532063176        6.28738762022617        4.79592689985924
H           -4.48520711539376        4.72989428092494        4.51748372848233
H           -2.73078436432916        4.82155605368752        4.68223454071756
H           -2.63999748581642        0.83992555744010       -1.49190896875700
H           -0.52688718860756       -0.29096422609354       -1.62782463157067
H            1.85737814322154       -0.22815230445143       -1.50352467304705
H            5.27516063219339        2.52353413165436       -0.87655915524992
H            5.64472279844111       -2.27480779489196        0.41687281183192
H            2.04870230397310        0.06979538064579        1.53470866947280
H           -0.30188013923862       -0.10995185589333        1.93370226181488
H           -2.29098990523704       -1.45532887100655        2.04699544132779
H           -1.91964667672919       -5.65460525881468        0.10217001023830
H           -3.65960270578236       -5.57562853265069        0.35858287665329
H           -2.17284504158838       -3.99198861438887       -1.78594710289687
H           -3.91801634252062       -4.02912252742401       -1.54728282969577
H           -2.18451306277640       -6.43734877349016       -2.25892666849939
H           -3.92972962710285       -6.48025019966022       -2.00843340123071
H           -2.49660618006646       -4.86064542911453       -4.16936019509093
H           -4.24328344342851       -4.90822841597591       -3.92335985574764
H           -3.38278115056800       -6.36367780249749       -4.42711300126817
H           -3.41267547307045       -3.05205659812669        2.63351501708869
H           -4.32357978450130       -4.39545229045420        1.95774848371630
H           -5.19840895451340       -3.02482691857059        0.15614833518503
H           -4.15153863878781       -1.67473700796640        0.59492695979960
H           -6.31162345440609       -2.81693112597280        2.42473029923844
H           -6.57527689520825       -1.47527755622651        1.31378848064529
H           -4.63465235116691       -1.47874378579945        3.67483604796743
H           -6.13483018022223       -0.57631299291726        3.53224195121490
H           -4.76991998919488       -0.17591239828236        2.48981061354775
H           -0.31376873861648       -4.45415103555002       -0.35033697378369
H            2.61901301101149       -2.65831132013365       -0.30465676679681
H            2.34963382335069        2.54069740137360        0.30588758467459
H           -0.73147311624116        3.97887392963132        0.78035302509546

          :  Hamiltonian                  GFN2-xTB          :
         :: gradient norm              0.000115651124 Eh/a0 ::
         :: HOMO-LUMO gap              1.783452220926 eV    ::
         :: SCC energy              -133.575360265204 Eh    ::
         :: -> dispersion             -0.108230768155 Eh    ::
         :: -> Gsolv                  -0.074448623424 Eh    ::
         :: repulsion energy           2.045393945833 Eh    ::

    * Orbital Energies and Occupations

         #    Occupation            Energy/Eh            Energy/eV
      -------------------------------------------------------------
         1        2.0000           -0.7134925             -19.4151
       ...           ...                  ...                  ...
       110        2.0000           -0.4306014             -11.7173
       111        2.0000           -0.4291561             -11.6779
       112        2.0000           -0.4285860             -11.6624
       113        2.0000           -0.4276305             -11.6364
       114        2.0000           -0.4269364             -11.6175
       115        2.0000           -0.4217830             -11.4773
       116        2.0000           -0.3979097             -10.8277
       117        2.0000           -0.3947040             -10.7404
       118        2.0000           -0.3937291             -10.7139
       119        2.0000           -0.3743917             -10.1877
       120        1.9956           -0.3640962              -9.9076
       121        1.0044           -0.3537938              -9.6272
       122        1.0000           -0.3468201              -9.4375 (HOMO)
       123                         -0.2812792              -7.6540 (LUMO)
       124                         -0.2503549              -6.8125
       125                         -0.2298008              -6.2532
       126                         -0.2289774              -6.2308
       127                         -0.2205723              -6.0021
       128                         -0.2201431              -5.9904
       129                         -0.2182465              -5.9388
       130                         -0.2155734              -5.8661
       131                         -0.1725395              -4.6950
       132                         -0.1668607              -4.5405
       133                         -0.1065878              -2.9004
       ...                                ...                  ...
       232                          1.1716891              31.8833
      -------------------------------------------------------------
                  HL-Gap            0.0655409 Eh            1.7835 eV

     #   Z          covCN         q      C6AA      α(0)
     1   6 C        3.752    -0.105    22.560     6.773
     2   6 C        3.800    -0.055    21.565     6.612
     3   6 C        3.802    -0.068    21.797     6.647
     4   6 C        3.748    -0.019    20.970     6.532
     5   7 N        2.737    -0.034    21.893     6.949
     6   6 C        3.751    -0.018    20.951     6.527
     7   6 C        3.802    -0.066    21.768     6.642
     8   6 C        3.801    -0.055    21.557     6.611
     9   6 C        3.752    -0.105    22.563     6.774
    10   6 C        2.905     0.071    26.420     8.428
    11   6 C        2.920    -0.064    29.601     8.922
    12   6 C        2.920    -0.037    28.930     8.820
    13   6 C        2.969    -0.050    29.235     8.869
    14   6 C        3.810     0.083    19.191     6.236
    15   7 N        1.845    -0.323    29.234     8.013
    16   6 C        2.921     0.087    26.061     8.372
    17   6 C        2.925    -0.051    29.278     8.873
    18   6 C        2.971     0.007    27.851     8.657
    19   6 C        1.912     0.116    28.243     8.583
    20   7 N        0.911    -0.275    27.101     7.529
    21   6 C        2.971     0.007    27.850     8.656
    22   6 C        1.912     0.116    28.244     8.583
    23   7 N        0.911    -0.275    27.100     7.529
    24   6 C        2.925    -0.052    29.279     8.874
    25   6 C        2.921     0.087    26.062     8.372
    26   7 N        1.845    -0.323    29.222     8.012
    27   6 C        3.810     0.083    19.192     6.236
    28   6 C        2.969    -0.050    29.238     8.869
    29   6 C        2.920    -0.038    28.945     8.823
    30   6 C        2.920    -0.066    29.650     8.929
    31   6 C        2.909     0.070    26.429     8.430
    32   7 N        2.737    -0.040    22.021     6.970
    33   6 C        3.748    -0.015    20.916     6.523
    34   6 C        3.802    -0.066    21.767     6.642
    35   6 C        3.801    -0.055    21.556     6.610
    36   6 C        3.752    -0.105    22.558     6.773
    37   6 C        3.747    -0.017    20.950     6.529
    38   6 C        3.801    -0.066    21.768     6.643
    39   6 C        3.800    -0.057    21.595     6.616
    40   6 C        3.751    -0.106    22.596     6.779
    41   6 C        2.922    -0.089    30.230     9.016
    42   6 C        2.845     0.147    24.808     8.163
    43   8 O        1.657    -0.427    21.370     6.240
    44   6 C        2.845     0.147    24.804     8.162
    45   8 O        1.657    -0.427    21.370     6.240
    46   6 C        2.923    -0.090    30.270     9.022
    47   1 H        0.925     0.037     2.485     2.465
    48   1 H        0.925     0.034     2.534     2.489
    49   1 H        0.925     0.035     2.515     2.480
    50   1 H        0.924     0.035     2.521     2.483
    51   1 H        0.924     0.034     2.536     2.490
    52   1 H        0.924     0.052     2.300     2.371
    53   1 H        0.924     0.046     2.367     2.406
    54   1 H        0.925     0.065     2.146     2.291
    55   1 H        0.924     0.065     2.146     2.291
    56   1 H        0.924     0.065     2.138     2.287
    57   1 H        0.924     0.056     2.241     2.341
    58   1 H        0.924     0.043     2.404     2.425
    59   1 H        0.924     0.046     2.366     2.406
    60   1 H        0.924     0.037     2.490     2.468
    61   1 H        0.924     0.032     2.554     2.499
    62   1 H        0.925     0.036     2.502     2.474
    63   1 H        0.925     0.039     2.465     2.455
    64   1 H        0.925     0.035     2.513     2.479
    65   1 H        0.926     0.060     2.202     2.321
    66   1 H        0.926     0.035     2.523     2.484
    67   1 H        0.923     0.019     2.751     2.594
    68   1 H        0.926     0.045     2.378     2.412
    69   1 H        0.926     0.045     2.380     2.412
    70   1 H        0.923     0.019     2.742     2.589
    71   1 H        0.926     0.035     2.519     2.482
    72   1 H        0.926     0.066     2.134     2.284
    73   1 H        0.924     0.055     2.257     2.349
    74   1 H        0.924     0.062     2.174     2.306
    75   1 H        0.924     0.043     2.409     2.427
    76   1 H        0.924     0.048     2.344     2.394
    77   1 H        0.924     0.032     2.559     2.502
    78   1 H        0.924     0.037     2.494     2.470
    79   1 H        0.925     0.035     2.516     2.481
    80   1 H        0.925     0.039     2.466     2.456
    81   1 H        0.925     0.036     2.500     2.473
    82   1 H        0.924     0.064     2.155     2.296
    83   1 H        0.924     0.059     2.210     2.325
    84   1 H        0.924     0.045     2.387     2.416
    85   1 H        0.924     0.048     2.349     2.397
    86   1 H        0.924     0.037     2.495     2.470
    87   1 H        0.924     0.041     2.433     2.439
    88   1 H        0.925     0.034     2.534     2.489
    89   1 H        0.925     0.037     2.492     2.469
    90   1 H        0.925     0.039     2.459     2.452
    91   1 H        0.926     0.061     2.193     2.316
    92   1 H        0.806     0.319     0.665     1.281
    93   1 H        0.806     0.319     0.666     1.282
    94   1 H        0.926     0.061     2.188     2.313

molecular dipole:
                 x           y           z       tot (Debye)
 q only:      -11.625      -0.391       0.665
   full:      -11.579      -0.426       0.677      29.501

 projected vibrational frequencies (cm⁻¹)
eigval :       -0.00    -0.00    -0.00     0.00     0.00     0.00
eigval :       10.38    15.97    18.28    19.97    20.97    26.51
eigval :       31.07    34.45    39.45    40.63    46.03    49.76
eigval :       55.10    62.42    71.23    73.92    79.57    84.32
eigval :       90.45    98.31   100.95   105.58   119.92   121.13
eigval :      123.13   128.92   137.86   152.99   159.95   170.54
eigval :      179.56   184.17   207.27   208.77   215.85   221.01
eigval :      225.27   231.73   235.32   238.13   241.80   251.72
eigval :      261.36   273.41   282.42   288.54   306.80   309.72
eigval :      322.07   336.17   356.83   366.17   368.81   388.72
eigval :      398.44   400.65   407.06   410.05   413.79   424.14
eigval :      432.41   446.65   448.21   466.40   471.17   478.94
eigval :      483.84   502.37   513.04   521.96   537.75   545.14
eigval :      549.58   555.49   562.35   586.18   592.55   596.09
eigval :      602.97   633.43   640.66   664.75   680.35   683.51
eigval :      693.43   708.32   714.15   721.22   727.25   734.30
eigval :      772.27   773.51   783.11   783.63   787.00   796.05
eigval :      817.11   821.68   823.66   825.52   828.87   831.52
eigval :      832.96   838.36   842.48   853.06   861.91   864.75
eigval :      879.69   905.29   907.80   912.66   923.15   930.37
eigval :      943.07   943.33   944.15   945.96   968.38   969.21
eigval :      999.63  1013.91  1030.15  1036.08  1052.73  1054.65
eigval :     1066.48  1070.42  1083.49  1092.01  1096.80  1099.10
eigval :     1099.32  1115.51  1123.53  1126.14  1126.77  1127.38
eigval :     1136.24  1139.18  1142.41  1147.65  1159.13  1161.83
eigval :     1185.58  1190.30  1193.74  1198.85  1202.34  1204.03
eigval :     1209.15  1211.83  1215.30  1225.56  1228.17  1232.23
eigval :     1235.48  1236.54  1240.77  1245.63  1252.42  1260.16
eigval :     1260.51  1264.70  1268.03  1274.25  1274.71  1279.33
eigval :     1279.77  1286.02  1287.69  1289.76  1300.61  1303.18
eigval :     1306.96  1319.15  1325.17  1327.43  1331.39  1333.02
eigval :     1346.28  1349.72  1351.45  1353.82  1360.70  1360.88
eigval :     1367.07  1386.68  1392.50  1394.00  1414.37  1415.17
eigval :     1417.13  1417.49  1444.92  1447.32  1464.01  1467.82
eigval :     1470.48  1476.38  1482.02  1484.12  1487.28  1489.72
eigval :     1490.56  1490.74  1491.89  1493.45  1495.72  1496.70
eigval :     1497.18  1498.45  1499.98  1500.27  1501.87  1502.22
eigval :     1502.85  1503.33  1504.32  1506.21  1510.25  1516.60
eigval :     1521.31  1525.84  1584.67  1587.99  2342.11  2347.45
eigval :     2811.27  2819.91  2940.48  2946.65  2962.69  2963.09
eigval :     2963.65  2967.41  2968.96  2969.54  2978.59  2978.87
eigval :     2980.79  2980.89  2982.20  2982.41  2983.32  2983.84
eigval :     2984.66  2987.24  2990.73  2991.11  2991.79  2993.49
eigval :     2996.91  3000.52  3003.08  3021.51  3025.47  3027.21
eigval :     3027.31  3028.93  3029.66  3029.99  3030.28  3031.08
eigval :     3036.88  3036.96  3037.68  3041.39  3077.08  3078.61
eigval :     3091.03  3091.21  3135.31  3136.95  3138.26  3144.15

   temp. (K)  partition function   enthalpy   heat capacity  entropy
                                   cal/mol     cal/K/mol   cal/K/mol   J/K/mol
 298.15  VIB  0.403E+24            28281.316    163.040    181.554
         ROT  0.926E+08              888.752      2.981     39.434
         INT  0.373E+32            29170.068    166.021    220.988
         TR   0.150E+29             1481.254      4.968     45.140
         TOT                       30651.3221   170.9887   266.1283  1113.4810

       T/K    H(0)-H(T)+PV         H(T)/Eh          T*S/Eh         G(T)/Eh
   ------------------------------------------------------------------------
    298.15    0.488460E-01    0.829312E+00    0.126446E+00    0.702866E+00
   ------------------------------------------------------------------------

         :::::::::::::::::::::::::::::::::::::::::::::::::::::
         ::                  THERMODYNAMIC                  ::
         :::::::::::::::::::::::::::::::::::::::::::::::::::::
         :: total free energy        -130.827100299112 Eh   ::
         ::.................................................::
         :: total energy             -131.529966320727 Eh   ::
         :: zero point energy           0.780466190474 Eh   ::
         :: G(RRHO) w/o ZPVE           -0.077600168859 Eh   ::
         :: G(RRHO) contrib.            0.702866021616 Eh   ::
         :::::::::::::::::::::::::::::::::::::::::::::::::::::

           -------------------------------------------------
          | TOTAL ENERGY             -131.529966320727 Eh   |
          | TOTAL ENTHALPY           -130.700654139275 Eh   |
          | TOTAL FREE ENERGY        -130.827100299112 Eh   |
          | GRADIENT NORM               0.000115751760 Eh/α |
          | HOMO-LUMO GAP               1.783457541512 eV   |
           -------------------------------------------------

 * finished run on 2025/09/02 at 15:15:01.106
