   * xtb version 6.7.1 (edcfbbe) compiled by 'albert@albert-system' on 2024-07-22

   ID    Z sym.   atoms
    1    6 C      1-4, 6-14, 16-19, 21, 22, 24, 25, 27-31, 33-42, 44, 46
    2    7 N      5, 15, 20, 23, 26, 32
    3    8 O      43, 45
    4    1 H      47-94

          program call               : xtb data2507/toluene/Pd-1/Pd-1_toluene_S0_crest.xyz --gfn 2 --gbsa toluene --ohess vtight --parallel 40 --molden --ceasefiles --namespace data2507/toluene/Pd-1/Pd-1_toluene_S0_finalOpt
      * Solvation model:               GBSA
        Solvent                        toluene
        Solvent mass                       9.2140E+01 g/mol
          :  Hamiltonian                  GFN2-xTB          :
 * total energy  :  -131.5669001 Eh     change       -0.2204246E-08 Eh
 * total energy  :  -131.5682889 Eh     change       -0.1388768E-02 Eh
 * total energy  :  -131.5691238 Eh     change       -0.8348670E-03 Eh
 * total energy  :  -131.5689914 Eh     change        0.1323579E-03 Eh
 * total energy  :  -131.5698697 Eh     change       -0.8783105E-03 Eh
 * total energy  :  -131.5698697 Eh     change        0.4364944E-07 Eh
 * total energy  :  -131.5704071 Eh     change       -0.5374033E-03 Eh
 * total energy  :  -131.5706828 Eh     change       -0.2756801E-03 Eh
 * total energy  :  -131.5710030 Eh     change       -0.3202639E-03 Eh
 * total energy  :  -131.5712606 Eh     change       -0.2575261E-03 Eh
 * total energy  :  -131.5733792 Eh     change       -0.1196724E-05 Eh
 * total energy  :  -131.5733800 Eh     change       -0.8546215E-06 Eh
 * total energy  :  -131.5733807 Eh     change       -0.6664008E-06 Eh
 * total energy  :  -131.5733813 Eh     change       -0.5734557E-06 Eh
 * total energy  :  -131.5733818 Eh     change       -0.5147200E-06 Eh
 * total energy  :  -131.5733824 Eh     change       -0.5846227E-06 Eh
 * total energy  :  -131.5733830 Eh     change       -0.5736554E-06 Eh
 * total energy  :  -131.5733829 Eh     change        0.4614833E-09 Eh
 * total energy  :  -131.5733830 Eh     change       -0.8213237E-07 Eh
   *** GEOMETRY OPTIMIZATION CONVERGED AFTER 123 ITERATIONS ***

 final structure:
================
94
 xtb: 6.7.1 (edcfbbe)
C           -4.20577027560200        3.66720320934394       -4.71031477962413
C           -3.72793796608545        2.80759488126729       -3.54495732289745
C           -4.74641725493349        2.79699056230362       -2.40748582893279
C           -4.28445441208176        2.00972791786589       -1.17278866480131
N           -3.16882728302768        2.62808534781712       -0.48445288203565
C           -3.54032450827436        3.70898604394144        0.40723207347536
C           -3.76979611368150        3.23117962783760        1.84649353951536
C           -4.13905848910920        4.38862403507055        2.77169627485920
C           -4.39366739421103        3.91050777892377        4.19684936383291
C           -1.88738346558635        2.20592398453218       -0.59147539520137
C           -1.50092017368359        1.19374147454672       -1.50700539635984
C           -0.20230544276121        0.79019287181599       -1.61359775153113
C            0.82149026897128        1.34438015382347       -0.82463561317371
C            2.14954320033831        0.85879292195583       -0.92340140251721
N            3.12919572319269        1.32926666036851       -0.22442046637981
C            4.36195675206542        0.73589095145921       -0.15712031098669
C            5.50521943861465        1.51474343077246       -0.29362060007551
C            6.77327246004428        0.95053930227347       -0.19970656735444
C            7.91741687425839        1.75955136286098       -0.34513924356008
N            8.84069766119942        2.43203611692889       -0.46402597684890
C            6.90621841103569       -0.43249271496359        0.03527746298780
C            8.18355896573705       -1.02166716144007        0.10940651495247
N            9.21786296101274       -1.51672095960087        0.17296147128966
C            5.76805498208337       -1.21461480285983        0.20482289366515
C            4.49851559049414       -0.65383784127891        0.14313012307689
N            3.39302873323988       -1.45168037469999        0.28162264825610
C            2.41978141611423       -1.18272877632190        1.08630625370521
C            1.17159973668299       -1.85458973391165        1.04927424591167
C            0.16092223040271       -1.53432817009958        1.97248799104378
C           -1.08452155987515       -2.08780367789085        1.90565162581203
C           -1.42362131890609       -3.01657985576110        0.88910942953949
N           -2.66259085185521       -3.56060828350786        0.80946672382940
C           -3.06321440699046       -4.34605297160995       -0.34059396824162
C           -3.29004859464037       -3.49717418762744       -1.59801691856389
C           -3.63074401410277       -4.36426899835419       -2.80821281680369
C           -3.86572408700039       -3.51889711129361       -4.05515105791355
C           -3.67791478941828       -3.27772665634357        1.80353755470856
C           -4.43602585864399       -1.96845298991863        1.54563570044938
C           -5.44050366426081       -1.64575306165114        2.65350194421768
C           -4.78363363264597       -1.24346683103311        3.97030026478704
C           -0.40975067387975       -3.35357653646919       -0.02476937877170
C            0.85525856094184       -2.80717662873569        0.04956375458926
O            1.77192466494180       -3.18762308035688       -0.86386859551599
C            0.44996879880710        2.35786741224533        0.09297540070755
O            1.36569827866780        2.94253599631634        0.89156954064835
C           -0.86514425477509        2.76205125140311        0.19936579703107
H           -5.15168277670941        3.29494149397296       -5.09888330256553
H           -3.47611840592789        3.65575708754330       -5.51695651254984
H           -4.34783889338399        4.69856608164881       -4.39376229631833
H           -3.56371379004406        1.78801417888324       -3.90009441592966
H           -2.77423745790472        3.19357905589701       -3.17923923703690
H           -5.67835734914224        2.35265859850794       -2.76283094522934
H           -4.96190016914314        3.82798981614202       -2.12002466093066
H           -4.03214206677061        0.98991209391915       -1.45841242498436
H           -5.11720529680383        1.95378692497582       -0.46485192971026
H           -4.46380482788549        4.15358544887082        0.03065908928206
H           -2.77518246478444        4.48784878634221        0.38587709902642
H           -2.86739704618964        2.74108753873992        2.21582861491799
H           -4.57524572189480        2.49444798222261        1.85428981809439
H           -5.03441061458094        4.88604105720163        2.39158876530855
H           -3.32958492743859        5.12235739091327        2.77563499787590
H           -4.64958616657420        4.74897119282422        4.84064088179875
H           -5.21485759278860        3.19725217977883        4.22083028919601
H           -3.50690560951248        3.42697392713364        4.60169219874078
H           -2.22707418167676        0.73603425758024       -2.15458906295644
H            0.06126039000219        0.01743260147558       -2.32174195086827
H            2.31733564051211        0.05522887982263       -1.64900567658204
H            5.40011367898780        2.57081826610224       -0.49416352773544
H            5.86643170158792       -2.27119195264417        0.40631169851190
H            2.52759588613479       -0.40321847709847        1.84889384970548
H            0.38536133268426       -0.81319653913540        2.74572989801307
H           -1.81264705796815       -1.78539330227200        2.63666317391424
H           -2.30927244069909       -5.11228628169801       -0.54446730538795
H           -3.99003791643122       -4.86518187198310       -0.08988473043402
H           -2.39125613250225       -2.91518753154958       -1.80781643862529
H           -4.10540936996922       -2.79527685403966       -1.41717684538533
H           -2.81289382908502       -5.06403652365453       -2.99533282530805
H           -4.52654518370944       -4.95213210099148       -2.59473691318551
H           -2.97708992854922       -2.93854061124437       -4.29529198498908
H           -4.69442860030966       -2.83094682758062       -3.90113245793536
H           -4.10054846141211       -4.15246754941283       -4.90744393051671
H           -3.21025955742854       -3.25680606436858        2.78909813467334
H           -4.39050265528499       -4.10629618053394        1.80338462358837
H           -4.97361542071651       -2.05752134303812        0.60030402590143
H           -3.72120769264085       -1.14966520783882        1.44737614183576
H           -6.08654878552599       -2.51073836348636        2.82005102320001
H           -6.07477788785190       -0.82397773537502        2.31399374037792
H           -4.24236640784922       -2.07495889847240        4.41514652361937
H           -5.53959063107515       -0.92051731446822        4.68286822655468
H           -4.08793496045602       -0.42130862685537        3.81630248250738
H           -0.57087069180130       -4.06156295506717       -0.81888866848596
H            2.60128147876896       -2.69537330557526       -0.66210901550155
H            2.23722354654485        2.53557101058495        0.67694430536318
H           -1.06172667570870        3.52636034737797        0.93067959601099

          :  Hamiltonian                  GFN2-xTB          :
         :: gradient norm              0.000054932577 Eh/a0 ::
         :: HOMO-LUMO gap              1.648809504686 eV    ::
         :: SCC energy              -133.664217917985 Eh    ::
         :: -> dispersion             -0.106046152493 Eh    ::
         :: -> Gsolv                  -0.069949413666 Eh    ::
         :: repulsion energy           2.090834885496 Eh    ::

    * Orbital Energies and Occupations

         #    Occupation            Energy/Eh            Energy/eV
      -------------------------------------------------------------
         1        2.0000           -0.7135576             -19.4169
       ...           ...                  ...                  ...
       109        2.0000           -0.4305191             -11.7150
       110        2.0000           -0.4288857             -11.6706
       111        2.0000           -0.4281615             -11.6509
       112        2.0000           -0.4260853             -11.5944
       113        2.0000           -0.4250253             -11.5655
       114        2.0000           -0.4223239             -11.4920
       115        2.0000           -0.4210222             -11.4566
       116        2.0000           -0.3996307             -10.8745
       117        2.0000           -0.3937583             -10.7147
       118        2.0000           -0.3914420             -10.6517
       119        2.0000           -0.3814477             -10.3797
       120        2.0000           -0.3627528              -9.8710
       121        2.0000           -0.3600738              -9.7981 (HOMO)
       122                         -0.2994811              -8.1493 (LUMO)
       123                         -0.2844412              -7.7400
       124                         -0.2748076              -7.4779
       125                         -0.2544062              -6.9227
       126                         -0.2222530              -6.0478
       127                         -0.2202486              -5.9933
       128                         -0.2198544              -5.9825
       129                         -0.2177566              -5.9255
       130                         -0.1948234              -5.3014
       131                         -0.1845065              -5.0207
       132                         -0.1759948              -4.7891
       ...                                ...                  ...
       232                          1.1719373              31.8900
      -------------------------------------------------------------
                  HL-Gap            0.0605927 Eh            1.6488 eV

     #   Z          covCN         q      C6AA      α(0)
     1   6 C        3.752    -0.104    22.551     6.772
     2   6 C        3.800    -0.054    21.551     6.610
     3   6 C        3.802    -0.068    21.793     6.646
     4   6 C        3.747    -0.016    20.929     6.525
     5   7 N        2.737    -0.047    22.159     6.991
     6   6 C        3.751    -0.016    20.915     6.522
     7   6 C        3.802    -0.066    21.770     6.643
     8   6 C        3.801    -0.054    21.549     6.609
     9   6 C        3.752    -0.104    22.553     6.772
    10   6 C        2.906     0.076    26.312     8.411
    11   6 C        2.918    -0.070    29.744     8.943
    12   6 C        2.921    -0.032    28.804     8.801
    13   6 C        2.971    -0.059    29.469     8.904
    14   6 C        2.860     0.085    26.110     8.375
    15   7 N        1.841    -0.283    28.180     7.867
    16   6 C        2.930     0.077    26.290     8.409
    17   6 C        2.929    -0.045    29.115     8.849
    18   6 C        2.975     0.009    27.819     8.652
    19   6 C        1.911     0.118    28.202     8.576
    20   7 N        0.911    -0.269    26.955     7.509
    21   6 C        2.975     0.009    27.820     8.652
    22   6 C        1.911     0.118    28.203     8.577
    23   7 N        0.911    -0.269    26.963     7.510
    24   6 C        2.929    -0.045    29.118     8.849
    25   6 C        2.930     0.076    26.295     8.410
    26   7 N        1.840    -0.281    28.132     7.860
    27   6 C        2.861     0.085    26.094     8.373
    28   6 C        2.971    -0.059    29.459     8.903
    29   6 C        2.921    -0.033    28.814     8.803
    30   6 C        2.918    -0.071    29.779     8.949
    31   6 C        2.910     0.076    26.309     8.411
    32   7 N        2.737    -0.054    22.290     7.012
    33   6 C        3.748    -0.014    20.883     6.518
    34   6 C        3.802    -0.066    21.772     6.643
    35   6 C        3.801    -0.054    21.550     6.609
    36   6 C        3.752    -0.104    22.552     6.772
    37   6 C        3.747    -0.014    20.900     6.521
    38   6 C        3.800    -0.066    21.773     6.644
    39   6 C        3.800    -0.056    21.575     6.613
    40   6 C        3.751    -0.105    22.571     6.775
    41   6 C        2.920    -0.094    30.359     9.035
    42   6 C        2.844     0.152    24.691     8.144
    43   8 O        1.658    -0.413    21.102     6.201
    44   6 C        2.844     0.152    24.689     8.143
    45   8 O        1.658    -0.413    21.093     6.200
    46   6 C        2.921    -0.095    30.396     9.041
    47   1 H        0.925     0.036     2.497     2.471
    48   1 H        0.925     0.033     2.542     2.493
    49   1 H        0.925     0.035     2.523     2.484
    50   1 H        0.924     0.033     2.541     2.493
    51   1 H        0.924     0.033     2.539     2.492
    52   1 H        0.924     0.048     2.343     2.394
    53   1 H        0.924     0.044     2.395     2.420
    54   1 H        0.925     0.061     2.186     2.312
    55   1 H        0.924     0.060     2.203     2.321
    56   1 H        0.924     0.060     2.193     2.316
    57   1 H        0.924     0.053     2.288     2.365
    58   1 H        0.924     0.042     2.422     2.434
    59   1 H        0.924     0.045     2.383     2.414
    60   1 H        0.924     0.035     2.517     2.481
    61   1 H        0.924     0.031     2.575     2.509
    62   1 H        0.925     0.035     2.519     2.482
    63   1 H        0.925     0.039     2.462     2.454
    64   1 H        0.925     0.035     2.514     2.479
    65   1 H        0.926     0.054     2.270     2.356
    66   1 H        0.926     0.036     2.503     2.474
    67   1 H        0.924     0.002     3.022     2.719
    68   1 H        0.926     0.048     2.348     2.396
    69   1 H        0.926     0.047     2.358     2.401
    70   1 H        0.924     0.002     3.032     2.723
    71   1 H        0.926     0.036     2.497     2.471
    72   1 H        0.926     0.058     2.226     2.333
    73   1 H        0.924     0.051     2.311     2.378
    74   1 H        0.924     0.058     2.224     2.332
    75   1 H        0.924     0.042     2.417     2.431
    76   1 H        0.924     0.046     2.376     2.411
    77   1 H        0.924     0.031     2.575     2.510
    78   1 H        0.924     0.035     2.515     2.480
    79   1 H        0.925     0.035     2.514     2.479
    80   1 H        0.925     0.039     2.467     2.456
    81   1 H        0.925     0.035     2.511     2.478
    82   1 H        0.924     0.058     2.219     2.330
    83   1 H        0.924     0.055     2.256     2.349
    84   1 H        0.924     0.043     2.404     2.425
    85   1 H        0.924     0.046     2.375     2.410
    86   1 H        0.924     0.035     2.514     2.479
    87   1 H        0.924     0.039     2.464     2.455
    88   1 H        0.925     0.033     2.549     2.497
    89   1 H        0.925     0.035     2.513     2.479
    90   1 H        0.925     0.038     2.475     2.460
    91   1 H        0.926     0.057     2.230     2.335
    92   1 H        0.804     0.326     0.648     1.264
    93   1 H        0.804     0.326     0.647     1.263
    94   1 H        0.926     0.058     2.227     2.334

molecular dipole:
                 x           y           z       tot (Debye)
 q only:      -10.245      -0.520       0.224
   full:      -10.254      -0.596       0.259      26.115

 projected vibrational frequencies (cm⁻¹)
eigval :       -0.00    -0.00    -0.00     0.00     0.00     0.00
eigval :        7.10    15.33    15.53    22.40    25.24    27.54
eigval :       32.34    35.00    37.55    41.22    42.01    43.93
eigval :       52.57    56.10    69.86    73.57    78.65    83.80
eigval :       92.20    98.19    98.64    99.90   106.65   116.92
eigval :      123.00   125.03   132.46   146.43   152.47   168.34
eigval :      176.47   180.29   198.72   209.13   214.28   218.93
eigval :      225.25   232.30   233.65   238.10   239.76   247.40
eigval :      255.15   259.43   271.55   281.16   291.47   294.17
eigval :      313.45   329.89   341.95   354.58   366.65   370.16
eigval :      373.90   392.16   399.38   403.13   409.17   413.79
eigval :      426.28   428.62   436.03   442.61   447.89   462.54
eigval :      468.20   471.98   481.61   489.35   520.31   538.76
eigval :      544.92   549.33   550.65   560.00   581.73   599.77
eigval :      603.55   606.79   638.62   642.80   670.74   672.40
eigval :      685.80   693.71   696.54   700.85   716.78   731.46
eigval :      741.47   772.15   778.50   783.91   785.44   794.21
eigval :      799.92   818.91   824.94   826.89   835.17   839.66
eigval :      844.00   847.56   855.51   857.89   863.62   873.48
eigval :      879.88   893.83   895.94   911.10   912.81   914.74
eigval :      924.14   929.37   942.04   942.73   943.64   946.84
eigval :      967.51   969.53  1001.38  1014.08  1029.96  1037.72
eigval :     1057.60  1058.05  1085.92  1092.92  1097.89  1099.58
eigval :     1101.74  1102.40  1118.35  1124.32  1127.01  1127.99
eigval :     1129.24  1146.02  1150.16  1162.23  1165.21  1173.19
eigval :     1181.14  1189.65  1197.08  1202.53  1205.12  1212.79
eigval :     1215.18  1220.58  1229.57  1237.19  1237.44  1242.38
eigval :     1247.78  1250.60  1254.96  1259.04  1262.27  1263.42
eigval :     1274.67  1275.97  1278.56  1280.55  1284.83  1286.41
eigval :     1291.48  1295.16  1296.25  1307.05  1307.47  1323.19
eigval :     1326.64  1334.80  1336.44  1339.99  1348.03  1351.43
eigval :     1355.00  1359.89  1362.67  1365.88  1369.28  1382.00
eigval :     1392.45  1412.65  1413.36  1416.38  1417.55  1419.91
eigval :     1425.71  1451.64  1456.01  1464.82  1473.32  1475.44
eigval :     1478.61  1485.79  1486.54  1491.04  1492.39  1493.86
eigval :     1494.84  1496.02  1496.69  1498.22  1499.04  1499.91
eigval :     1501.21  1501.60  1503.70  1503.92  1504.13  1504.47
eigval :     1510.36  1511.50  1514.12  1516.12  1520.75  1527.11
eigval :     1583.57  1586.32  1622.51  1623.67  2354.07  2356.56
eigval :     2882.14  2885.00  2942.00  2944.92  2962.17  2962.62
eigval :     2963.09  2966.29  2966.64  2967.09  2977.69  2977.72
eigval :     2978.58  2979.00  2981.50  2982.15  2982.99  2983.75
eigval :     2986.08  2988.02  2989.15  2990.43  2997.40  2997.88
eigval :     3000.59  3016.33  3025.64  3026.08  3027.81  3028.61
eigval :     3029.06  3030.05  3030.51  3031.64  3036.55  3036.90
eigval :     3036.99  3041.71  3057.92  3062.33  3071.25  3072.42
eigval :     3091.73  3092.31  3135.67  3135.89  3137.99  3140.90

   temp. (K)  partition function   enthalpy   heat capacity  entropy
                                   cal/mol     cal/K/mol   cal/K/mol   J/K/mol
 298.15  VIB  0.157E+25            28713.568    164.070    184.883
         ROT  0.867E+08              888.752      2.981     39.305
         INT  0.136E+33            29602.320    167.050    224.187
         TR   0.150E+29             1481.254      4.968     45.140
         TOT                       31083.5744   172.0186   269.3276  1126.8666

       T/K    H(0)-H(T)+PV         H(T)/Eh          T*S/Eh         G(T)/Eh
   ------------------------------------------------------------------------
    298.15    0.495348E-01    0.830463E+00    0.127966E+00    0.702496E+00
   ------------------------------------------------------------------------

         :::::::::::::::::::::::::::::::::::::::::::::::::::::
         ::                  THERMODYNAMIC                  ::
         :::::::::::::::::::::::::::::::::::::::::::::::::::::
         :: total free energy        -130.870886635138 Eh   ::
         ::.................................................::
         :: total energy             -131.573383032499 Eh   ::
         :: zero point energy           0.780927789897 Eh   ::
         :: G(RRHO) w/o ZPVE           -0.078431392536 Eh   ::
         :: G(RRHO) contrib.            0.702496397361 Eh   ::
         :::::::::::::::::::::::::::::::::::::::::::::::::::::

           -------------------------------------------------
          | TOTAL ENERGY             -131.573383032499 Eh   |
          | TOTAL ENTHALPY           -130.742920413767 Eh   |
          | TOTAL FREE ENERGY        -130.870886635138 Eh   |
          | GRADIENT NORM               0.000054981492 Eh/α |
          | HOMO-LUMO GAP               1.648810202999 eV   |
           -------------------------------------------------

 * finished run on 2025/09/02 at 15:14:41.859
