   * xtb version 6.7.1 (edcfbbe) compiled by 'albert@albert-system' on 2024-07-22

   ID    Z sym.   atoms
    1    6 C      1-5, 7-22, 24-48
    2    7 N      6, 23
    3    1 H      49-94

          program call               : xtb data2507/toluene/DC–TC/DC–TC_toluene_T1_crest.xyz --gfn 2 --uhf 2 --gbsa toluene --ohess vtight --parallel 40 --molden --ceasefiles --namespace data2507/toluene/DC–TC/DC–TC_toluene_T1_finalOpt
      * Solvation model:               GBSA
        Solvent                        toluene
        Solvent mass                       9.2140E+01 g/mol
          :  Hamiltonian                  GFN2-xTB          :
 * total energy  :  -127.8051285 Eh     change       -0.4210762E-08 Eh
 * total energy  :  -127.8052150 Eh     change       -0.8651479E-04 Eh
 * total energy  :  -127.8052795 Eh     change       -0.6455192E-04 Eh
 * total energy  :  -127.8053253 Eh     change       -0.4574358E-04 Eh
 * total energy  :  -127.8053726 Eh     change       -0.4727108E-04 Eh
 * total energy  :  -127.8054729 Eh     change       -0.1003662E-03 Eh
 * total energy  :  -127.8055355 Eh     change       -0.6261837E-04 Eh
 * total energy  :  -127.8056142 Eh     change       -0.7865070E-04 Eh
 * total energy  :  -127.8057187 Eh     change       -0.1044836E-03 Eh
 * total energy  :  -127.8058226 Eh     change       -0.1039795E-03 Eh
 * total energy  :  -127.8064305 Eh     change       -0.9329891E-06 Eh
 * total energy  :  -127.8064318 Eh     change       -0.1226946E-05 Eh
 * total energy  :  -127.8064327 Eh     change       -0.9606159E-06 Eh
 * total energy  :  -127.8064333 Eh     change       -0.5594130E-06 Eh
 * total energy  :  -127.8064339 Eh     change       -0.6113735E-06 Eh
 * total energy  :  -127.8064343 Eh     change       -0.4323762E-06 Eh
 * total energy  :  -127.8064347 Eh     change       -0.3547668E-06 Eh
 * total energy  :  -127.8064350 Eh     change       -0.3723037E-06 Eh
 * total energy  :  -127.8064351 Eh     change       -0.8216901E-08 Eh
   *** GEOMETRY OPTIMIZATION CONVERGED AFTER 94 ITERATIONS ***

 final structure:
================
94
 xtb: 6.7.1 (edcfbbe)
C            2.96636729454271        3.29562219181715        3.73643323635478
C            2.60320076618969        1.97657004335557        3.12596046060617
C            1.46037683209759        1.82747233710264        2.34751888080310
C            1.13116295755780        0.61333696354057        1.78229356130087
C            1.94788841086527       -0.50399227966828        1.98082465382715
N            1.61913375789780       -1.73909926339295        1.41847566872196
C            2.62642913705003       -2.59396064840636        0.96403577778799
C            3.77136374273096       -2.08852873529739        0.34274211763206
C            4.74956173831732       -2.94597493730056       -0.11719769852655
C            4.62403325081076       -4.32527950440408        0.01995203853091
C            5.67656110155837       -5.25710143015901       -0.49819939987082
C            3.47904583794050       -4.82278220948193        0.63865703607880
C            2.49414826487141       -3.97860645449647        1.10481201135327
C            0.28467887157957       -2.07944261323480        1.25215323972545
C           -0.68364584630893       -1.70278325293050        2.21290725711430
C           -2.01220992412680       -1.87755803734443        1.97763215212800
C           -2.49235997399602       -2.39734362992293        0.73581089521129
C           -3.89764388533283       -2.12028780911881        0.24695434465747
C           -3.36128533125471       -0.83546161390134       -0.34041132778383
C           -2.75246920414960       -0.79890076739076       -1.63310754609187
C           -1.87708664475347        0.18251965204333       -1.98198106865556
C           -1.57099855350954        1.23919337096764       -1.09238474736116
N           -0.55127759248880        2.13514032882379       -1.37837497008307
C           -0.65016340270455        3.46898165822352       -0.97453324527222
C           -1.87250688801773        4.14200749529878       -1.05103192926455
C           -1.97327454023353        5.45264159735378       -0.63367746410137
C           -0.87033925223133        6.13676511438987       -0.12961922618264
C           -0.98057819856704        7.56811102085293        0.29885555307814
C            0.34488455847220        5.46024240922976       -0.05593070310198
C            0.46029969385008        4.14885831145004       -0.46635273259829
C            0.60674949672765        1.68003211776205       -2.01251140134196
C            1.08187557020562        0.38368617371646       -1.79250019359450
C            2.22147502995588       -0.05957693057390       -2.43038451990898
C            2.92676325582262        0.76127177385570       -3.30401561795734
C            4.16829861438172        0.28491318609385       -3.99407872904855
C            2.44593276245437        2.05126428868571       -3.52429612033386
C            1.30741375212084        2.50746093698119       -2.89676708944122
C           -2.32975472613474        1.33192754176720        0.09902948634511
C           -3.19432368708999        0.34126204988015        0.45270649681340
C           -4.45602147421720       -3.13248452072602       -0.75939818868889
C           -5.76475122593263       -2.63632910421845       -1.37012622782960
C           -6.81320820869791       -2.41096262153716       -0.28782096624838
C           -6.27077105723411       -1.43986483624994        0.75327491420322
C           -4.95833605049940       -1.95423125613501        1.34058189179104
C           -1.49519920968255       -2.96062969252155       -0.12007166461277
C           -0.16462541705384       -2.79908665223957        0.11946114331141
C            3.09370192624521       -0.36236894458160        2.77104590237181
C            3.41046987589431        0.85771176268971        3.32709059347744
H            3.04692187252113        3.20511834337310        4.81947447535913
H            3.93138400960999        3.63527883628727        3.36029154878348
H            2.21758962601147        4.04875599506294        3.50428196093493
H            0.81897451465814        2.67948177658163        2.17156266108967
H            0.24276000235786        0.52362874245213        1.17556993710708
H            3.87781879727923       -1.02100398251415        0.21602924366583
H            5.62650618676740       -2.53610233490512       -0.59826585983728
H            5.35986906218059       -5.68856382483309       -1.44898952614298
H            5.84265341422396       -6.07625873741307        0.19900633246953
H            6.61574713495323       -4.73322238862370       -0.65850838614601
H            3.36456806807554       -5.89034466528561        0.76349452837439
H            1.61710047995273       -4.37704346526515        1.59428700310746
H           -0.34531523721799       -1.28843732736747        3.15281790787744
H           -2.71308150417312       -1.60533954173815        2.75090917965789
H           -2.97695074171531       -1.57052985804538       -2.35239565473323
H           -1.41232226311175        0.17709243424270       -2.95849519968361
H           -2.73414527846507        3.62688040852265       -1.45071256107754
H           -2.92556134771908        5.95877000269115       -0.70653008823909
H           -1.99117767697757        7.79789741436087        0.62888050501053
H           -0.74085823504398        8.22762342116076       -0.53678028852536
H           -0.28546303068637        7.78567790236754        1.10696190111314
H            1.21326914029939        5.96886705227234        0.33860748648414
H            1.40577151829230        3.63248502642339       -0.38601293459930
H            0.55565285786631       -0.26923373343359       -1.11260539846938
H            2.57456442686265       -1.06270535383174       -2.23699517093704
H            4.36521204413621       -0.75839812289850       -3.76061695748524
H            5.02722212755340        0.87958740418218       -3.68243933825504
H            4.06842383122174        0.38929228680798       -5.07412544452164
H            2.97196979221700        2.70343043124249       -4.20726791252114
H            0.94254364117883        3.50572982895324       -3.09117354592922
H           -2.18974948769307        2.18481875776101        0.74801634860176
H           -3.73593833368805        0.44033860675261        1.38000060629807
H           -4.63179730031196       -4.07428364784217       -0.23244542823063
H           -3.74867156787755       -3.33778837817562       -1.56016634152095
H           -6.12800485471382       -3.36541512807576       -2.09881031866412
H           -5.58059723344102       -1.69607336345189       -1.89531068174618
H           -7.73128704214488       -2.01612889167323       -0.72910328305722
H           -7.05352303818973       -3.36349561707938        0.19175613842929
H           -7.00109974837139       -1.30158518222532        1.55448223735588
H           -6.09458423230750       -0.46850211976094        0.28479734117885
H           -5.12266996914237       -2.92792950772838        1.80990752343664
H           -4.63110043577177       -1.26899896685598        2.11968931903019
H           -1.79398138584753       -3.49980834557382       -1.00488679495495
H            0.56192469554519       -3.19363782570501       -0.57671612452011
H            3.72400489339125       -1.22150025120529        2.94989704059314
H            4.29767488232274        0.94750555177853        3.93799833129581

          :  Hamiltonian                  GFN2-xTB          :
         :: gradient norm              0.000057921695 Eh/a0 ::
         :: HOMO-LUMO gap              0.417009712854 eV    ::
         :: SCC energy              -130.081866682069 Eh    ::
         :: -> dispersion             -0.131557404309 Eh    ::
         :: -> Gsolv                  -0.045079268607 Eh    ::
         :: repulsion energy           2.275431623752 Eh    ::

    * Orbital Energies and Occupations

         #    Occupation            Energy/Eh            Energy/eV
      -------------------------------------------------------------
         1        2.0000           -0.6626312             -18.0311
       ...           ...                  ...                  ...
       109        2.0000           -0.4039111             -10.9910
       110        2.0000           -0.4019968             -10.9389
       111        2.0000           -0.4019205             -10.9368
       112        2.0000           -0.3988290             -10.8527
       113        2.0000           -0.3944891             -10.7346
       114        2.0000           -0.3942936             -10.7293
       115        2.0000           -0.3933271             -10.7030
       116        2.0000           -0.3900560             -10.6140
       117        2.0000           -0.3878029             -10.5527
       118        2.0000           -0.3717535             -10.1159
       119        1.9998           -0.3450838              -9.3902
       120        1.0002           -0.3291820              -8.9575
       121        0.9996           -0.2416847              -6.5766 (HOMO)
       122        0.0002           -0.2263599              -6.1596 (LUMO)
       123        0.0002           -0.2261589              -6.1541
       124        0.0000           -0.2228954              -6.0653
       125        0.0000           -0.2224120              -6.0521
       126        0.0000           -0.2190103              -5.9596
       127                         -0.2178806              -5.9288
       128                         -0.2121108              -5.7718
       129                         -0.2115551              -5.7567
       130                         -0.1961690              -5.3380
       131                         -0.1954106              -5.3174
       132                         -0.1745523              -4.7498
       ...                                ...                  ...
       238                          0.6677574              18.1706
      -------------------------------------------------------------
                  HL-Gap            0.0153248 Eh            0.4170 eV

     #   Z          covCN         q      C6AA      α(0)
     1   6 C        3.757    -0.109    22.634     6.783
     2   6 C        2.965     0.009    27.807     8.650
     3   6 C        2.923    -0.039    28.981     8.828
     4   6 C        2.919    -0.045    29.121     8.849
     5   6 C        2.927     0.058    26.710     8.476
     6   7 N        2.750    -0.046    22.134     6.987
     7   6 C        2.925     0.057    26.714     8.476
     8   6 C        2.919    -0.047    29.165     8.856
     9   6 C        2.923    -0.041    29.011     8.833
    10   6 C        2.965     0.010    27.789     8.647
    11   6 C        3.757    -0.110    22.646     6.785
    12   6 C        2.923    -0.041    29.016     8.834
    13   6 C        2.919    -0.046    29.144     8.853
    14   6 C        2.926     0.034    27.246     8.560
    15   6 C        2.912    -0.049    29.229     8.865
    16   6 C        2.914    -0.048    29.191     8.860
    17   6 C        3.274    -0.012    26.936     8.361
    18   6 C        3.912     0.023    20.128     6.377
    19   6 C        3.275    -0.005    26.775     8.336
    20   6 C        2.914    -0.047    29.177     8.857
    21   6 C        2.912    -0.050    29.235     8.866
    22   6 C        2.925     0.034    27.239     8.559
    23   7 N        2.750    -0.047    22.141     6.988
    24   6 C        2.926     0.058    26.711     8.476
    25   6 C        2.919    -0.046    29.147     8.853
    26   6 C        2.923    -0.041    29.012     8.833
    27   6 C        2.965     0.010    27.788     8.647
    28   6 C        3.757    -0.109    22.646     6.785
    29   6 C        2.923    -0.041    29.015     8.833
    30   6 C        2.919    -0.047    29.160     8.855
    31   6 C        2.927     0.058    26.709     8.475
    32   6 C        2.919    -0.045    29.120     8.849
    33   6 C        2.923    -0.040    28.982     8.828
    34   6 C        2.965     0.009    27.805     8.649
    35   6 C        3.757    -0.109    22.635     6.783
    36   6 C        2.923    -0.042    29.032     8.836
    37   6 C        2.919    -0.049    29.208     8.863
    38   6 C        2.911    -0.051    29.277     8.873
    39   6 C        2.914    -0.046    29.146     8.853
    40   6 C        3.811    -0.056    21.574     6.611
    41   6 C        3.806    -0.053    21.519     6.604
    42   6 C        3.805    -0.055    21.558     6.610
    43   6 C        3.806    -0.053    21.519     6.604
    44   6 C        3.811    -0.056    21.575     6.612
    45   6 C        2.914    -0.047    29.162     8.855
    46   6 C        2.911    -0.051    29.269     8.871
    47   6 C        2.919    -0.049    29.207     8.862
    48   6 C        2.923    -0.042    29.032     8.836
    49   1 H        0.925     0.048     2.343     2.394
    50   1 H        0.925     0.049     2.332     2.388
    51   1 H        0.925     0.043     2.403     2.424
    52   1 H        0.926     0.031     2.571     2.507
    53   1 H        0.926     0.031     2.571     2.508
    54   1 H        0.926     0.033     2.538     2.491
    55   1 H        0.926     0.035     2.519     2.482
    56   1 H        0.924     0.050     2.323     2.384
    57   1 H        0.925     0.047     2.363     2.404
    58   1 H        0.925     0.045     2.385     2.415
    59   1 H        0.926     0.034     2.528     2.486
    60   1 H        0.926     0.032     2.558     2.501
    61   1 H        0.925     0.019     2.745     2.591
    62   1 H        0.926     0.021     2.723     2.580
    63   1 H        0.926     0.022     2.699     2.569
    64   1 H        0.925     0.018     2.757     2.596
    65   1 H        0.926     0.032     2.560     2.502
    66   1 H        0.926     0.034     2.534     2.489
    67   1 H        0.925     0.045     2.384     2.414
    68   1 H        0.924     0.050     2.317     2.380
    69   1 H        0.925     0.046     2.370     2.408
    70   1 H        0.926     0.035     2.514     2.480
    71   1 H        0.926     0.033     2.539     2.492
    72   1 H        0.926     0.031     2.570     2.507
    73   1 H        0.926     0.031     2.569     2.507
    74   1 H        0.925     0.044     2.400     2.423
    75   1 H        0.925     0.049     2.330     2.387
    76   1 H        0.925     0.048     2.345     2.395
    77   1 H        0.926     0.035     2.517     2.481
    78   1 H        0.926     0.031     2.568     2.506
    79   1 H        0.926     0.019     2.747     2.592
    80   1 H        0.926     0.022     2.695     2.567
    81   1 H        0.924     0.032     2.565     2.505
    82   1 H        0.925     0.031     2.576     2.510
    83   1 H        0.924     0.026     2.648     2.545
    84   1 H        0.924     0.033     2.550     2.497
    85   1 H        0.924     0.026     2.648     2.545
    86   1 H        0.924     0.030     2.587     2.515
    87   1 H        0.924     0.026     2.646     2.544
    88   1 H        0.924     0.032     2.551     2.498
    89   1 H        0.924     0.031     2.568     2.506
    90   1 H        0.925     0.031     2.573     2.508
    91   1 H        0.926     0.021     2.716     2.577
    92   1 H        0.926     0.020     2.736     2.587
    93   1 H        0.926     0.031     2.566     2.505
    94   1 H        0.926     0.035     2.516     2.481

molecular dipole:
                 x           y           z       tot (Debye)
 q only:        1.241       0.684      -0.102
   full:        1.285       0.702      -0.114       3.733

 projected vibrational frequencies (cm⁻¹)
eigval :       -0.00    -0.00    -0.00     0.00     0.00     0.00
eigval :      -23.86    12.58    17.04    20.42    30.06    34.17
eigval :       38.14    41.08    44.36    48.85    51.20    61.21
eigval :       62.13    72.00    77.18    80.09    80.57    99.92
eigval :      103.54   105.37   109.02   121.33   134.43   148.13
eigval :      152.95   157.68   166.18   182.73   202.45   221.70
eigval :      235.15   245.72   259.12   261.09   270.54   272.63
eigval :      291.77   306.51   310.51   316.22   327.81   328.75
eigval :      335.84   351.88   355.43   357.42   364.56   380.29
eigval :      384.51   384.71   387.49   392.05   395.52   396.23
eigval :      410.06   416.06   418.95   423.58   440.10   443.60
eigval :      470.61   474.12   484.27   498.53   499.01   514.47
eigval :      532.18   534.24   540.33   575.42   592.21   596.38
eigval :      601.17   608.80   610.17   610.38   610.82   620.51
eigval :      627.12   655.93   658.56   658.89   662.79   666.80
eigval :      707.66   757.97   775.06   788.03   788.70   791.32
eigval :      796.14   798.42   802.01   803.38   805.70   806.11
eigval :      818.46   819.19   821.55   863.23   866.22   868.91
eigval :      872.61   878.55   881.44   887.26   889.80   891.32
eigval :      901.05   904.11   905.97   912.17   914.19   915.11
eigval :      917.63   923.27   925.94   926.68   926.95   928.28
eigval :      931.07   945.01   951.83   974.70   975.45   976.41
eigval :      996.84  1006.47  1006.94  1007.38  1008.04  1012.63
eigval :     1013.24  1020.54  1020.96  1028.92  1029.58  1030.06
eigval :     1031.76  1088.19  1092.19  1111.23  1118.28  1138.73
eigval :     1141.42  1142.39  1145.79  1146.84  1148.14  1151.00
eigval :     1155.34  1172.74  1180.98  1188.68  1191.55  1199.02
eigval :     1200.89  1205.28  1212.61  1218.02  1222.84  1228.73
eigval :     1233.63  1237.31  1247.73  1249.16  1251.51  1255.65
eigval :     1259.80  1272.14  1273.01  1277.96  1278.66  1304.78
eigval :     1306.54  1309.11  1316.77  1318.63  1322.14  1324.26
eigval :     1329.18  1331.34  1332.14  1333.44  1334.71  1339.65
eigval :     1343.12  1354.40  1360.09  1364.52  1377.78  1399.76
eigval :     1400.47  1400.98  1402.36  1411.04  1411.20  1417.58
eigval :     1418.79  1428.97  1431.56  1471.18  1472.02  1475.83
eigval :     1476.70  1476.98  1477.74  1477.97  1478.64  1479.00
eigval :     1479.55  1481.11  1481.62  1483.99  1484.32  1484.64
eigval :     1485.00  1492.95  1493.43  1510.37  1519.35  1525.39
eigval :     1526.30  1534.33  1536.01  1572.41  1572.65  1583.01
eigval :     1590.78  1612.19  2952.41  2953.61  2957.25  2960.05
eigval :     2962.97  2973.25  2974.09  2978.40  2986.03  2987.51
eigval :     2994.86  2996.03  3010.32  3010.52  3013.96  3014.94
eigval :     3025.35  3031.81  3035.84  3039.61  3043.44  3043.67
eigval :     3058.59  3059.04  3067.25  3067.88  3068.38  3068.56
eigval :     3068.68  3069.15  3070.63  3070.93  3071.39  3072.40
eigval :     3081.97  3082.53  3083.18  3083.34  3086.11  3086.45
eigval :     3088.58  3091.03  3092.66  3094.26  3095.12  3097.52

   temp. (K)  partition function   enthalpy   heat capacity  entropy
                                   cal/mol     cal/K/mol   cal/K/mol   J/K/mol
 298.15  VIB  0.600E+20            25846.268    160.743    161.646
         ROT  0.653E+08              888.752      2.981     38.740
         INT  0.392E+28            26735.020    163.724    200.386
         TR   0.152E+29             1481.254      4.968     45.169
         TOT                       28216.2740   168.6924   245.5552  1027.4030

       T/K    H(0)-H(T)+PV         H(T)/Eh          T*S/Eh         G(T)/Eh
   ------------------------------------------------------------------------
    298.15    0.449655E-01    0.817520E+00    0.116671E+00    0.700849E+00
   ------------------------------------------------------------------------

         :::::::::::::::::::::::::::::::::::::::::::::::::::::
         ::                  THERMODYNAMIC                  ::
         :::::::::::::::::::::::::::::::::::::::::::::::::::::
         :: total free energy        -127.105585965457 Eh   ::
         ::.................................................::
         :: total energy             -127.806435053573 Eh   ::
         :: zero point energy           0.772554798127 Eh   ::
         :: G(RRHO) w/o ZPVE           -0.071705710011 Eh   ::
         :: G(RRHO) contrib.            0.700849088116 Eh   ::
         :::::::::::::::::::::::::::::::::::::::::::::::::::::

           -------------------------------------------------
          | TOTAL ENERGY             -127.806435053573 Eh   |
          | TOTAL ENTHALPY           -126.988914760624 Eh   |
          | TOTAL FREE ENERGY        -127.105585965457 Eh   |
          | GRADIENT NORM               0.000057889900 Eh/α |
          | HOMO-LUMO GAP               0.417009242238 eV   |
           -------------------------------------------------

 * finished run on 2025/09/13 at 22:19:27.984
