   * xtb version 6.7.1 (edcfbbe) compiled by 'albert@albert-system' on 2024-07-22

   ID    Z sym.   atoms
    1    6 C      1-5, 7-22, 24-48
    2    7 N      6, 23
    3    1 H      49-94

          program call               : xtb data2507/toluene/DC–TC/DC–TC_toluene_S0_crest.xyz --gfn 2 --gbsa toluene --ohess vtight --parallel 40 --molden --ceasefiles --namespace data2507/toluene/DC–TC/DC–TC_toluene_S0_finalOpt
      * Solvation model:               GBSA
        Solvent                        toluene
        Solvent mass                       9.2140E+01 g/mol
          :  Hamiltonian                  GFN2-xTB          :
 * total energy  :  -127.9180427 Eh     change       -0.3216286E-08 Eh
 * total energy  :  -127.9181066 Eh     change       -0.6388170E-04 Eh
 * total energy  :  -127.9181403 Eh     change       -0.3367584E-04 Eh
 * total energy  :  -127.9181522 Eh     change       -0.1191166E-04 Eh
 * total energy  :  -127.9181617 Eh     change       -0.9541435E-05 Eh
 * total energy  :  -127.9181661 Eh     change       -0.4392198E-05 Eh
 * total energy  :  -127.9181698 Eh     change       -0.3677406E-05 Eh
 * total energy  :  -127.9181722 Eh     change       -0.2396647E-05 Eh
 * total energy  :  -127.9181748 Eh     change       -0.2657901E-05 Eh
 * total energy  :  -127.9181784 Eh     change       -0.3574244E-05 Eh
 * total energy  :  -127.9182600 Eh     change       -0.2351778E-06 Eh
 * total energy  :  -127.9182602 Eh     change       -0.1942608E-06 Eh
 * total energy  :  -127.9182603 Eh     change       -0.1921245E-06 Eh
 * total energy  :  -127.9182605 Eh     change       -0.1803362E-06 Eh
 * total energy  :  -127.9182605 Eh     change       -0.1161038E-07 Eh
 * total energy  :  -127.9182607 Eh     change       -0.1284915E-06 Eh
 * total energy  :  -127.9182608 Eh     change       -0.1235100E-06 Eh
 * total energy  :  -127.9182608 Eh     change        0.5583416E-08 Eh
 * total energy  :  -127.9182609 Eh     change       -0.7062391E-07 Eh
   *** GEOMETRY OPTIMIZATION CONVERGED AFTER 82 ITERATIONS ***

 final structure:
================
94
 xtb: 6.7.1 (edcfbbe)
C           -9.79282498923473        1.22754611756433       -0.96977472727655
C           -8.40456743604044        0.77685759845301       -0.62723859412118
C           -7.50193866218524        1.63644556660348       -0.01246640334399
C           -6.21750062021754        1.22908083907806        0.28999034141374
C           -5.79209260432385       -0.06006817378505       -0.02824953872451
N           -4.48917366814747       -0.47564081531477        0.27255906736689
C           -4.24946667531739       -1.78788677359923        0.69772786570597
C           -5.15576724054739       -2.44506758933848        1.52821936450399
C           -4.91554654497131       -3.74221794564337        1.93854465010400
C           -3.76690410508308       -4.41995984204723        1.54953135928925
C           -3.50911110224027       -5.83121789522248        1.98540132856950
C           -2.86293466966787       -3.75678916187438        0.72591333542075
C           -3.09647329916034       -2.46517170040152        0.29949260596245
C           -3.42323910425399        0.42190479352551        0.14484709680120
C           -3.38551424343279        1.34456302421255       -0.89716669616411
C           -2.32857298569236        2.22719244626016       -1.02311457185904
C           -1.26945520159311        2.21878687460298       -0.12442890745771
C           -0.06761049949973        3.15562446304306       -0.21244331096166
C            1.15040617075755        2.24146931361529       -0.19327158976658
C            1.38457985526870        1.41077589205928       -1.28785475040973
C            2.43754989549845        0.52090814706084       -1.31508416940730
C            3.29589810988740        0.40720903630408       -0.22226348212398
N            4.35849008855427       -0.50322766642214       -0.23445254814226
C            4.19566111064279       -1.75778909074373       -0.83484400709978
C            2.98274460169488       -2.43898347921541       -0.74410210369854
C            2.82755591561316       -3.67385941610844       -1.34392418259650
C            3.87013305404006       -4.27326221576274       -2.03919639129671
C            3.70286639675144       -5.60914270532487       -2.69915485415432
C            5.07982697987592       -3.59102770506511       -2.12183688795641
C            5.24473538947242       -2.35223955067277       -1.53639950140778
C            5.57391151627327       -0.16644957840722        0.37323727288495
C            6.31532224593770       -1.12295807614656        1.06573422038309
C            7.51565411370191       -0.78284135693611        1.65797155031604
C            8.01089933040620        0.51425545283391        1.59108108992167
C            9.29999073783104        0.88529698612684        2.26059272333322
C            7.26440397409992        1.46511949253782        0.90408521749084
C            6.06862393760580        1.13537296580988        0.29802739728549
C            3.05408806088184        1.21084809616189        0.88858600762313
C            2.00040115786070        2.10517913225510        0.89886576507645
C           -0.08126659675163        4.01394089925471       -1.49012405553790
C            1.08499161896128        4.99747653698639       -1.51115962146433
C            0.96021658006149        5.97162905229346       -0.34581957770853
C            0.95428153990983        5.19637178708649        0.96626572154210
C           -0.14629815304685        4.13517961880821        0.97721488586463
C           -1.31429129863507        1.28937593627495        0.91348713044310
C           -2.36692525862084        0.41107207299055        1.05570661034573
C           -6.69152849841963       -0.92521872461935       -0.65071218532572
C           -7.97615046663332       -0.50906681664793       -0.93809116968986
H           -9.83181776494411        1.56316679379240       -2.00723390555342
H          -10.50373795213001        0.41182821220220       -0.85528392126784
H          -10.09939493030835        2.05569754153169       -0.33500932748230
H           -7.81146850668029        2.63985453314882        0.24475915812093
H           -5.53360623636452        1.90827887281731        0.77843381392609
H           -6.04967766390077       -1.93117038677818        1.85133825012289
H           -5.63230449228519       -4.23204794876932        2.58277720702177
H           -3.68867794736590       -6.51895265067581        1.15803032509477
H           -4.16331256458558       -6.10915311826841        2.80814426573214
H           -2.47433331955756       -5.95323817279414        2.30089508054703
H           -1.96334608869820       -4.26444459412633        0.40684189858759
H           -2.38547585500903       -1.96979134095918       -0.34625081657135
H           -4.19161439930298        1.36597214646200       -1.61667881070222
H           -2.34437069458207        2.91668989160661       -1.85183191863236
H            0.72527253368641        1.44781886436786       -2.14216686454819
H            2.59647872147555       -0.10123492067214       -2.18421821692236
H            2.16206093799835       -1.99450507736871       -0.19925276194778
H            1.87815599908647       -4.18418735066080       -1.26009811038151
H            4.54631956705557       -6.25868422249760       -2.47061895042447
H            3.65828523329982       -5.49064247875106       -3.78245315566130
H            2.78668981231607       -6.09324125213972       -2.36987061370866
H            5.90411563373022       -4.03509668038066       -2.66219995066220
H            6.18952476204911       -1.83428472356920       -1.61886724845453
H            5.94350647276347       -2.13513892190556        1.13633869652977
H            8.07432868741157       -1.54020073843991        2.18995000143715
H            9.80855061326937        1.67433473938838        1.71064580170231
H            9.96001506908981        0.02414051878387        2.33590883434957
H            9.10515353118265        1.25090413994300        3.27001651232960
H            7.63035473004698        2.47991146006053        0.83306465675507
H            5.50881041185376        1.88566302281206       -0.24168563624454
H            3.69317930267069        1.12440823362365        1.75598263009592
H            1.84385742212650        2.68163684180951        1.79652240592530
H           -1.00945761133319        4.58895024739976       -1.51772872473863
H           -0.04677724827644        3.38520714702541       -2.37978124166918
H            1.08420290800303        5.54334129629347       -2.45775404228682
H            2.02880359717021        4.45197461057100       -1.43748523566170
H            1.78924738521790        6.68287009652532       -0.35454693391654
H            0.03095550855880        6.53867009927837       -0.44506112140511
H            0.79665294134199        5.88008389398517        1.80450654479935
H            1.93135318786350        4.72926361597937        1.09506164975331
H           -1.11659022495085        4.63715908771993        0.91919396329050
H           -0.12945419159286        3.58873036753656        1.92126663554599
H           -0.50416188645425        1.24760683066385        1.62677184082804
H           -2.37693734735983       -0.29437432992283        1.87416553323364
H           -6.37494982724503       -1.92584009863631       -0.90796278724346
H           -8.65804335090375       -1.19486351229390       -1.42118221245322

          :  Hamiltonian                  GFN2-xTB          :
         :: gradient norm              0.000090336653 Eh/a0 ::
         :: HOMO-LUMO gap              3.054002807355 eV    ::
         :: SCC energy              -130.216375668853 Eh    ::
         :: -> dispersion             -0.119758392296 Eh    ::
         :: -> Gsolv                  -0.050161244659 Eh    ::
         :: repulsion energy           2.298114813206 Eh    ::

    * Orbital Energies and Occupations

         #    Occupation            Energy/Eh            Energy/eV
      -------------------------------------------------------------
         1        2.0000           -0.6583824             -17.9155
       ...           ...                  ...                  ...
       108        2.0000           -0.4034887             -10.9795
       109        2.0000           -0.4026782             -10.9574
       110        2.0000           -0.4012466             -10.9185
       111        2.0000           -0.3998372             -10.8801
       112        2.0000           -0.3996783             -10.8758
       113        2.0000           -0.3992271             -10.8635
       114        2.0000           -0.3982346             -10.8365
       115        2.0000           -0.3934860             -10.7073
       116        2.0000           -0.3922049             -10.6724
       117        2.0000           -0.3921602             -10.6712
       118        2.0000           -0.3886524             -10.5758
       119        2.0000           -0.3424207              -9.3177
       120        2.0000           -0.3396331              -9.2419 (HOMO)
       121                         -0.2274006              -6.1879 (LUMO)
       122                         -0.2230196              -6.0687
       123                         -0.2229259              -6.0661
       124                         -0.2227579              -6.0616
       125                         -0.2217878              -6.0352
       126                         -0.2204667              -5.9992
       127                         -0.2165694              -5.8932
       128                         -0.2164326              -5.8894
       129                         -0.2161693              -5.8823
       130                         -0.2153259              -5.8593
       131                         -0.1894929              -5.1564
       ...                                ...                  ...
       238                          0.6739786              18.3399
      -------------------------------------------------------------
                  HL-Gap            0.1122325 Eh            3.0540 eV

     #   Z          covCN         q      C6AA      α(0)
     1   6 C        3.757    -0.109    22.633     6.783
     2   6 C        2.965     0.008    27.843     8.655
     3   6 C        2.924    -0.041    29.028     8.835
     4   6 C        2.921    -0.051    29.262     8.871
     5   6 C        2.923     0.061    26.623     8.461
     6   7 N        2.751    -0.085    22.899     7.107
     7   6 C        2.923     0.062    26.621     8.461
     8   6 C        2.921    -0.051    29.266     8.871
     9   6 C        2.924    -0.041    29.029     8.836
    10   6 C        2.965     0.008    27.848     8.656
    11   6 C        3.757    -0.109    22.630     6.782
    12   6 C        2.925    -0.041    29.028     8.836
    13   6 C        2.921    -0.050    29.253     8.869
    14   6 C        2.923     0.063    26.590     8.456
    15   6 C        2.922    -0.052    29.279     8.873
    16   6 C        2.923    -0.041    29.019     8.834
    17   6 C        2.981    -0.000    28.024     8.684
    18   6 C        3.910     0.011    20.326     6.408
    19   6 C        2.977     0.007    27.861     8.658
    20   6 C        2.927    -0.037    28.926     8.820
    21   6 C        2.921    -0.051    29.265     8.871
    22   6 C        2.923     0.063    26.597     8.457
    23   7 N        2.751    -0.086    22.915     7.110
    24   6 C        2.923     0.062    26.618     8.461
    25   6 C        2.921    -0.051    29.256     8.870
    26   6 C        2.924    -0.041    29.022     8.835
    27   6 C        2.965     0.008    27.846     8.656
    28   6 C        3.757    -0.109    22.630     6.782
    29   6 C        2.925    -0.042    29.037     8.837
    30   6 C        2.921    -0.051    29.256     8.870
    31   6 C        2.923     0.062    26.618     8.461
    32   6 C        2.921    -0.051    29.265     8.871
    33   6 C        2.924    -0.041    29.030     8.836
    34   6 C        2.965     0.008    27.846     8.656
    35   6 C        3.757    -0.109    22.631     6.783
    36   6 C        2.925    -0.042    29.032     8.836
    37   6 C        2.921    -0.051    29.257     8.870
    38   6 C        2.922    -0.052    29.297     8.876
    39   6 C        2.925    -0.039    28.966     8.826
    40   6 C        3.813    -0.057    21.595     6.614
    41   6 C        3.806    -0.053    21.513     6.603
    42   6 C        3.806    -0.055    21.557     6.610
    43   6 C        3.804    -0.055    21.557     6.610
    44   6 C        3.812    -0.054    21.538     6.606
    45   6 C        2.927    -0.038    28.946     8.823
    46   6 C        2.921    -0.051    29.254     8.870
    47   6 C        2.921    -0.051    29.258     8.870
    48   6 C        2.925    -0.042    29.032     8.836
    49   1 H        0.924     0.048     2.346     2.395
    50   1 H        0.925     0.044     2.391     2.418
    51   1 H        0.925     0.043     2.405     2.425
    52   1 H        0.926     0.031     2.569     2.506
    53   1 H        0.926     0.028     2.614     2.528
    54   1 H        0.926     0.028     2.614     2.528
    55   1 H        0.926     0.031     2.574     2.509
    56   1 H        0.924     0.048     2.350     2.397
    57   1 H        0.925     0.043     2.415     2.430
    58   1 H        0.925     0.045     2.381     2.413
    59   1 H        0.926     0.031     2.571     2.507
    60   1 H        0.926     0.027     2.627     2.534
    61   1 H        0.926     0.029     2.602     2.523
    62   1 H        0.926     0.037     2.496     2.470
    63   1 H        0.926     0.028     2.610     2.526
    64   1 H        0.926     0.026     2.639     2.540
    65   1 H        0.926     0.027     2.628     2.535
    66   1 H        0.926     0.030     2.584     2.514
    67   1 H        0.925     0.046     2.375     2.410
    68   1 H        0.924     0.047     2.353     2.399
    69   1 H        0.925     0.042     2.418     2.432
    70   1 H        0.926     0.032     2.560     2.502
    71   1 H        0.926     0.028     2.613     2.528
    72   1 H        0.926     0.027     2.622     2.532
    73   1 H        0.926     0.031     2.573     2.508
    74   1 H        0.925     0.044     2.396     2.420
    75   1 H        0.925     0.043     2.403     2.424
    76   1 H        0.924     0.048     2.347     2.396
    77   1 H        0.926     0.031     2.566     2.505
    78   1 H        0.926     0.028     2.618     2.530
    79   1 H        0.926     0.027     2.634     2.538
    80   1 H        0.926     0.037     2.484     2.464
    81   1 H        0.924     0.036     2.497     2.471
    82   1 H        0.925     0.031     2.575     2.509
    83   1 H        0.924     0.027     2.634     2.538
    84   1 H        0.924     0.029     2.600     2.521
    85   1 H        0.924     0.026     2.646     2.544
    86   1 H        0.924     0.030     2.581     2.512
    87   1 H        0.924     0.027     2.624     2.533
    88   1 H        0.924     0.035     2.510     2.478
    89   1 H        0.924     0.031     2.573     2.508
    90   1 H        0.924     0.030     2.584     2.514
    91   1 H        0.926     0.029     2.598     2.521
    92   1 H        0.926     0.028     2.622     2.532
    93   1 H        0.926     0.028     2.615     2.529
    94   1 H        0.926     0.032     2.564     2.504

molecular dipole:
                 x           y           z       tot (Debye)
 q only:       -0.020      -0.012      -0.005
   full:       -0.016      -0.079      -0.016       0.209

 projected vibrational frequencies (cm⁻¹)
eigval :       -0.00    -0.00     0.00     0.00     0.00     0.00
eigval :        6.10    10.77    12.07    20.73    24.63    33.82
eigval :       35.73    38.78    40.56    47.88    53.86    58.27
eigval :       62.06    63.78    66.83    76.57    96.56   103.28
eigval :      106.54   111.95   116.48   126.22   138.42   144.40
eigval :      150.47   155.49   166.52   175.35   190.91   215.95
eigval :      236.37   252.95   259.06   260.17   274.59   282.52
eigval :      296.05   313.07   319.64   327.78   335.68   339.00
eigval :      351.39   356.52   362.49   366.08   373.72   378.69
eigval :      380.04   381.80   382.37   388.50   388.89   400.53
eigval :      411.03   413.62   428.02   439.03   470.17   473.19
eigval :      487.50   489.32   490.93   508.77   512.94   525.03
eigval :      545.37   554.06   564.87   582.99   604.62   608.90
eigval :      610.23   611.71   612.39   612.57   619.91   659.33
eigval :      662.45   663.31   665.13   671.43   685.55   696.63
eigval :      718.51   790.01   791.36   800.73   803.20   803.53
eigval :      804.65   811.97   815.97   819.53   821.49   826.28
eigval :      845.72   868.87   870.24   870.39   870.95   872.51
eigval :      874.72   893.05   908.72   912.30   913.51   913.93
eigval :      914.84   916.03   917.12   924.83   926.00   926.29
eigval :      927.64   928.00   929.97   930.47   934.38   934.59
eigval :      942.45   954.07   962.62   973.13  1000.09  1008.20
eigval :     1009.35  1009.36  1009.66  1010.91  1018.82  1028.56
eigval :     1028.93  1029.23  1033.46  1033.59  1033.65  1034.93
eigval :     1038.20  1094.37  1096.06  1121.34  1135.78  1143.59
eigval :     1144.21  1144.86  1145.49  1150.29  1153.82  1155.09
eigval :     1185.60  1186.15  1197.31  1198.42  1201.67  1202.34
eigval :     1203.25  1208.41  1212.60  1217.45  1222.96  1234.18
eigval :     1234.32  1250.67  1252.69  1256.47  1258.20  1273.93
eigval :     1274.72  1277.79  1279.67  1280.28  1282.21  1289.48
eigval :     1314.78  1315.07  1322.77  1324.25  1325.54  1325.77
eigval :     1326.35  1329.09  1330.36  1331.13  1334.04  1339.76
eigval :     1348.16  1355.40  1362.48  1402.36  1402.76  1403.19
eigval :     1403.61  1404.07  1405.67  1416.37  1417.76  1420.41
eigval :     1420.56  1478.83  1479.26  1479.42  1481.08  1481.17
eigval :     1482.19  1483.55  1484.07  1484.41  1484.64  1487.07
eigval :     1489.89  1492.62  1492.83  1493.68  1494.28  1494.74
eigval :     1498.27  1511.27  1560.96  1561.92  1570.20  1570.70
eigval :     1573.28  1573.35  1599.99  1601.97  1605.59  1605.79
eigval :     1608.80  1609.18  2951.05  2954.88  2958.67  2960.70
eigval :     2966.85  2975.37  2978.22  2986.85  2987.92  2989.20
eigval :     2992.09  2992.23  2995.22  2996.88  3020.53  3022.13
eigval :     3029.57  3030.55  3036.60  3036.87  3040.38  3040.85
eigval :     3064.25  3064.89  3065.54  3065.58  3067.47  3067.73
eigval :     3068.49  3068.64  3072.88  3073.03  3074.65  3075.55
eigval :     3078.79  3079.30  3080.11  3080.59  3082.61  3083.00
eigval :     3084.04  3084.38  3085.83  3087.01  3105.19  3105.48

   temp. (K)  partition function   enthalpy   heat capacity  entropy
                                   cal/mol     cal/K/mol   cal/K/mol   J/K/mol
 298.15  VIB  0.361E+22            26104.961    158.901    165.900
         ROT  0.103E+09              888.752      2.981     39.651
         INT  0.373E+30            26993.713    161.882    205.551
         TR   0.152E+29             1481.254      4.968     45.169
         TOT                       28474.9672   166.8500   250.7203  1049.0137

       T/K    H(0)-H(T)+PV         H(T)/Eh          T*S/Eh         G(T)/Eh
   ------------------------------------------------------------------------
    298.15    0.453777E-01    0.823150E+00    0.119125E+00    0.704024E+00
   ------------------------------------------------------------------------

         :::::::::::::::::::::::::::::::::::::::::::::::::::::
         ::                  THERMODYNAMIC                  ::
         :::::::::::::::::::::::::::::::::::::::::::::::::::::
         :: total free energy        -127.214236439417 Eh   ::
         ::.................................................::
         :: total energy             -127.918260857365 Eh   ::
         :: zero point energy           0.777771965508 Eh   ::
         :: G(RRHO) w/o ZPVE           -0.073747547560 Eh   ::
         :: G(RRHO) contrib.            0.704024417949 Eh   ::
         :::::::::::::::::::::::::::::::::::::::::::::::::::::

           -------------------------------------------------
          | TOTAL ENERGY             -127.918260857365 Eh   |
          | TOTAL ENTHALPY           -127.095111143176 Eh   |
          | TOTAL FREE ENERGY        -127.214236439417 Eh   |
          | GRADIENT NORM               0.000090359101 Eh/α |
          | HOMO-LUMO GAP               3.054002581766 eV   |
           -------------------------------------------------

 * finished run on 2025/09/13 at 22:02:32.486
