   * xtb version 6.7.1 (edcfbbe) compiled by 'albert@albert-system' on 2024-07-22

   ID    Z sym.   atoms
    1    6 C      1-5, 7-22, 24-48
    2    7 N      6, 23
    3    1 H      49-94

          program call               : xtb data2507/toluene/DC–TC/DC–TC_toluene_S0_finalOpt.xtbopt.xyz --gfn 2 --uhf 2 --gbsa toluene --ohess vtight --parallel 40 --molden --ceasefiles --namespace data2507/toluene/DC–TC/DC–TC_toluene_T1_preOpt
      * Solvation model:               GBSA
        Solvent                        toluene
        Solvent mass                       9.2140E+01 g/mol
          :  Hamiltonian                  GFN2-xTB          :
 * total energy  :  -127.8035818 Eh     change        0.1799214E-07 Eh
 * total energy  :  -127.8059881 Eh     change       -0.2406394E-02 Eh
 * total energy  :  -127.8064971 Eh     change       -0.5089233E-03 Eh
 * total energy  :  -127.8065627 Eh     change       -0.6560307E-04 Eh
 * total energy  :  -127.8066274 Eh     change       -0.6471834E-04 Eh
 * total energy  :  -127.8066612 Eh     change       -0.3383128E-04 Eh
 * total energy  :  -127.8067274 Eh     change       -0.6620296E-04 Eh
 * total energy  :  -127.8067968 Eh     change       -0.6941829E-04 Eh
 * total energy  :  -127.8068387 Eh     change       -0.4185563E-04 Eh
 * total energy  :  -127.8068684 Eh     change       -0.2965407E-04 Eh
 * total energy  :  -127.8079812 Eh     change       -0.3125550E-06 Eh
 * total energy  :  -127.8079818 Eh     change       -0.5760146E-06 Eh
 * total energy  :  -127.8079822 Eh     change       -0.4729188E-06 Eh
 * total energy  :  -127.8079826 Eh     change       -0.4185063E-06 Eh
 * total energy  :  -127.8079831 Eh     change       -0.4155489E-06 Eh
 * total energy  :  -127.8079835 Eh     change       -0.4330821E-06 Eh
 * total energy  :  -127.8079839 Eh     change       -0.3709984E-06 Eh
 * total energy  :  -127.8079841 Eh     change       -0.2774357E-06 Eh
 * total energy  :  -127.8079842 Eh     change       -0.2468302E-07 Eh
   *** GEOMETRY OPTIMIZATION CONVERGED AFTER 165 ITERATIONS ***

 final structure:
================
94
 xtb: 6.7.1 (edcfbbe)
C           -9.29315826202013        0.35600897956890       -2.01439816489053
C           -7.94851000769991        0.11346882423901       -1.40149351360251
C           -7.25781594414171        1.15387469668579       -0.77658905960757
C           -6.01639929648813        0.95322483504704       -0.21770219934681
C           -5.41578571815543       -0.31159627142330       -0.26289961117772
N           -4.15136781071602       -0.51405075854688        0.29051362736705
C           -3.84058069769742       -1.72020012493621        0.91715423541718
C           -4.80074159505503       -2.41030742746394        1.66826564780355
C           -4.47354411497512       -3.58905655483864        2.29976085788644
C           -3.18668385767444       -4.12376258872622        2.21694270795471
C           -2.84995519926629       -5.41483053964178        2.89679603986073
C           -2.23540975641127       -3.43301212177484        1.46794101773766
C           -2.54808974405097       -2.25455179007404        0.82716730494064
C           -3.19143264493598        0.48568297168815        0.20700770541339
C           -3.07413561254998        1.28829847298579       -0.94448339527062
C           -2.11227857896467        2.25802814481366       -1.03209438668896
C           -1.21710492586827        2.51890763478816        0.03043232155017
C           -0.07532848891508        3.51051443214778       -0.07799673480276
C            1.06756501009080        2.52065445830294       -0.13907069891344
C            1.27128999902214        1.73582366899749       -1.29474650432217
C            2.21021904878708        0.74566998590878       -1.34803200809740
C            3.03237264583078        0.46933112546059       -0.22777623207668
N            3.99257981438007       -0.53177664558749       -0.27326079993139
C            3.72403158857952       -1.71699690702672       -0.95731526842948
C            2.42962900594964       -2.25429621819331       -0.96616202624996
C            2.16364630975391       -3.41852051395742       -1.65383616155135
C            3.16358153884182       -4.08938864207793       -2.35391890200182
C            2.88325736218974       -5.35783661751823       -3.09902239754325
C            4.45167832835799       -3.54727862607800       -2.34383775422546
C            4.73282524460354       -2.38461382470335       -1.66405157963780
C            5.21187445864854       -0.35666195045228        0.38067261048541
C            5.84806380768692       -1.43062129226810        1.01695762954040
C            7.04536818093338       -1.24098876186793        1.67161010208553
C            7.65218582894390        0.01268589125195        1.72332927064242
C            8.94290961427530        0.22283341002888        2.45275376368941
C            7.01183656781493        1.07979951128990        1.09029659235744
C            5.81626957366045        0.90641173419669        0.43118718567588
C            2.82978645807823        1.23311731001716        0.93790583392528
C            1.87136119895902        2.20830611456518        0.98333287528577
C           -0.14771202039671        4.39968117998199       -1.33096922697391
C            1.04147576129341        5.35442329643153       -1.40108829838281
C            1.06141048144630        6.28065907661659       -0.19184935560993
C            1.11519515815412        5.44678611535658        1.08185740336618
C           -0.05249271931846        4.46424775186641        1.13098170241468
C           -1.34946240514245        1.70996671581556        1.18047418723343
C           -2.29136264438976        0.72615834379436        1.27387317650792
C           -6.10171590539705       -1.35811355782089       -0.89218398978711
C           -7.34484867777912       -1.14132091876391       -1.44627996666336
H           -9.19212689078168        0.95398583346654       -2.92126674191547
H           -9.77757713814581       -0.58176067152080       -2.27494665346072
H           -9.93477701596249        0.90524869132137       -1.32673994644410
H           -7.71191758992752        2.13328449975959       -0.72380249280814
H           -5.49975161721724        1.76340930774786        0.27624298952854
H           -5.79605314715854       -2.00015655441669        1.75972045733403
H           -5.22499792870454       -4.10558439156120        2.88006324146033
H           -3.15794598590927       -6.25778715190877        2.27560941557217
H           -3.36928052747701       -5.49661576453358        3.84967079974785
H           -1.77911003348122       -5.49542985577382        3.06871920066757
H           -1.23419871945038       -3.83166408822872        1.38242905026920
H           -1.80586210639583       -1.73690555502809        0.23733500264334
H           -3.74553619991106        1.11418001229854       -1.77383061494529
H           -2.05712251983077        2.83816106227277       -1.93919052462582
H            0.66355465088658        1.91136394053833       -2.16964242078688
H            2.35557816401822        0.17800090144473       -2.25598057876532
H            1.64895249846815       -1.75349409572364       -0.41253803720270
H            1.16030313997752       -3.82088886800344       -1.64126372706797
H            3.48360427695429       -6.17484720998513       -2.69809198750704
H            3.14084197913490       -5.24615476772130       -4.15228747361444
H            1.83321806093759       -5.62931112023659       -3.02465489768569
H            5.23965336943987       -4.04807135770958       -2.88825870138548
H            5.73036418748118       -1.96981054138477       -1.68006422744424
H            5.38353559416065       -2.40581420401526        1.00031694013649
H            7.51885122088773       -2.08072115487882        2.16054934488905
H            9.59868741372528        0.88689590049430        1.89222459598956
H            9.45453244704528       -0.72214068112554        2.61884088957224
H            8.75495183214474        0.68389751439598        3.42391420628401
H            7.46958217328031        2.05871308423213        1.11081270052905
H            5.34040898389878        1.73767302940415       -0.06860747194683
H            3.42925312848343        1.02110080479917        1.81248272892354
H            1.74141768190853        2.74676276507289        1.90844697649941
H           -1.07398317545143        4.97896683425086       -1.29634430647237
H           -0.16157545687789        3.79913792830334       -2.23940096289201
H            0.98240609812880        5.94055188544901       -2.32166842122119
H            1.96615193294067        4.77248774484437       -1.43044719960971
H            1.92458714213002        6.94851598701481       -0.24155663486114
H            0.15869706421919        6.89723704738466       -0.19019103796280
H            1.07845035933271        6.09698870633462        1.95989808406889
H            2.05954680437271        4.89969812622162        1.10670128389657
H           -0.99137334594924        5.02548990148114        1.12007977819308
H           -0.02757842326522        3.91002511494390        2.06849993202320
H           -0.67969827552436        1.86118660752878        2.01359050600471
H           -2.37880014383051        0.13601609002067        2.17492140232031
H           -5.64118489870338       -2.33366166658869       -0.94969205884475
H           -7.85669171561582       -1.96048991079229       -1.93147926105062

          :  Hamiltonian                  GFN2-xTB          :
         :: gradient norm              0.000044717769 Eh/a0 ::
         :: HOMO-LUMO gap              0.124573411588 eV    ::
         :: SCC energy              -130.083809994388 Eh    ::
         :: -> dispersion             -0.120510892206 Eh    ::
         :: -> Gsolv                  -0.050210254833 Eh    ::
         :: repulsion energy           2.275825655389 Eh    ::

    * Orbital Energies and Occupations

         #    Occupation            Energy/Eh            Energy/eV
      -------------------------------------------------------------
         1        2.0000           -0.6636283             -18.0582
       ...           ...                  ...                  ...
       109        2.0000           -0.4045579             -11.0086
       110        2.0000           -0.4025201             -10.9531
       111        2.0000           -0.4020905             -10.9414
       112        2.0000           -0.3972433             -10.8095
       113        2.0000           -0.3952105             -10.7542
       114        2.0000           -0.3936344             -10.7113
       115        2.0000           -0.3923535             -10.6765
       116        2.0000           -0.3920313             -10.6677
       117        2.0000           -0.3890951             -10.5878
       118        2.0000           -0.3788813             -10.3099
       119        1.9720           -0.3446655              -9.3788
       120        1.0280           -0.3379289              -9.1955
       121        0.8873           -0.2313118              -6.2943 (HOMO)
       122        0.0597           -0.2267330              -6.1697 (LUMO)
       123        0.0521           -0.2265963              -6.1660
       124        0.0004           -0.2220191              -6.0414
       125        0.0004           -0.2218067              -6.0357
       126        0.0000           -0.2186655              -5.9502
       127        0.0000           -0.2178396              -5.9277
       128        0.0000           -0.2175443              -5.9197
       129                         -0.2088278              -5.6825
       130                         -0.2059606              -5.6045
       131                         -0.1927514              -5.2450
       132                         -0.1839607              -5.0058
       ...                                ...                  ...
       238                          0.6673793              18.1603
      -------------------------------------------------------------
                  HL-Gap            0.0045788 Eh            0.1246 eV

     #   Z          covCN         q      C6AA      α(0)
     1   6 C        3.757    -0.109    22.640     6.784
     2   6 C        2.964     0.008    27.829     8.653
     3   6 C        2.922    -0.042    29.032     8.836
     4   6 C        2.918    -0.046    29.133     8.851
     5   6 C        2.926     0.053    26.810     8.491
     6   7 N        2.750    -0.038    21.984     6.964
     7   6 C        2.926     0.053    26.809     8.491
     8   6 C        2.918    -0.047    29.175     8.857
     9   6 C        2.922    -0.042    29.037     8.837
    10   6 C        2.964     0.008    27.837     8.654
    11   6 C        3.757    -0.109    22.636     6.783
    12   6 C        2.922    -0.041    29.007     8.832
    13   6 C        2.918    -0.046    29.142     8.853
    14   6 C        2.926     0.035    27.209     8.554
    15   6 C        2.913    -0.048    29.190     8.859
    16   6 C        2.916    -0.049    29.211     8.863
    17   6 C        3.022    -0.012    28.278     8.723
    18   6 C        3.910     0.017    20.232     6.393
    19   6 C        3.021    -0.004    28.103     8.696
    20   6 C        2.917    -0.041    29.006     8.832
    21   6 C        2.913    -0.053    29.327     8.880
    22   6 C        2.926     0.035    27.207     8.554
    23   7 N        2.750    -0.038    21.974     6.962
    24   6 C        2.927     0.053    26.819     8.493
    25   6 C        2.918    -0.046    29.151     8.854
    26   6 C        2.921    -0.040    29.001     8.831
    27   6 C        2.964     0.008    27.842     8.655
    28   6 C        3.757    -0.109    22.634     6.783
    29   6 C        2.922    -0.042    29.050     8.839
    30   6 C        2.918    -0.047    29.162     8.856
    31   6 C        2.926     0.053    26.817     8.492
    32   6 C        2.918    -0.048    29.192     8.860
    33   6 C        2.922    -0.041    29.015     8.833
    34   6 C        2.964     0.008    27.835     8.654
    35   6 C        3.757    -0.109    22.637     6.784
    36   6 C        2.922    -0.042    29.032     8.836
    37   6 C        2.918    -0.046    29.133     8.851
    38   6 C        2.913    -0.048    29.199     8.861
    39   6 C        2.917    -0.047    29.156     8.855
    40   6 C        3.811    -0.056    21.566     6.610
    41   6 C        3.806    -0.052    21.511     6.603
    42   6 C        3.806    -0.055    21.551     6.609
    43   6 C        3.805    -0.054    21.533     6.606
    44   6 C        3.811    -0.055    21.554     6.608
    45   6 C        2.917    -0.041    29.022     8.834
    46   6 C        2.913    -0.053    29.326     8.880
    47   6 C        2.918    -0.048    29.192     8.860
    48   6 C        2.922    -0.041    29.012     8.833
    49   1 H        0.924     0.049     2.329     2.387
    50   1 H        0.925     0.044     2.399     2.422
    51   1 H        0.925     0.047     2.352     2.399
    52   1 H        0.926     0.034     2.529     2.487
    53   1 H        0.926     0.032     2.554     2.499
    54   1 H        0.926     0.032     2.563     2.503
    55   1 H        0.926     0.034     2.531     2.488
    56   1 H        0.924     0.050     2.320     2.382
    57   1 H        0.925     0.046     2.371     2.408
    58   1 H        0.925     0.044     2.393     2.419
    59   1 H        0.926     0.033     2.547     2.496
    60   1 H        0.926     0.030     2.581     2.512
    61   1 H        0.926     0.022     2.697     2.568
    62   1 H        0.926     0.026     2.646     2.544
    63   1 H        0.926     0.022     2.703     2.571
    64   1 H        0.926     0.020     2.733     2.585
    65   1 H        0.926     0.030     2.584     2.514
    66   1 H        0.926     0.032     2.555     2.500
    67   1 H        0.924     0.049     2.337     2.390
    68   1 H        0.925     0.048     2.345     2.395
    69   1 H        0.925     0.043     2.409     2.427
    70   1 H        0.926     0.034     2.528     2.486
    71   1 H        0.926     0.032     2.564     2.504
    72   1 H        0.926     0.031     2.571     2.507
    73   1 H        0.926     0.033     2.540     2.492
    74   1 H        0.925     0.047     2.363     2.404
    75   1 H        0.925     0.044     2.395     2.420
    76   1 H        0.924     0.050     2.326     2.385
    77   1 H        0.926     0.034     2.533     2.489
    78   1 H        0.926     0.032     2.559     2.502
    79   1 H        0.925     0.021     2.715     2.577
    80   1 H        0.926     0.027     2.625     2.534
    81   1 H        0.924     0.032     2.564     2.504
    82   1 H        0.925     0.030     2.585     2.514
    83   1 H        0.924     0.026     2.651     2.546
    84   1 H        0.924     0.030     2.591     2.517
    85   1 H        0.924     0.025     2.658     2.550
    86   1 H        0.924     0.030     2.591     2.517
    87   1 H        0.924     0.026     2.651     2.546
    88   1 H        0.924     0.034     2.529     2.487
    89   1 H        0.924     0.030     2.591     2.517
    90   1 H        0.925     0.029     2.598     2.521
    91   1 H        0.926     0.023     2.692     2.566
    92   1 H        0.926     0.021     2.721     2.580
    93   1 H        0.926     0.031     2.568     2.506
    94   1 H        0.926     0.033     2.539     2.492

molecular dipole:
                 x           y           z       tot (Debye)
 q only:        0.002      -0.831       0.026
   full:        0.001      -0.885       0.014       2.249

 projected vibrational frequencies (cm⁻¹)
eigval :       -0.00    -0.00    -0.00    -0.00     0.00     0.00
eigval :      -48.55     6.84    11.70    12.87    21.93    30.22
eigval :       36.24    40.69    42.48    43.23    47.03    51.30
eigval :       55.72    62.55    63.19    67.96    74.90    95.10
eigval :      100.13   102.72   107.85   122.45   136.68   140.61
eigval :      148.20   148.89   162.00   171.20   192.41   213.39
eigval :      226.77   243.76   257.41   258.20   264.23   277.24
eigval :      290.39   304.00   307.17   316.90   325.75   329.39
eigval :      335.47   348.77   355.12   359.68   365.37   375.83
eigval :      376.29   378.51   382.03   384.37   388.87   391.58
eigval :      405.86   412.72   427.69   435.90   442.09   447.21
eigval :      468.32   473.94   480.87   497.90   499.73   513.36
eigval :      534.02   535.98   540.06   572.86   598.34   600.03
eigval :      604.67   608.34   608.79   609.02   616.36   630.20
eigval :      636.19   649.81   651.17   651.75   653.72   658.09
eigval :      702.39   760.96   775.82   781.67   784.34   785.25
eigval :      792.25   794.12   795.54   796.84   809.25   815.64
eigval :      819.53   823.58   827.78   856.17   856.44   857.57
eigval :      859.72   882.22   890.96   891.80   896.28   898.67
eigval :      901.59   903.00   906.98   907.08   908.26   909.98
eigval :      910.42   912.62   913.29   919.16   919.30   920.71
eigval :      921.76   940.19   954.43   973.07   980.51   982.39
eigval :      997.67  1000.14  1001.15  1001.85  1002.35  1005.89
eigval :     1009.22  1011.12  1012.44  1024.81  1027.54  1027.89
eigval :     1027.95  1062.32  1090.66  1094.64  1117.62  1123.15
eigval :     1139.50  1141.23  1141.80  1143.89  1146.04  1150.57
eigval :     1155.86  1173.89  1176.87  1178.27  1179.80  1186.90
eigval :     1195.64  1199.12  1212.85  1215.12  1218.93  1223.45
eigval :     1226.84  1235.14  1237.03  1239.60  1251.03  1254.37
eigval :     1257.30  1262.23  1263.88  1266.35  1269.54  1289.18
eigval :     1303.54  1304.60  1309.50  1314.38  1319.61  1323.82
eigval :     1325.84  1326.42  1332.53  1334.59  1334.61  1340.35
eigval :     1342.50  1345.26  1349.58  1359.25  1360.17  1383.44
eigval :     1385.95  1390.80  1392.47  1396.91  1400.26  1401.03
eigval :     1401.81  1410.77  1426.38  1427.54  1428.70  1431.05
eigval :     1440.55  1449.35  1451.19  1456.03  1459.90  1460.68
eigval :     1468.50  1474.55  1475.58  1476.07  1477.63  1479.42
eigval :     1480.47  1483.61  1483.71  1484.09  1484.45  1487.49
eigval :     1493.02  1495.69  1505.44  1511.03  1520.79  1527.09
eigval :     1528.82  1602.40  2950.27  2952.03  2955.04  2957.31
eigval :     2961.47  2971.91  2974.47  2980.64  2982.98  2985.59
eigval :     2987.22  2991.63  2999.96  3001.27  3006.66  3015.50
eigval :     3020.41  3025.50  3036.37  3038.70  3041.06  3042.16
eigval :     3063.99  3065.48  3065.79  3066.90  3067.01  3067.24
eigval :     3068.72  3069.25  3069.85  3069.95  3070.52  3070.75
eigval :     3081.40  3081.64  3082.38  3082.77  3084.46  3084.72
eigval :     3084.95  3085.27  3085.68  3086.70  3099.91  3102.06

   temp. (K)  partition function   enthalpy   heat capacity  entropy
                                   cal/mol     cal/K/mol   cal/K/mol   J/K/mol
 298.15  VIB  0.147E+22            26133.272    160.489    165.327
         ROT  0.959E+08              888.752      2.981     39.505
         INT  0.141E+30            27022.025    163.470    204.833
         TR   0.152E+29             1481.254      4.968     45.169
         TOT                       28503.2785   168.4378   250.0017  1046.0072

       T/K    H(0)-H(T)+PV         H(T)/Eh          T*S/Eh         G(T)/Eh
   ------------------------------------------------------------------------
    298.15    0.454229E-01    0.814135E+00    0.118784E+00    0.695351E+00
   ------------------------------------------------------------------------

         :::::::::::::::::::::::::::::::::::::::::::::::::::::
         ::                  THERMODYNAMIC                  ::
         :::::::::::::::::::::::::::::::::::::::::::::::::::::
         :: total free energy        -127.112633529788 Eh   ::
         ::.................................................::
         :: total energy             -127.807984333868 Eh   ::
         :: zero point energy           0.768711817973 Eh   ::
         :: G(RRHO) w/o ZPVE           -0.073361013893 Eh   ::
         :: G(RRHO) contrib.            0.695350804080 Eh   ::
         :::::::::::::::::::::::::::::::::::::::::::::::::::::

           -------------------------------------------------
          | TOTAL ENERGY             -127.807984333868 Eh   |
          | TOTAL ENTHALPY           -126.993849650288 Eh   |
          | TOTAL FREE ENERGY        -127.112633529788 Eh   |
          | GRADIENT NORM               0.000043969508 Eh/α |
          | HOMO-LUMO GAP               0.124595967266 eV   |
           -------------------------------------------------

 * finished run on 2025/09/13 at 22:02:54.533
