   * xtb version 6.7.1 (edcfbbe) compiled by 'albert@albert-system' on 2024-07-22

   ID    Z sym.   atoms
    1    6 C      1-9, 11-18, 20-35, 37-42
    2    7 N      10, 19, 36
    3    1 H      43-75

          program call               : xtb data2507/gas/Yad/Yad_gas_S0_finalOpt.xtbopt.xyz --gfn 2 --spinpol --tblite --uhf 2 --ohess vtight --parallel 40 --molden --ceasefiles --namespace data2507/gas/Yad/Yad_gas_T1_preOpt
 * total energy  :  -109.1092057 Eh     change       -0.1970923E-07 Eh
 * total energy  :  -109.1135119 Eh     change       -0.4306157E-02 Eh
 * total energy  :  -109.1148777 Eh     change       -0.1365760E-02 Eh
 * total energy  :  -109.1151482 Eh     change       -0.2705657E-03 Eh
 * total energy  :  -109.1155588 Eh     change       -0.4106166E-03 Eh
 * total energy  :  -109.1158267 Eh     change       -0.2678610E-03 Eh
 * total energy  :  -109.1161445 Eh     change       -0.3178031E-03 Eh
 * total energy  :  -109.1164575 Eh     change       -0.3130509E-03 Eh
 * total energy  :  -109.1166776 Eh     change       -0.2200981E-03 Eh
 * total energy  :  -109.1168479 Eh     change       -0.1702832E-03 Eh
 * total energy  :  -109.1176004 Eh     change       -0.1972024E-05 Eh
 * total energy  :  -109.1176023 Eh     change       -0.1889369E-05 Eh
 * total energy  :  -109.1176039 Eh     change       -0.1526244E-05 Eh
 * total energy  :  -109.1176049 Eh     change       -0.1021672E-05 Eh
 * total energy  :  -109.1176056 Eh     change       -0.7107797E-06 Eh
 * total energy  :  -109.1176062 Eh     change       -0.5572399E-06 Eh
 * total energy  :  -109.1176066 Eh     change       -0.4820540E-06 Eh
 * total energy  :  -109.1176066 Eh     change        0.1217744E-07 Eh
 * total energy  :  -109.1176066 Eh     change       -0.2110431E-07 Eh
   *** GEOMETRY OPTIMIZATION CONVERGED AFTER 45 ITERATIONS ***

 final structure:
================
75
 xtb: 6.7.1 (edcfbbe)
C            3.14554479278375        1.05771487672602       -2.16174111639403
C            3.51387939781781        1.66626684340813       -0.79314231957894
C            4.26046276532539        2.97731598969484       -1.03885195942365
C            4.34673700674908        0.65649242434354       -0.02544175418818
C            5.71507534622548        0.75598659017677        0.16319927847635
C            6.41340403000559       -0.21459115883728        0.86321285305929
C            5.73921990300646       -1.28890770714102        1.41689715194374
C            4.37293739285311       -1.40334412168094        1.25240740846275
C            3.67730812055063       -0.45543840397207        0.50704176480805
N            2.28702879589644       -0.51268108838316        0.36629230341427
C            1.55319800280958       -1.64178403195243        0.04827487319901
C            2.06085615745125       -2.91080003062680       -0.17266815206134
C            1.17634026328560       -3.95256419312311       -0.45197820422119
C           -0.21282121285809       -3.72007601194936       -0.54007939440344
C           -1.17590592499790       -4.69817246966620       -0.79711407132641
C           -2.53616446029008       -4.36632781749908       -0.87532883867145
C           -2.94968668147314       -3.06651798453604       -0.73652881561018
C           -2.00311349906250       -2.03814913199479       -0.54530558509877
N           -2.43795226733769       -0.71260865215902       -0.34886849587763
C           -3.06502241030984       -0.39287979451284        0.84773757142946
C           -3.12778914910892       -1.34012294583343        1.87449933191045
C           -3.70244104222699       -1.02833293523586        3.08789567670534
C           -4.20339024941398        0.24311311710816        3.30643528367654
C           -4.13590417309705        1.18887898207400        2.29740304633320
C           -3.58121403000607        0.89525888015686        1.06161950489850
C           -3.58355325451200        1.87197023004895       -0.09336796271038
C           -4.80918836655820        1.52978549277505       -0.97313822399513
C           -3.71307597519605        3.32737796966398        0.35903291781501
C           -2.35674579543141        1.62855327094288       -0.94810858059965
C           -1.72966947809612        2.63333178013356       -1.66450975445216
C           -0.74883974003565        2.35041928784928       -2.60071226616237
C           -0.43873225734715        1.03319341686004       -2.88830496827869
C           -1.03148874729214        0.01504944748333       -2.17397483608866
C           -1.93476362576387        0.30124551947996       -1.14510363587347
C           -0.62686120363184       -2.35551825519357       -0.41334119809753
N            0.24340253275067       -1.38817297366014       -0.17724960748640
C            1.63612847388577        0.71520022210281        0.53479572600738
C            0.45413047087654        0.80676779735873        1.26436198909454
C           -0.16297649602479        2.03043042659279        1.42632577049937
C            0.41144074022735        3.16742628492646        0.88746679177275
C            1.60641855283488        3.08118654914681        0.18904766482976
C            2.23487638245006        1.86330533226971       -0.00035388990584
H            4.05002824586184        0.83663250705893       -2.72533963912874
H            2.54065931950985        1.76428019816216       -2.72538131475344
H            2.57623129731711        0.13972843429156       -2.04466615069870
H            3.63473769397362        3.66362045258795       -1.60355550221966
H            4.54380977521464        3.44691506999530       -0.09948700272021
H            5.15460974439686        2.79603227636470       -1.63005949810005
H            6.25975522687184        1.59521875665827       -0.23805340019214
H            7.48162786163115       -0.12122797781827        0.98797264275176
H            6.27383333858411       -2.03030545233768        1.99168549008084
H            3.83499431358020       -2.20777334129212        1.72918847366848
H            3.11844020640136       -3.10588802343832       -0.12079837790956
H            1.55031826460117       -4.95762748571744       -0.57051549527708
H           -0.85916744304087       -5.71701384606804       -0.96148030212722
H           -3.25942601930831       -5.14566475055961       -1.06394933598973
H           -3.99348721537919       -2.79915048825229       -0.80696301743829
H           -2.70523127205317       -2.32010973240273        1.71819411086692
H           -3.74476915506547       -1.77416849064410        3.86724396402010
H           -4.64434666720680        0.50133114523503        4.25723051740555
H           -4.53221233862257        2.17199191537449        2.49246257954981
H           -4.76038892624144        0.49916608036294       -1.31691537101272
H           -4.83801765350345        2.18166871416360       -1.84363011614347
H           -5.72608527669982        1.66096947984951       -0.40207397642496
H           -2.86745980856215        3.61807217635883        0.97742161304004
H           -4.63199018992458        3.47208416474868        0.92044831039679
H           -3.76526775221557        3.98666458454734       -0.50277613488058
H           -2.00663301617923        3.66304958470772       -1.51048142743819
H           -0.26803573120782        3.15659717307163       -3.13416509614630
H            0.26323646882727        0.79482909800118       -3.67311212338625
H           -0.80684477696345       -1.00842923268377       -2.42116237014955
H            0.03295779745321       -0.07686027788515        1.71634606112075
H           -1.08206182538021        2.09153309739300        1.99043321750730
H           -0.06036179492360        4.13016118357300        1.01715106810215
H            2.03584487800286        3.98434965317417       -0.21366473246736

 projected vibrational frequencies (cm⁻¹)
eigval :       -0.00     0.00     0.00     0.00     0.00     0.00
eigval :       19.52    24.52    35.59    37.09    50.88    55.46
eigval :       64.79    73.82    92.86   102.98   120.34   125.22
eigval :      131.51   136.50   160.97   166.48   178.20   192.44
eigval :      194.17   202.23   203.35   220.82   245.52   255.46
eigval :      256.98   279.20   279.68   292.48   297.23   304.71
eigval :      318.67   325.66   343.74   354.12   365.30   368.00
eigval :      380.34   392.92   394.37   405.36   409.24   415.27
eigval :      417.66   444.44   447.77   459.64   467.61   480.12
eigval :      497.33   500.69   505.26   512.50   516.82   531.36
eigval :      550.37   555.90   558.81   564.99   573.86   575.47
eigval :      581.93   593.40   608.38   609.36   650.52   661.72
eigval :      680.82   685.79   687.61   706.14   711.03   717.73
eigval :      718.68   727.68   750.27   769.29   771.46   773.90
eigval :      778.65   804.50   808.62   810.40   817.23   819.99
eigval :      822.20   856.11   860.61   862.73   864.96   881.42
eigval :      885.23   897.78   900.10   903.62   907.84   909.09
eigval :      913.71   920.00   921.24   922.24   930.54   935.15
eigval :      942.05   963.65   967.90   984.61  1005.61  1009.92
eigval :     1039.52  1074.16  1074.78  1083.50  1089.48  1097.44
eigval :     1100.62  1107.23  1109.93  1117.32  1128.56  1140.10
eigval :     1140.60  1146.11  1152.69  1170.45  1173.60  1178.94
eigval :     1182.88  1185.26  1187.84  1190.23  1203.42  1209.00
eigval :     1210.69  1232.68  1242.46  1256.17  1257.78  1267.16
eigval :     1269.85  1271.70  1281.49  1284.98  1292.21  1297.38
eigval :     1308.69  1318.55  1320.96  1329.08  1332.42  1336.83
eigval :     1337.80  1369.32  1377.19  1383.45  1394.11  1396.84
eigval :     1410.38  1412.61  1422.05  1423.87  1434.08  1435.68
eigval :     1439.84  1450.55  1454.59  1466.49  1473.55  1475.83
eigval :     1486.00  1488.68  1490.43  1490.82  1492.95  1500.95
eigval :     1504.95  1518.27  1523.30  1529.88  1559.65  1563.62
eigval :     1570.31  1571.78  1577.60  1578.20  1591.04  1592.21
eigval :     3023.27  3025.58  3027.89  3030.56  3032.46  3034.84
eigval :     3035.23  3039.01  3041.73  3045.91  3053.16  3053.77
eigval :     3073.92  3074.07  3078.91  3079.92  3080.11  3082.36
eigval :     3084.15  3085.59  3089.71  3090.11  3091.60  3092.34
eigval :     3100.77  3102.83  3106.64  3106.99  3110.17  3112.75
eigval :     3114.15  3115.16  3123.05

   temp. (K)  partition function   enthalpy   heat capacity  entropy
                                   cal/mol     cal/K/mol   cal/K/mol   J/K/mol
 298.15  VIB  0.184E+14            20086.631    134.129    119.948
         ROT  0.319E+08              888.752      2.981     37.315
         INT  0.585E+21            20975.384    137.110    157.263
         TR   0.123E+29             1481.254      4.968     44.745
         TOT                       22456.6377   142.0784   202.0082   845.2021

       T/K    H(0)-H(T)+PV         H(T)/Eh          T*S/Eh         G(T)/Eh
   ------------------------------------------------------------------------
    298.15    0.357869E-01    0.634194E+00    0.959806E-01    0.538213E+00
   ------------------------------------------------------------------------

         :::::::::::::::::::::::::::::::::::::::::::::::::::::
         ::                  THERMODYNAMIC                  ::
         :::::::::::::::::::::::::::::::::::::::::::::::::::::
         :: total free energy        -108.579393242117 Eh   ::
         ::.................................................::
         :: total energy             -109.117606580819 Eh   ::
         :: zero point energy           0.598407002712 Eh   ::
         :: G(RRHO) w/o ZPVE           -0.060193664010 Eh   ::
         :: G(RRHO) contrib.            0.538213338702 Eh   ::
         :::::::::::::::::::::::::::::::::::::::::::::::::::::

           -------------------------------------------------
          | TOTAL ENERGY             -109.117606580819 Eh   |
          | TOTAL ENTHALPY           -108.483412648014 Eh   |
          | TOTAL FREE ENERGY        -108.579393242117 Eh   |
          | GRADIENT NORM               0.000095010714 Eh/α |
           -------------------------------------------------

 * finished run on 2025/08/22 at 15:15:03.535
