   * xtb version 6.7.1 (edcfbbe) compiled by 'albert@albert-system' on 2024-07-22

   ID    Z sym.   atoms
    1    6 C      1-9, 11-18, 20-35, 37-42
    2    7 N      10, 19, 36
    3    1 H      43-75

          program call               : xtb data2507/gas/Yad/Yad_gas_S0_crest.xyz --gfn 2 --ohess vtight --parallel 40 --molden --ceasefiles --namespace data2507/gas/Yad/Yad_gas_S0_finalOpt
          :  Hamiltonian                  GFN2-xTB          :
 * total energy  :  -109.1981816 Eh     change       -0.2906845E-08 Eh
 * total energy  :  -109.1981828 Eh     change       -0.1184943E-05 Eh
 * total energy  :  -109.1981835 Eh     change       -0.7047880E-06 Eh
 * total energy  :  -109.1981847 Eh     change       -0.1210390E-05 Eh
 * total energy  :  -109.1981857 Eh     change       -0.9846943E-06 Eh
 * total energy  :  -109.1981863 Eh     change       -0.6512862E-06 Eh
 * total energy  :  -109.1981868 Eh     change       -0.5025661E-06 Eh
 * total energy  :  -109.1981873 Eh     change       -0.4850492E-06 Eh
 * total energy  :  -109.1981878 Eh     change       -0.5201546E-06 Eh
 * total energy  :  -109.1981883 Eh     change       -0.4762173E-06 Eh
 * total energy  :  -109.1981887 Eh     change       -0.3585118E-06 Eh
 * total energy  :  -109.1981889 Eh     change       -0.2546520E-06 Eh
 * total energy  :  -109.1981891 Eh     change       -0.1590767E-06 Eh
 * total energy  :  -109.1981892 Eh     change       -0.1149560E-06 Eh
 * total energy  :  -109.1981893 Eh     change       -0.8837439E-07 Eh
   *** GEOMETRY OPTIMIZATION CONVERGED AFTER 15 ITERATIONS ***

 final structure:
================
75
 xtb: 6.7.1 (edcfbbe)
C            3.07723244890471        0.85609450604980       -2.05922817608050
C            3.46250773766144        1.55085337805723       -0.73743429467850
C            4.27802486288839        2.79857974081906       -1.07595125489154
C            4.23764056075345        0.56926995431937        0.12314816388788
C            5.60792068713694        0.61663097175098        0.32722206689754
C            6.24552943449062       -0.32838141596799        1.11392888456238
C            5.51491209854595       -1.32547739375122        1.73485769195428
C            4.14528943096546       -1.38264311160865        1.55885800161065
C            3.51191980780830       -0.45774477294198        0.73727052798270
N            2.11684182023374       -0.46709789472640        0.57725659367221
C            1.38484555724257       -1.55631494924598        0.18895695776216
C            1.98943685655975       -2.81180854432487       -0.11094605366041
C            1.19729109421135       -3.83918167856830       -0.52616143111036
C           -0.19528189410877       -3.64680487568986       -0.69465025325367
C           -1.08957210632174       -4.63727799479377       -1.13550807960624
C           -2.41198504281835       -4.33703408149436       -1.32919920936520
C           -2.89154139730374       -3.03711267754838       -1.10929712319639
C           -2.04916737987068       -2.04748517667932       -0.67387391179634
N           -2.51897478454945       -0.72355350462684       -0.45800093199223
C           -2.93619257481387       -0.39177494937506        0.82813208696300
C           -2.87729013768094       -1.32610922617024        1.86089836456837
C           -3.24794284089923       -0.97840034700559        3.14469368037935
C           -3.66869704360458        0.30983121357643        3.41780994741215
C           -3.74963181319408        1.23517628477499        2.39042826016097
C           -3.40819561961930        0.90234336084994        1.09023342193336
C           -3.59056593343518        1.83397823561696       -0.08919952742753
C           -4.86953138373328        1.39148546662874       -0.83446829125082
C           -3.76626778076205        3.29626208460507        0.31907033871256
C           -2.42278172644134        1.61726969558170       -1.03019796949609
C           -1.81476671303307        2.63711590169660       -1.74143237812226
C           -0.86640482282830        2.37099375684921       -2.71403431471392
C           -0.55300996395827        1.05982892600996       -3.01799104469254
C           -1.12135421613650        0.02852003361983       -2.29818189644900
C           -2.01231244450475        0.29614874887141       -1.26133886619235
C           -0.68190735947596       -2.34227815349437       -0.43064959733970
N            0.09817764196958       -1.35371173529009        0.02037710771320
C            1.52116136071793        0.81447389683776        0.63829424191438
C            0.34987891449839        1.02204645620718        1.35069911936421
C           -0.18856371674715        2.29165595692106        1.42607780401871
C            0.44756134334306        3.34828422540893        0.80121766990055
C            1.62888916205168        3.14092785922510        0.11013163598942
C            2.18503013206920        1.87470683415288        0.01854407335952
H            3.97362353830894        0.55030925955864       -2.59587281045581
H            2.50972311847366        1.54506467410590       -2.68042347745561
H            2.46093508214078       -0.02142463361694       -1.88381638135445
H            3.69434531006019        3.46696990579876       -1.70337736509137
H            4.57434751426178        3.32802503639001       -0.17314373115910
H            5.16832052048719        2.52567729780854       -1.63731726729800
H            6.19990247177539        1.39251488798957       -0.13029777635575
H            7.31525186052724       -0.27661340551500        1.25036530372759
H            6.00644745128441       -2.04916286226360        2.36758953333243
H            3.55856875904805       -2.12998415628485        2.07223275404273
H            3.05834873083938       -2.93225730500169       -0.03954256812782
H            1.62624662943176       -4.80466307497528       -0.75816235686614
H           -0.71579973683984       -5.63392400027766       -1.32352875177623
H           -3.09807399149682       -5.09898067137584       -1.66757191058613
H           -3.93305426313514       -2.81098394804139       -1.28482303621282
H           -2.52920237456119       -2.32776971214674        1.65830854129090
H           -3.19612641240043       -1.71467797036023        3.93350439434237
H           -3.94663017229227        0.59322234155938        4.42196787880776
H           -4.09771266537671        2.22951352589210        2.62123935560248
H           -4.79308540372960        0.35306115768151       -1.14622586887889
H           -5.01788101263105        2.00674920524324       -1.71972242505286
H           -5.73569710847736        1.49410822983661       -0.18351870394460
H           -2.88717329515465        3.66616458265499        0.84085288291443
H           -4.63580892535827        3.40656657713361        0.96230287300605
H           -3.93989818998556        3.91119740017490       -0.56044606253029
H           -2.08378675552753        3.66379601520831       -1.55335661771171
H           -0.40397396027087        3.18455269115257       -3.25307636023680
H            0.14087646972683        0.83292855585025       -3.81462715011277
H           -0.86650188205663       -0.99091835212583       -2.54342753265009
H           -0.13609339113429        0.19528577088223        1.84093417606799
H           -1.09891925963182        2.44660520972587        1.98428576376792
H            0.03083375389307        4.34331943633681        0.85462501254957
H            2.10981201659019        3.98340779337441       -0.35998355279862

          :  Hamiltonian                  GFN2-xTB          :
         :: gradient norm              0.000036069926 Eh/a0 ::
         :: HOMO-LUMO gap              1.860106367969 eV    ::
         :: SCC energy              -111.164983822858 Eh    ::
         :: -> dispersion             -0.119114581652 Eh    ::
         :: repulsion energy           1.966794554896 Eh    ::

    * Orbital Energies and Occupations

         #    Occupation            Energy/Eh            Energy/eV
      -------------------------------------------------------------
         1        2.0000           -0.6703271             -18.2405
       ...           ...                  ...                  ...
        90        2.0000           -0.4082112             -11.1080
        91        2.0000           -0.4040257             -10.9941
        92        2.0000           -0.4015924             -10.9279
        93        2.0000           -0.3994731             -10.8702
        94        2.0000           -0.3989379             -10.8557
        95        2.0000           -0.3932277             -10.7003
        96        2.0000           -0.3897257             -10.6050
        97        2.0000           -0.3881145             -10.5611
        98        2.0000           -0.3829027             -10.4193
        99        2.0000           -0.3796237             -10.3301
       100        2.0000           -0.3604867              -9.8093
       101        2.0000           -0.3568888              -9.7114
       102        2.0000           -0.3362672              -9.1503 (HOMO)
       103                         -0.2679096              -7.2902 (LUMO)
       104                         -0.2360733              -6.4239
       105                         -0.2278723              -6.2007
       106                         -0.2214122              -6.0249
       107                         -0.2148563              -5.8465
       108                         -0.2114379              -5.7535
       109                         -0.2096627              -5.7052
       110                         -0.2075865              -5.6487
       111                         -0.2024514              -5.5090
       112                         -0.1963659              -5.3434
       113                         -0.1837796              -5.0009
       ...                                ...                  ...
       201                          0.7011991              19.0806
      -------------------------------------------------------------
                  HL-Gap            0.0683575 Eh            1.8601 eV

     #   Z          covCN         q      C6AA      α(0)
     1   6 C        3.763    -0.096    22.385     6.744
     2   6 C        3.911     0.023    20.134     6.378
     3   6 C        3.759    -0.106    22.585     6.775
     4   6 C        2.985    -0.006    28.157     8.704
     5   6 C        2.923    -0.038    28.942     8.822
     6   6 C        2.919    -0.038    28.933     8.821
     7   6 C        2.920    -0.033    28.831     8.805
     8   6 C        2.920    -0.047    29.163     8.856
     9   6 C        2.943     0.056    26.743     8.482
    10   7 N        2.765    -0.064    22.482     7.042
    11   6 C        2.894     0.156    24.618     8.135
    12   6 C        2.910    -0.063    29.567     8.916
    13   6 C        2.922    -0.020    28.514     8.757
    14   6 C        2.983    -0.012    28.311     8.728
    15   6 C        2.915    -0.039    28.959     8.824
    16   6 C        2.916    -0.036    28.906     8.816
    17   6 C        2.918    -0.041    29.017     8.833
    18   6 C        2.932     0.056    26.748     8.482
    19   7 N        2.752    -0.069    22.581     7.058
    20   6 C        2.941     0.064    26.568     8.454
    21   6 C        2.922    -0.054    29.330     8.881
    22   6 C        2.919    -0.035    28.865     8.810
    23   6 C        2.918    -0.046    29.138     8.852
    24   6 C        2.924    -0.040    28.997     8.831
    25   6 C        2.986    -0.011    28.295     8.725
    26   6 C        3.911     0.022    20.149     6.380
    27   6 C        3.766    -0.101    22.464     6.755
    28   6 C        3.758    -0.104    22.538     6.768
    29   6 C        2.987    -0.013    28.322     8.730
    30   6 C        2.924    -0.040    28.994     8.830
    31   6 C        2.918    -0.046    29.131     8.851
    32   6 C        2.920    -0.035    28.866     8.811
    33   6 C        2.922    -0.050    29.242     8.868
    34   6 C        2.939     0.066    26.532     8.448
    35   6 C        2.969     0.087    26.071     8.375
    36   7 N        1.859    -0.281    28.138     7.862
    37   6 C        2.951     0.062    26.603     8.460
    38   6 C        2.921    -0.035    28.867     8.811
    39   6 C        2.921    -0.030    28.743     8.792
    40   6 C        2.919    -0.034    28.857     8.809
    41   6 C        2.924    -0.038    28.954     8.824
    42   6 C        2.986    -0.007    28.182     8.708
    43   1 H        0.925     0.036     2.502     2.474
    44   1 H        0.925     0.043     2.412     2.429
    45   1 H        0.925     0.034     2.527     2.486
    46   1 H        0.925     0.042     2.420     2.433
    47   1 H        0.925     0.038     2.473     2.459
    48   1 H        0.925     0.040     2.451     2.448
    49   1 H        0.926     0.040     2.444     2.445
    50   1 H        0.926     0.033     2.544     2.494
    51   1 H        0.926     0.034     2.533     2.489
    52   1 H        0.926     0.036     2.502     2.474
    53   1 H        0.926     0.035     2.515     2.480
    54   1 H        0.925     0.032     2.555     2.500
    55   1 H        0.926     0.033     2.548     2.496
    56   1 H        0.926     0.035     2.517     2.481
    57   1 H        0.926     0.040     2.447     2.446
    58   1 H        0.926     0.020     2.728     2.583
    59   1 H        0.926     0.023     2.682     2.561
    60   1 H        0.926     0.023     2.691     2.565
    61   1 H        0.926     0.031     2.576     2.510
    62   1 H        0.925     0.035     2.513     2.479
    63   1 H        0.925     0.035     2.510     2.478
    64   1 H        0.925     0.036     2.505     2.475
    65   1 H        0.925     0.037     2.492     2.469
    66   1 H        0.925     0.037     2.486     2.466
    67   1 H        0.925     0.037     2.485     2.465
    68   1 H        0.926     0.032     2.559     2.502
    69   1 H        0.926     0.020     2.730     2.584
    70   1 H        0.926     0.021     2.711     2.575
    71   1 H        0.926     0.019     2.745     2.591
    72   1 H        0.926     0.050     2.314     2.379
    73   1 H        0.926     0.037     2.485     2.465
    74   1 H        0.926     0.031     2.568     2.506
    75   1 H        0.926     0.038     2.472     2.459

molecular dipole:
                 x           y           z       tot (Debye)
 q only:        0.644       0.245      -0.145
   full:        0.891      -0.306      -0.233       2.467

 projected vibrational frequencies (cm⁻¹)
eigval :       -0.00    -0.00    -0.00     0.00     0.00     0.00
eigval :       17.35    27.44    31.99    40.77    53.46    57.24
eigval :       63.62    72.86    93.44   107.89   118.35   126.06
eigval :      131.80   137.13   163.96   167.30   174.46   186.80
eigval :      190.90   202.96   207.08   226.44   249.70   253.17
eigval :      273.05   280.64   287.72   294.39   300.29   306.26
eigval :      320.80   325.11   346.80   351.83   364.65   365.50
eigval :      394.18   398.71   401.21   407.50   410.22   418.25
eigval :      419.68   443.72   450.77   463.02   483.85   497.09
eigval :      498.38   507.98   508.36   521.25   522.95   540.85
eigval :      552.73   557.26   563.87   575.11   578.14   583.24
eigval :      593.71   600.00   615.53   653.90   667.62   668.78
eigval :      682.51   692.67   705.78   712.11   721.66   722.88
eigval :      732.96   772.40   775.35   777.25   782.08   787.12
eigval :      811.13   814.78   816.24   830.28   831.87   863.35
eigval :      864.05   875.03   883.24   884.94   891.72   899.32
eigval :      902.39   909.33   909.96   912.25   915.75   917.11
eigval :      919.31   920.85   922.04   926.62   937.33   937.97
eigval :      943.92   964.68   968.72   996.99  1008.02  1010.84
eigval :     1049.92  1074.83  1075.33  1086.37  1100.27  1100.97
eigval :     1107.25  1111.13  1112.33  1117.82  1139.85  1144.55
eigval :     1150.38  1153.48  1162.33  1175.21  1179.65  1184.01
eigval :     1187.42  1189.05  1190.22  1192.14  1207.68  1215.43
eigval :     1230.42  1234.03  1244.69  1258.91  1263.73  1271.51
eigval :     1273.79  1277.93  1282.71  1292.93  1302.41  1313.50
eigval :     1321.07  1325.02  1330.62  1335.91  1339.25  1341.85
eigval :     1365.41  1387.10  1394.61  1398.88  1411.57  1416.26
eigval :     1429.23  1440.89  1442.21  1444.00  1447.29  1457.35
eigval :     1459.83  1467.01  1482.39  1485.19  1491.10  1492.06
eigval :     1493.49  1494.39  1497.07  1506.73  1507.15  1525.00
eigval :     1528.90  1542.84  1576.34  1578.00  1585.55  1587.71
eigval :     1589.10  1591.39  1592.31  1597.72  1603.32  1605.82
eigval :     3021.17  3022.05  3024.58  3028.46  3031.28  3033.69
eigval :     3036.77  3040.75  3044.68  3046.20  3048.20  3054.18
eigval :     3060.68  3068.60  3070.14  3072.85  3077.66  3079.32
eigval :     3080.74  3082.77  3083.61  3085.62  3093.38  3094.04
eigval :     3095.12  3095.22  3095.92  3103.56  3104.48  3108.48
eigval :     3109.82  3112.18  3122.58

   temp. (K)  partition function   enthalpy   heat capacity  entropy
                                   cal/mol     cal/K/mol   cal/K/mol   J/K/mol
 298.15  VIB  0.139E+14            19837.256    132.443    118.681
         ROT  0.310E+08              888.752      2.981     37.262
         INT  0.430E+21            20726.009    135.424    155.942
         TR   0.123E+29             1481.254      4.968     44.745
         TOT                       22207.2627   140.3924   200.6871   839.6749

       T/K    H(0)-H(T)+PV         H(T)/Eh          T*S/Eh         G(T)/Eh
   ------------------------------------------------------------------------
    298.15    0.353895E-01    0.637654E+00    0.953529E-01    0.542301E+00
   ------------------------------------------------------------------------

         :::::::::::::::::::::::::::::::::::::::::::::::::::::
         ::                  THERMODYNAMIC                  ::
         :::::::::::::::::::::::::::::::::::::::::::::::::::::
         :: total free energy        -108.655887841742 Eh   ::
         ::.................................................::
         :: total energy             -109.198189267958 Eh   ::
         :: zero point energy           0.602264829079 Eh   ::
         :: G(RRHO) w/o ZPVE           -0.059963402863 Eh   ::
         :: G(RRHO) contrib.            0.542301426216 Eh   ::
         :::::::::::::::::::::::::::::::::::::::::::::::::::::

           -------------------------------------------------
          | TOTAL ENERGY             -109.198189267958 Eh   |
          | TOTAL ENTHALPY           -108.560534913108 Eh   |
          | TOTAL FREE ENERGY        -108.655887841742 Eh   |
          | GRADIENT NORM               0.000036107319 Eh/α |
          | HOMO-LUMO GAP               1.860103518574 eV   |
           -------------------------------------------------

 * finished run on 2025/08/22 at 15:14:54.675
