   * xtb version 6.7.1 (edcfbbe) compiled by 'albert@albert-system' on 2024-07-22

   ID    Z sym.   atoms
    1    6 C      1-9, 11-18, 20-35, 37-42
    2    7 N      10, 19, 36
    3    1 H      43-75

          program call               : xtb data2507/gas/Yad/Yad_gas_T1_crest.xyz --gfn 2 --spinpol --tblite --uhf 2 --ohess vtight --parallel 40 --molden --ceasefiles --namespace data2507/gas/Yad/Yad_gas_T1_finalOpt
 * total energy  :  -109.1198907 Eh     change       -0.1385757E-07 Eh
 * total energy  :  -109.1199110 Eh     change       -0.2038153E-04 Eh
 * total energy  :  -109.1199195 Eh     change       -0.8411600E-05 Eh
 * total energy  :  -109.1199211 Eh     change       -0.1637480E-05 Eh
 * total energy  :  -109.1199224 Eh     change       -0.1298519E-05 Eh
 * total energy  :  -109.1199235 Eh     change       -0.1104729E-05 Eh
 * total energy  :  -109.1199245 Eh     change       -0.9709143E-06 Eh
 * total energy  :  -109.1199252 Eh     change       -0.7046043E-06 Eh
 * total energy  :  -109.1199256 Eh     change       -0.4038854E-06 Eh
 * total energy  :  -109.1199259 Eh     change       -0.3262810E-06 Eh
 * total energy  :  -109.1199275 Eh     change       -0.2923530E-06 Eh
 * total energy  :  -109.1199278 Eh     change       -0.3441965E-06 Eh
 * total energy  :  -109.1199281 Eh     change       -0.3073159E-06 Eh
 * total energy  :  -109.1199283 Eh     change       -0.1964576E-06 Eh
 * total energy  :  -109.1199285 Eh     change       -0.2097140E-06 Eh
 * total energy  :  -109.1199287 Eh     change       -0.2049885E-06 Eh
 * total energy  :  -109.1199289 Eh     change       -0.2039942E-06 Eh
 * total energy  :  -109.1199291 Eh     change       -0.1912231E-06 Eh
 * total energy  :  -109.1199292 Eh     change       -0.5463926E-07 Eh
   *** GEOMETRY OPTIMIZATION CONVERGED AFTER 22 ITERATIONS ***

 final structure:
================
75
 xtb: 6.7.1 (edcfbbe)
C            3.77154241269111        2.39347161531186        0.68362564626973
C            3.85263268406554        1.28855995253800       -0.38543068944430
C            5.16851934223091        1.40628475706682       -1.17704062772280
C            2.69357223047926        1.45705256360669       -1.34642708470002
C            2.54099785757903        2.65130968456805       -2.03715353927112
C            1.50508922842951        2.85481299743449       -2.93020472641416
C            0.59328552575465        1.83737424052524       -3.15614664810414
C            0.72497139172995        0.63919971821025       -2.48873062778835
C            1.76359786143844        0.43527328504370       -1.57272320865424
N            1.86482210052554       -0.78254169435983       -0.92693768852988
C            0.78702583492257       -1.69064638915296       -1.04870918688214
C            0.86475356074527       -2.87686754464895       -1.74502728089761
C           -0.24794163761697       -3.71891939170780       -1.78301057680134
C           -1.42724075104562       -3.37353796406007       -1.08396841979672
C           -2.56154946771582       -4.18368774614312       -0.97107644834045
C           -3.65821692935027       -3.78170339625888       -0.20625272506859
C           -3.66728084698977       -2.56011442587042        0.42730658801121
C           -2.56345503970044       -1.70156610353280        0.30893983823268
N           -2.53532199282379       -0.38524949786786        0.82267257671595
C           -1.40757262442855       -0.04106737348544        1.54025890247481
C           -0.67318148021386       -1.05831568745138        2.17819664690433
C            0.51399367852165       -0.78491547894430        2.81526139229309
C            0.98936101516126        0.51655669879758        2.85266130720778
C            0.22963839823968        1.53418342703055        2.30232620463310
C           -0.97403352401297        1.28668585204194        1.65843900092723
C           -1.78549797257296        2.43610862288805        1.10855010040212
C           -2.13344899840247        3.38720985103334        2.26939326776262
C           -0.94487518754092        3.16890304844805        0.04560770396125
C           -3.06246609579029        1.95725314358046        0.45086504598259
C           -3.94880500982084        2.89555914155637       -0.06260291443535
C           -5.09177875091559        2.52894559799378       -0.74674393304128
C           -5.34726188094598        1.18543426822344       -0.96303458894542
C           -4.48525783044921        0.23394999744596       -0.46443250589938
C           -3.35430249464093        0.59637077599010        0.27768572790735
C           -1.41080996895603       -2.12050332973619       -0.40107965767006
N           -0.33522872703850       -1.34069304793800       -0.39236981717155
C            2.83633915008191       -1.01647747365409        0.03014981248574
C            2.83584964820980       -2.22514452881665        0.73492118544280
C            3.79929752257233       -2.49558676760789        1.68110074795547
C            4.78727489147229       -1.56201377699015        1.94464175287607
C            4.78222316236050       -0.36043871239030        1.26156650436615
C            3.81930024140852       -0.05871311148559        0.30785570441100
H            3.80117220110201        3.37920297879949        0.22775927760485
H            4.59892061030570        2.32045288358123        1.38380640960227
H            2.84005170312487        2.29383940468732        1.23647782622640
H            6.02662116229035        1.30153397261970       -0.51864153049002
H            5.21723879163886        0.62401491151636       -1.93211538903090
H            5.23462464146792        2.36928486193938       -1.67614843832997
H            3.24998494936881        3.45050046378261       -1.88118207716073
H            1.41469388447545        3.79682470281087       -3.44927965401659
H           -0.21842992302118        1.97501819227672       -3.85489763179120
H            0.02132265417689       -0.15668033910764       -2.67500861673485
H            1.78058253823200       -3.13756004448946       -2.25301653856079
H           -0.21642504929036       -4.63689462487013       -2.34789152999313
H           -2.55735930432159       -5.15697914147898       -1.43822890306908
H           -4.50227292264087       -4.44677590509542       -0.10038530092428
H           -4.49574214305195       -2.26701312853611        1.05508029000681
H           -1.05730026931646       -2.06652654376656        2.16289444275913
H            1.07609349710903       -1.58250821737695        3.27613316322919
H            1.93412396079973        0.73765452392948        3.32593750716804
H            0.59085753774683        2.54926781776430        2.37643175546338
H           -2.75451064376209        2.87003902408985        2.99833275737567
H           -2.67508001730738        4.25786036654830        1.91157793521234
H           -1.23298507077885        3.73186120826065        2.76957995527577
H           -0.66830614878460        2.47826770631926       -0.74840228739474
H           -0.03296154127162        3.56864201600733        0.48031548526722
H           -1.50473883951243        3.99097427627583       -0.39188385364493
H           -3.73881599231612        3.94682417963768        0.06248406001473
H           -5.76269048073011        3.28420048802572       -1.12670497934321
H           -6.21549079145632        0.87723037545470       -1.52575198682548
H           -4.67943739612662       -0.80673258541673       -0.66327078529926
H            2.06376297884229       -2.95099455621079        0.53429554504993
H            3.77990343694105       -3.43584704232600        2.21185768230963
H            5.55257693096541       -1.76502826246645        2.67840677123458
H            5.55500644725175        0.36042841178402        1.48289920206442

 projected vibrational frequencies (cm⁻¹)
eigval :       -0.00    -0.00    -0.00     0.00     0.00     0.00
eigval :       12.39    19.03    34.16    36.11    40.68    41.02
eigval :       64.09    67.93    93.10    96.63    99.25   111.39
eigval :      125.89   131.25   133.58   141.25   167.74   170.66
eigval :      192.52   194.93   205.21   213.36   219.82   233.30
eigval :      235.47   242.76   245.77   298.83   303.91   306.61
eigval :      330.14   330.80   341.19   341.72   349.05   351.19
eigval :      369.71   377.17   381.81   385.08   391.61   411.09
eigval :      415.12   451.74   455.50   456.57   476.98   500.12
eigval :      508.06   510.06   512.02   522.14   526.70   537.28
eigval :      541.81   544.90   550.79   554.09   577.55   583.28
eigval :      586.00   604.75   609.01   629.17   655.81   660.58
eigval :      682.56   685.34   686.39   698.47   702.21   713.15
eigval :      716.24   719.00   754.29   775.49   777.60   777.82
eigval :      778.72   805.48   819.60   824.81   826.38   829.99
eigval :      831.56   856.90   865.70   869.38   872.01   879.31
eigval :      895.85   907.55   910.80   912.62   914.21   914.40
eigval :      915.99   920.54   921.68   922.21   925.12   937.31
eigval :      938.86   957.25   957.44   983.33  1013.85  1014.06
eigval :     1042.16  1075.45  1077.05  1088.94  1091.36  1102.62
eigval :     1106.98  1110.57  1113.19  1116.85  1117.00  1137.92
eigval :     1139.69  1152.67  1157.87  1169.43  1171.95  1178.32
eigval :     1183.71  1185.61  1185.97  1187.37  1201.33  1207.79
eigval :     1212.32  1239.56  1241.48  1243.30  1245.82  1252.92
eigval :     1257.01  1278.82  1286.74  1295.38  1296.70  1303.02
eigval :     1303.71  1307.35  1322.77  1327.56  1334.84  1336.38
eigval :     1339.16  1358.74  1364.65  1380.30  1399.56  1401.04
eigval :     1412.85  1416.16  1417.09  1419.14  1430.35  1434.44
eigval :     1434.78  1458.63  1466.65  1471.60  1478.41  1484.66
eigval :     1487.17  1487.34  1489.50  1490.27  1498.17  1498.92
eigval :     1501.39  1501.88  1503.72  1526.00  1550.00  1566.38
eigval :     1570.63  1576.18  1580.97  1586.19  1591.46  1597.74
eigval :     3028.86  3029.15  3037.80  3038.58  3039.23  3040.18
eigval :     3041.20  3045.25  3047.56  3048.89  3051.76  3055.40
eigval :     3073.57  3077.56  3077.62  3078.70  3079.47  3081.84
eigval :     3082.01  3082.61  3083.47  3086.38  3088.22  3090.24
eigval :     3093.09  3094.03  3095.03  3095.63  3098.23  3101.85
eigval :     3105.82  3106.55  3121.09

   temp. (K)  partition function   enthalpy   heat capacity  entropy
                                   cal/mol     cal/K/mol   cal/K/mol   J/K/mol
 298.15  VIB  0.190E+15            20437.468    133.637    123.735
         ROT  0.303E+08              888.752      2.981     37.216
         INT  0.575E+22            21326.220    136.618    160.951
         TR   0.123E+29             1481.254      4.968     44.745
         TOT                       22807.4738   141.5864   205.6960   860.6321

       T/K    H(0)-H(T)+PV         H(T)/Eh          T*S/Eh         G(T)/Eh
   ------------------------------------------------------------------------
    298.15    0.363460E-01    0.634085E+00    0.977328E-01    0.536352E+00
   ------------------------------------------------------------------------

         :::::::::::::::::::::::::::::::::::::::::::::::::::::
         ::                  THERMODYNAMIC                  ::
         :::::::::::::::::::::::::::::::::::::::::::::::::::::
         :: total free energy        -108.583576820736 Eh   ::
         ::.................................................::
         :: total energy             -109.119929166413 Eh   ::
         :: zero point energy           0.597739130349 Eh   ::
         :: G(RRHO) w/o ZPVE           -0.061386784672 Eh   ::
         :: G(RRHO) contrib.            0.536352345677 Eh   ::
         :::::::::::::::::::::::::::::::::::::::::::::::::::::

           -------------------------------------------------
          | TOTAL ENERGY             -109.119929166413 Eh   |
          | TOTAL ENTHALPY           -108.485844012976 Eh   |
          | TOTAL FREE ENERGY        -108.583576820736 Eh   |
          | GRADIENT NORM               0.000060327390 Eh/α |
           -------------------------------------------------

 * finished run on 2025/08/22 at 15:19:15.805
