   * xtb version 6.7.1 (edcfbbe) compiled by 'albert@albert-system' on 2024-07-22

   ID    Z sym.   atoms
    1    6 C      1-9, 11-18, 20-35, 37-42
    2    7 N      10, 19, 36
    3    1 H      43-75

          program call               : xtb data2507/gas/Yad/Yad.xyz --gfn 2 --ohess vtight --parallel 40 --molden --ceasefiles --namespace data2507/gas/Yad/Yad_gas_S0_preOpt
          :  Hamiltonian                  GFN2-xTB          :
 * total energy  :  -109.1566288 Eh     change       -0.4104820E-08 Eh
 * total energy  :  -109.1774293 Eh     change       -0.2080050E-01 Eh
 * total energy  :  -109.1851639 Eh     change       -0.7734630E-02 Eh
 * total energy  :  -109.1867061 Eh     change       -0.1542201E-02 Eh
 * total energy  :  -109.1875180 Eh     change       -0.8118395E-03 Eh
 * total energy  :  -109.1878999 Eh     change       -0.3819426E-03 Eh
 * total energy  :  -109.1881717 Eh     change       -0.2718125E-03 Eh
 * total energy  :  -109.1884558 Eh     change       -0.2840499E-03 Eh
 * total energy  :  -109.1887025 Eh     change       -0.2467745E-03 Eh
 * total energy  :  -109.1889661 Eh     change       -0.2635705E-03 Eh
 * total energy  :  -109.1959983 Eh     change       -0.1060893E-05 Eh
 * total energy  :  -109.1959994 Eh     change       -0.1079198E-05 Eh
 * total energy  :  -109.1960004 Eh     change       -0.1079997E-05 Eh
 * total energy  :  -109.1960015 Eh     change       -0.1066384E-05 Eh
 * total energy  :  -109.1960026 Eh     change       -0.1050507E-05 Eh
 * total energy  :  -109.1960036 Eh     change       -0.1024318E-05 Eh
 * total energy  :  -109.1960046 Eh     change       -0.1001171E-05 Eh
 * total energy  :  -109.1960056 Eh     change       -0.9732868E-06 Eh
 * total energy  :  -109.1960056 Eh     change       -0.6164811E-08 Eh
   *** GEOMETRY OPTIMIZATION CONVERGED AFTER 221 ITERATIONS ***

 final structure:
================
75
 xtb: 6.7.1 (edcfbbe)
C            4.22090540566517        0.37339040993739       -2.15345181857223
C            4.35935523297375        0.97496325938245       -0.73896376405043
C            5.52303916727376        1.96582591802517       -0.75512829123970
C            4.58001257458099       -0.15977513955203        0.24048614564538
C            5.79889485919222       -0.47695874774951        0.81997419439277
C            5.92509274860068       -1.56723774621137        1.66415214005982
C            4.82345846688195       -2.35298990754172        1.95506753757913
C            3.59532581423416       -2.04114572075357        1.40673024457212
C            3.47284642780402       -0.95691122305715        0.54299872803561
N            2.21400034847059       -0.59892665318521        0.03794505952105
C            1.33152883943151       -1.55915373157108       -0.40266653080425
C            1.85654821680890       -2.77292301736924       -0.94029544773989
C            1.00020238526282       -3.68261496396450       -1.47540025565453
C           -0.39286392612114       -3.42812521846171       -1.47671040896956
C           -1.34176954702009       -4.31324606607773       -2.01332871897312
C           -2.67531773685134       -4.00146852550539       -1.97756731531861
C           -3.10479601689274       -2.80556100214063       -1.39153438291206
C           -2.20417013394373       -1.91736720554751       -0.85369025768241
N           -2.66230502903617       -0.73605467914393       -0.21667846272775
C           -3.20511161971079       -0.83780594186526        1.05347150146407
C           -3.22196143856202       -2.07437867261448        1.70677698158402
C           -3.78332156163219       -2.21145871199195        2.95842658582058
C           -4.33809330135661       -1.11266101775631        3.58907099884973
C           -4.29784232740980        0.11698764863519        2.95866228396146
C           -3.73206292266951        0.28441025552087        1.70224260651850
C           -3.69553834837270        1.66682315399427        1.07978341084001
C           -5.14125005902528        2.15270099000701        0.86640517119672
C           -2.95393795696001        2.61436717119093        2.04062933108888
C           -2.98865992914198        1.66216701385134       -0.26276981727188
C           -2.82793629513657        2.85555061219990       -0.95360774006452
C           -2.21224372801750        2.91166976753838       -2.18997151157835
C           -1.75831437163486        1.74187038792560       -2.77141922248099
C           -1.91860288890302        0.54128169924367       -2.11432104022308
C           -2.51560090254023        0.48465558574303       -0.85207116613776
C           -0.81525005918514       -2.20233368743967       -0.89950835377030
N            0.04508542048507       -1.30526718533458       -0.38808380100065
C            1.96490784872437        0.78762120009114       -0.02345170876755
C            0.71981363054937        1.32407607905210        0.27471233820168
C            0.52389325747908        2.69064592554870        0.20511524988770
C            1.57337250719956        3.52470191176975       -0.12912198224196
C            2.82030105450933        2.99082598935606       -0.40614060304300
C            3.03561157074917        1.62256423730950       -0.36959149672992
H            4.03920405324950        1.16652055145124       -2.87556572621812
H            3.39309253178980       -0.32915759956354       -2.20543173458765
H            5.13567997645102       -0.14880907243112       -2.42773807187513
H            5.34533282916921        2.74414709150350       -1.49255576379618
H            5.65700159757271        2.42536373699513        0.22155224815028
H            6.44228333811427        1.45936215230474       -1.03900619092153
H            6.67145080738245        0.12123719291888        0.61370225545286
H            6.88602738488698       -1.80028275698350        2.09744420652523
H            4.91589478513715       -3.19815256214808        2.62039154294957
H            2.72080722588236       -2.62729368886274        1.64914868963437
H            2.92339801594484       -2.93454273878585       -0.95371493427373
H            1.36869527142513       -4.59708479232413       -1.91970235549950
H           -1.00126806111552       -5.24127745968047       -2.45008162441641
H           -3.40616061334246       -4.67793647775003       -2.39432167264462
H           -4.15949824916806       -2.57618957005514       -1.34577638145519
H           -2.78412617320441       -2.93617923323651        1.22705590906069
H           -3.78575710282907       -3.17855443633310        3.43950015353508
H           -4.78953290770321       -1.20824225245360        4.56495683683021
H           -4.72385969239454        0.96906101365105        3.46680835042411
H           -5.68782260852984        2.16677835385804        1.80572464929607
H           -5.65813011052149        1.48596926152769        0.17857500053774
H           -5.15494332159952        3.15513226909886        0.44679922573968
H           -1.94916732740290        2.23987882943620        2.22710985945242
H           -3.47312865638796        2.68709158545612        2.99226877010929
H           -2.87977971805972        3.61495878912782        1.62326004612904
H           -3.19608787533360        3.77401579980457       -0.52016879871663
H           -2.09699427636325        3.85809737465793       -2.69625827526863
H           -1.28559818287576        1.76136938311849       -3.74232913019034
H           -1.57824442893800       -0.36927627049094       -2.58224793345092
H           -0.08694144669880        0.66694995298760        0.54596120766872
H           -0.45043425342219        3.09992697107100        0.41797151058588
H            1.42695967785275        4.59351662812206       -0.17670497615498
H            3.62440083420748        3.66086752257552       -0.66380230379563

          :  Hamiltonian                  GFN2-xTB          :
         :: gradient norm              0.000066329747 Eh/a0 ::
         :: HOMO-LUMO gap              1.715506897512 eV    ::
         :: SCC energy              -111.161858583398 Eh    ::
         :: -> dispersion             -0.112469198989 Eh    ::
         :: repulsion energy           1.965853021183 Eh    ::

    * Orbital Energies and Occupations

         #    Occupation            Energy/Eh            Energy/eV
      -------------------------------------------------------------
         1        2.0000           -0.6712687             -18.2662
       ...           ...                  ...                  ...
        90        2.0000           -0.4098317             -11.1521
        91        2.0000           -0.4024170             -10.9503
        92        2.0000           -0.4016002             -10.9281
        93        2.0000           -0.3986444             -10.8477
        94        2.0000           -0.3978376             -10.8257
        95        2.0000           -0.3924118             -10.6781
        96        2.0000           -0.3917412             -10.6598
        97        2.0000           -0.3910770             -10.6417
        98        2.0000           -0.3874572             -10.5432
        99        2.0000           -0.3820448             -10.3960
       100        2.0000           -0.3653714              -9.9423
       101        2.0000           -0.3565744              -9.7029
       102        2.0000           -0.3349710              -9.1150 (HOMO)
       103                         -0.2719273              -7.3995 (LUMO)
       104                         -0.2395945              -6.5197
       105                         -0.2262448              -6.1564
       106                         -0.2219420              -6.0393
       107                         -0.2141028              -5.8260
       108                         -0.2134378              -5.8079
       109                         -0.2094762              -5.7001
       110                         -0.2089257              -5.6852
       111                         -0.2071122              -5.6358
       112                         -0.1991566              -5.4193
       113                         -0.1784002              -4.8545
       ...                                ...                  ...
       201                          0.6928757              18.8541
      -------------------------------------------------------------
                  HL-Gap            0.0630437 Eh            1.7155 eV

     #   Z          covCN         q      C6AA      α(0)
     1   6 C        3.763    -0.098    22.409     6.748
     2   6 C        3.911     0.022    20.140     6.379
     3   6 C        3.759    -0.106    22.580     6.775
     4   6 C        2.986    -0.007    28.191     8.710
     5   6 C        2.923    -0.038    28.953     8.824
     6   6 C        2.919    -0.038    28.957     8.824
     7   6 C        2.919    -0.033    28.820     8.803
     8   6 C        2.922    -0.047    29.162     8.856
     9   6 C        2.946     0.056    26.737     8.481
    10   7 N        2.759    -0.064    22.488     7.043
    11   6 C        2.894     0.156    24.628     8.137
    12   6 C        2.914    -0.058    29.447     8.898
    13   6 C        2.921    -0.021    28.524     8.758
    14   6 C        2.985    -0.009    28.233     8.716
    15   6 C        2.916    -0.039    28.960     8.825
    16   6 C        2.915    -0.035    28.862     8.810
    17   6 C        2.920    -0.040    28.993     8.830
    18   6 C        2.928     0.056    26.736     8.480
    19   7 N        2.755    -0.055    22.302     7.014
    20   6 C        2.930     0.060    26.658     8.467
    21   6 C        2.924    -0.058    29.433     8.897
    22   6 C        2.920    -0.034    28.838     8.806
    23   6 C        2.917    -0.046    29.143     8.853
    24   6 C        2.928    -0.037    28.912     8.818
    25   6 C        2.980    -0.014    28.360     8.735
    26   6 C        3.909     0.022    20.152     6.381
    27   6 C        3.761    -0.102    22.495     6.761
    28   6 C        3.761    -0.102    22.492     6.761
    29   6 C        2.979    -0.014    28.359     8.735
    30   6 C        2.928    -0.036    28.899     8.816
    31   6 C        2.917    -0.045    29.124     8.850
    32   6 C        2.920    -0.033    28.818     8.803
    33   6 C        2.925    -0.052    29.302     8.877
    34   6 C        2.928     0.064    26.563     8.452
    35   6 C        2.966     0.085    26.105     8.381
    36   7 N        1.848    -0.271    27.889     7.827
    37   6 C        2.938     0.058    26.689     8.473
    38   6 C        2.920    -0.047    29.175     8.858
    39   6 C        2.921    -0.032    28.805     8.801
    40   6 C        2.918    -0.038    28.946     8.823
    41   6 C        2.924    -0.040    29.000     8.831
    42   6 C        2.986    -0.010    28.263     8.721
    43   1 H        0.925     0.039     2.457     2.451
    44   1 H        0.925     0.033     2.539     2.492
    45   1 H        0.925     0.037     2.496     2.470
    46   1 H        0.925     0.041     2.436     2.441
    47   1 H        0.925     0.039     2.467     2.456
    48   1 H        0.925     0.040     2.455     2.450
    49   1 H        0.926     0.039     2.459     2.452
    50   1 H        0.926     0.032     2.556     2.500
    51   1 H        0.926     0.033     2.539     2.492
    52   1 H        0.926     0.032     2.557     2.501
    53   1 H        0.926     0.035     2.518     2.482
    54   1 H        0.925     0.034     2.528     2.486
    55   1 H        0.926     0.034     2.524     2.485
    56   1 H        0.926     0.037     2.494     2.469
    57   1 H        0.926     0.042     2.426     2.436
    58   1 H        0.926     0.021     2.719     2.579
    59   1 H        0.926     0.024     2.672     2.556
    60   1 H        0.926     0.023     2.685     2.562
    61   1 H        0.926     0.028     2.617     2.530
    62   1 H        0.925     0.038     2.480     2.463
    63   1 H        0.925     0.030     2.586     2.515
    64   1 H        0.925     0.038     2.477     2.461
    65   1 H        0.925     0.034     2.526     2.486
    66   1 H        0.925     0.037     2.488     2.466
    67   1 H        0.925     0.036     2.506     2.476
    68   1 H        0.926     0.026     2.640     2.541
    69   1 H        0.926     0.023     2.693     2.566
    70   1 H        0.926     0.023     2.688     2.564
    71   1 H        0.926     0.021     2.712     2.575
    72   1 H        0.926     0.065     2.137     2.286
    73   1 H        0.926     0.040     2.455     2.450
    74   1 H        0.926     0.030     2.586     2.515
    75   1 H        0.926     0.036     2.500     2.472

molecular dipole:
                 x           y           z       tot (Debye)
 q only:        0.750       0.008      -0.232
   full:        0.913      -0.477      -0.437       2.844

 projected vibrational frequencies (cm⁻¹)
eigval :       -0.00    -0.00     0.00     0.00     0.00     0.00
eigval :        6.27    23.35    25.19    37.89    48.81    58.52
eigval :       66.35    68.15    91.05   100.03   103.94   124.70
eigval :      125.22   139.74   148.88   165.77   171.70   178.08
eigval :      198.94   206.31   207.49   220.39   224.24   239.56
eigval :      247.67   254.53   279.41   293.29   303.10   306.09
eigval :      325.30   333.34   335.11   345.05   352.73   365.24
eigval :      375.35   383.18   396.94   405.47   409.62   413.49
eigval :      414.97   445.49   452.23   462.91   484.12   491.46
eigval :      504.62   510.26   515.11   517.04   529.25   538.17
eigval :      546.04   547.67   557.85   574.16   582.11   583.60
eigval :      591.13   604.64   618.64   654.64   663.42   672.86
eigval :      682.60   691.80   693.90   711.87   719.39   723.45
eigval :      734.51   774.05   775.00   776.73   781.48   787.58
eigval :      812.35   814.56   824.87   830.64   837.56   863.55
eigval :      864.76   870.63   880.09   885.08   893.53   906.59
eigval :      910.07   911.94   913.06   915.19   915.38   919.13
eigval :      919.20   920.02   923.29   924.31   929.20   938.21
eigval :      941.77   956.39   965.99   993.97  1009.13  1014.12
eigval :     1051.23  1073.55  1077.64  1085.91  1102.51  1103.23
eigval :     1110.56  1113.83  1115.30  1120.39  1138.71  1141.21
eigval :     1151.49  1159.20  1161.47  1173.82  1175.32  1183.29
eigval :     1185.35  1188.37  1188.83  1190.83  1203.68  1214.48
eigval :     1228.91  1235.59  1246.06  1250.46  1257.84  1269.00
eigval :     1273.05  1273.77  1295.32  1295.51  1305.69  1311.52
eigval :     1325.33  1327.13  1329.83  1333.26  1336.96  1345.37
eigval :     1358.15  1377.40  1397.79  1401.93  1414.44  1419.14
eigval :     1420.85  1437.53  1440.31  1442.72  1445.48  1454.42
eigval :     1463.20  1481.28  1481.98  1489.26  1492.10  1492.58
eigval :     1493.49  1495.83  1497.39  1503.83  1507.20  1507.51
eigval :     1526.47  1541.55  1575.15  1577.93  1584.84  1587.48
eigval :     1589.97  1590.48  1593.96  1595.65  1602.18  1604.43
eigval :     3022.59  3026.20  3029.54  3029.82  3031.44  3035.57
eigval :     3035.79  3038.22  3044.89  3046.54  3047.92  3049.92
eigval :     3062.53  3072.63  3072.85  3074.54  3077.04  3078.13
eigval :     3080.22  3081.50  3083.57  3084.54  3090.38  3092.01
eigval :     3093.36  3095.11  3095.43  3099.09  3100.45  3108.79
eigval :     3112.21  3113.07  3148.17

   temp. (K)  partition function   enthalpy   heat capacity  entropy
                                   cal/mol     cal/K/mol   cal/K/mol   J/K/mol
 298.15  VIB  0.110E+15            20066.043    132.490    121.610
         ROT  0.365E+08              888.752      2.981     37.585
         INT  0.400E+22            20954.796    135.471    159.195
         TR   0.123E+29             1481.254      4.968     44.745
         TOT                       22436.0494   140.4395   203.9398   853.2840

       T/K    H(0)-H(T)+PV         H(T)/Eh          T*S/Eh         G(T)/Eh
   ------------------------------------------------------------------------
    298.15    0.357541E-01    0.637454E+00    0.968984E-01    0.540555E+00
   ------------------------------------------------------------------------

         :::::::::::::::::::::::::::::::::::::::::::::::::::::
         ::                  THERMODYNAMIC                  ::
         :::::::::::::::::::::::::::::::::::::::::::::::::::::
         :: total free energy        -108.655450386232 Eh   ::
         ::.................................................::
         :: total energy             -109.196005562213 Eh   ::
         :: zero point energy           0.601699417650 Eh   ::
         :: G(RRHO) w/o ZPVE           -0.061144241669 Eh   ::
         :: G(RRHO) contrib.            0.540555175981 Eh   ::
         :::::::::::::::::::::::::::::::::::::::::::::::::::::

           -------------------------------------------------
          | TOTAL ENERGY             -109.196005562213 Eh   |
          | TOTAL ENTHALPY           -108.558552023924 Eh   |
          | TOTAL FREE ENERGY        -108.655450386232 Eh   |
          | GRADIENT NORM               0.000066330485 Eh/α |
          | HOMO-LUMO GAP               1.715506007053 eV   |
           -------------------------------------------------

 * finished run on 2025/08/22 at 15:10:52.947
