   * xtb version 6.7.1 (edcfbbe) compiled by 'albert@albert-system' on 2024-07-22

   ID    Z sym.   atoms
    1    6 C      1, 2, 4-17, 19-38
    2    5 B      3
    3    7 N      18
    4    1 H      39-62

          program call               : xtb data2507/toluene/BN-DBC-Ph2/BN-DBC-Ph2_toluene_T1_crest.xyz --gfn 2 --uhf 2 --gbsa toluene --ohess vtight --parallel 40 --molden --ceasefiles --namespace data2507/toluene/BN-DBC-Ph2/BN-DBC-Ph2_toluene_T1_finalOpt
      * Solvation model:               GBSA
        Solvent                        toluene
        Solvent mass                       9.2140E+01 g/mol
          :  Hamiltonian                  GFN2-xTB          :
 * total energy  :   -93.4378381 Eh     change       -0.1454424E-08 Eh
 * total energy  :   -93.4378608 Eh     change       -0.2271537E-04 Eh
 * total energy  :   -93.4378673 Eh     change       -0.6508397E-05 Eh
 * total energy  :   -93.4378705 Eh     change       -0.3211068E-05 Eh
 * total energy  :   -93.4378751 Eh     change       -0.4649640E-05 Eh
 * total energy  :   -93.4378798 Eh     change       -0.4686074E-05 Eh
 * total energy  :   -93.4378854 Eh     change       -0.5586032E-05 Eh
 * total energy  :   -93.4378924 Eh     change       -0.7025807E-05 Eh
 * total energy  :   -93.4379003 Eh     change       -0.7854601E-05 Eh
 * total energy  :   -93.4379076 Eh     change       -0.7327115E-05 Eh
 * total energy  :   -93.4379937 Eh     change       -0.2312325E-06 Eh
 * total energy  :   -93.4379940 Eh     change       -0.2624914E-06 Eh
 * total energy  :   -93.4379942 Eh     change       -0.2355143E-06 Eh
 * total energy  :   -93.4379945 Eh     change       -0.2275136E-06 Eh
 * total energy  :   -93.4379947 Eh     change       -0.1815562E-06 Eh
 * total energy  :   -93.4379948 Eh     change       -0.1451034E-06 Eh
 * total energy  :   -93.4379950 Eh     change       -0.1815001E-06 Eh
 * total energy  :   -93.4379952 Eh     change       -0.1914442E-06 Eh
 * total energy  :   -93.4379952 Eh     change       -0.4508259E-07 Eh
   *** GEOMETRY OPTIMIZATION CONVERGED AFTER 68 ITERATIONS ***

 final structure:
================
62
 xtb: 6.7.1 (edcfbbe)
C            2.17960036800939       -4.49345029145804       -1.90002552725074
C            1.08509273478676       -4.61376007459444       -1.09454729345592
B            0.46956120993096       -3.35234693888160       -0.48621941243382
C            1.22235373039067       -2.02259964721750       -0.75059552698867
C            0.70783724766895       -0.80827248205381       -0.22569670205624
C           -0.62418644313951       -0.77555886655685        0.22376842986454
C           -1.35159174974425        0.44775585868869        0.07465101482372
C           -2.73297633992191        0.47802555924549       -0.00402595999146
C           -3.47175522965844        1.64133063663654       -0.25647864263123
C           -4.91812802665768        1.65448395335758       -0.28651146415950
C           -5.63189241931064        2.83370629431686       -0.02042280446469
C           -7.01063266231140        2.85265423192519       -0.03452429446451
C           -7.72768151057789        1.69912227599731       -0.31635720491971
C           -7.04063969688942        0.52375611647798       -0.58306072883296
C           -5.66200602592829        0.49775490521416       -0.56745765814845
C           -2.69766174630123        2.80409435712993       -0.52795342619717
C           -1.34756100317432        2.76374835953043       -0.50614177950812
N           -0.63561971587528        1.63040112013188       -0.17067218318654
C            0.74037977161772        1.65579281183053       -0.04794280225631
C            1.44964769624380        2.84259624331735        0.16294006826003
C            2.82626706893351        2.83267130366383        0.26708060693098
C            3.54297524010421        1.63968249120181        0.21804976177226
C            5.00278859444529        1.62648179934877        0.36209995334617
C            5.64593770201194        0.60957100584106        1.06856693889868
C            7.02148585013968        0.60418513915757        1.20334799573887
C            7.78393197293826        1.61090776975774        0.63321113794454
C            7.15786186483543        2.62586964856295       -0.07231448508385
C            5.78233719818324        2.63468671685562       -0.20620476255786
C            2.82908904130706        0.45103841036562        0.04790405195283
C            1.45176719098568        0.43943929711784       -0.12748207361501
C           -1.25711140162859       -1.96952519110083        0.76389709341858
C           -2.23334881979145       -1.85555853484748        1.75929462029121
C           -2.82937176496461       -2.97812577657385        2.30535042225161
C           -2.44826323824127       -4.24180443861180        1.88161214374621
C           -1.42614391004126       -4.36716232616847        0.95809305881863
C           -0.79474460571762       -3.25483027690556        0.39737355673012
C            2.30413202522892       -2.04972035383210       -1.64288470183189
C            2.75921247817612       -3.23485291076782       -2.18146304201459
H            2.63152535302597       -5.36262867073342       -2.36530116755233
H            0.67802136347600       -5.60860837243394       -0.95671021119542
H           -3.25572518496692       -0.45461412758747        0.11989728048934
H           -5.09690646710686        3.73802260691613        0.22959858202316
H           -7.53544384728945        3.77312911403414        0.18144010371866
H           -8.80767689297333        1.71574367299210       -0.32805255865497
H           -7.58930555253314       -0.37996106783108       -0.81006711965346
H           -5.15290531136538       -0.42465836552901       -0.80498391785983
H           -3.18185790707680        3.71963910794499       -0.82613794589142
H           -0.76149074178499        3.61787761261625       -0.79881923137182
H            0.93014110968419        3.77964512039311        0.28383429995884
H            3.34514544752564        3.76373264598907        0.43997961718856
H            5.06091948709363       -0.16982054148878        1.53504522444363
H            7.50236290120350       -0.18856780421678        1.75896815641533
H            8.85913825119850        1.60498371464605        0.73842111749832
H            7.74618451427814        3.41228092657015       -0.52379528897625
H            5.30602443919019        3.41959923668265       -0.77597630576680
H            3.36073233496713       -0.48676543476197        0.05630943530512
H           -2.49832830090102       -0.88177765932444        2.14558432850454
H           -3.58866577856060       -2.86399855530369        3.06584930035896
H           -2.92929793766808       -5.11986147606831        2.28863971372468
H           -1.09875690282169       -5.35303769248618        0.66168870940545
H            2.78014125892144       -1.13042316720803       -1.96036652035672
H            3.60423674732129       -3.20530791831651       -2.85754317299636

          :  Hamiltonian                  GFN2-xTB          :
         :: gradient norm              0.000059076736 Eh/a0 ::
         :: HOMO-LUMO gap              0.352024976212 eV    ::
         :: SCC energy               -95.215591177531 Eh    ::
         :: -> dispersion             -0.084634263899 Eh    ::
         :: -> Gsolv                  -0.038612232870 Eh    ::
         :: repulsion energy           1.777595957678 Eh    ::

    * Orbital Energies and Occupations

         #    Occupation            Energy/Eh            Energy/eV
      -------------------------------------------------------------
         1        2.0000           -0.6809972             -18.5309
       ...           ...                  ...                  ...
        77        2.0000           -0.4101918             -11.1619
        78        2.0000           -0.4078454             -11.0980
        79        2.0000           -0.4021445             -10.9429
        80        2.0000           -0.4017910             -10.9333
        81        2.0000           -0.3972740             -10.8104
        82        2.0000           -0.3961142             -10.7788
        83        2.0000           -0.3927155             -10.6863
        84        2.0000           -0.3849045             -10.4738
        85        2.0000           -0.3823088             -10.4032
        86        2.0000           -0.3777888             -10.2802
        87        1.9997           -0.3631242              -9.8811
        88        1.0003           -0.3479106              -9.4671
        89        0.9989           -0.2836196              -7.7177 (HOMO)
        90        0.0011           -0.2706828              -7.3657 (LUMO)
        91                         -0.2408287              -6.5533
        92                         -0.2366551              -6.4397
        93                         -0.2284650              -6.2168
        94                         -0.2200778              -5.9886
        95                         -0.2186306              -5.9492
        96                         -0.2141410              -5.8271
        97                         -0.2135433              -5.8108
        98                         -0.1927577              -5.2452
        99                         -0.1898125              -5.1651
       100                         -0.1703478              -4.6354
       ...                                ...                  ...
       176                          0.7187718              19.5588
      -------------------------------------------------------------
                  HL-Gap            0.0129368 Eh            0.3520 eV

     #   Z          covCN         q      C6AA      α(0)
     1   6 C        2.899    -0.034    28.840     8.805
     2   6 C        2.821    -0.104    30.612     9.066
     3   5 B        2.725     0.195    18.452     7.197
     4   6 C        2.887    -0.054    29.344     8.881
     5   6 C        2.974    -0.003    28.106     8.696
     6   6 C        2.981    -0.002    28.058     8.689
     7   6 C        2.923     0.042    27.064     8.531
     8   6 C        2.924    -0.046    29.148     8.854
     9   6 C        2.970    -0.008    28.224     8.714
    10   6 C        2.971     0.004    27.942     8.671
    11   6 C        2.925    -0.042    29.041     8.837
    12   6 C        2.916    -0.033    28.833     8.805
    13   6 C        2.919    -0.040    28.998     8.831
    14   6 C        2.917    -0.033    28.822     8.804
    15   6 C        2.923    -0.042    29.035     8.836
    16   6 C        2.916    -0.041    29.023     8.834
    17   6 C        2.864     0.002    27.985     8.671
    18   7 N        2.753     0.006    21.164     6.833
    19   6 C        2.931     0.046    26.962     8.516
    20   6 C        2.916    -0.058    29.445     8.898
    21   6 C        2.923    -0.036    28.893     8.815
    22   6 C        2.972    -0.001    28.037     8.685
    23   6 C        2.975     0.008    27.824     8.652
    24   6 C        2.924    -0.036    28.898     8.816
    25   6 C        2.918    -0.031    28.781     8.797
    26   6 C        2.919    -0.034    28.845     8.807
    27   6 C        2.918    -0.032    28.789     8.799
    28   6 C        2.925    -0.037    28.909     8.817
    29   6 C        2.928    -0.046    29.152     8.855
    30   6 C        2.981    -0.002    28.065     8.690
    31   6 C        2.977     0.006    27.885     8.662
    32   6 C        2.921    -0.033    28.827     8.805
    33   6 C        2.917    -0.030    28.756     8.794
    34   6 C        2.914    -0.032    28.794     8.799
    35   6 C        2.921    -0.027    28.685     8.783
    36   6 C        2.890    -0.066    29.652     8.928
    37   6 C        2.903    -0.040    28.985     8.828
    38   6 C        2.909    -0.027    28.669     8.780
    39   1 H        0.925     0.016     2.798     2.616
    40   1 H        0.925     0.014     2.821     2.627
    41   1 H        0.926     0.054     2.267     2.354
    42   1 H        0.926     0.027     2.633     2.537
    43   1 H        0.925     0.022     2.697     2.568
    44   1 H        0.926     0.021     2.719     2.579
    45   1 H        0.925     0.022     2.700     2.570
    46   1 H        0.926     0.025     2.655     2.548
    47   1 H        0.926     0.048     2.344     2.394
    48   1 H        0.926     0.054     2.276     2.359
    49   1 H        0.926     0.036     2.497     2.471
    50   1 H        0.926     0.035     2.513     2.479
    51   1 H        0.926     0.031     2.574     2.509
    52   1 H        0.926     0.028     2.609     2.526
    53   1 H        0.926     0.028     2.615     2.529
    54   1 H        0.926     0.029     2.606     2.524
    55   1 H        0.926     0.031     2.572     2.508
    56   1 H        0.926     0.042     2.418     2.432
    57   1 H        0.926     0.034     2.530     2.487
    58   1 H        0.926     0.030     2.589     2.516
    59   1 H        0.926     0.028     2.616     2.529
    60   1 H        0.926     0.034     2.527     2.486
    61   1 H        0.925     0.025     2.652     2.547
    62   1 H        0.925     0.027     2.634     2.538

molecular dipole:
                 x           y           z       tot (Debye)
 q only:        0.200       0.527       0.104
   full:        0.257       0.651       0.083       1.792

 projected vibrational frequencies (cm⁻¹)
eigval :       -0.00    -0.00    -0.00     0.00     0.00     0.00
eigval :       19.39    29.32    40.52    43.32    49.66    51.90
eigval :       60.75    73.49    82.03    98.63   112.20   125.87
eigval :      140.49   160.57   181.96   183.39   191.09   207.06
eigval :      226.66   256.75   271.64   297.32   306.31   329.32
eigval :      331.58   356.08   362.21   369.96   372.05   376.11
eigval :      396.80   402.82   412.04   423.10   431.54   450.31
eigval :      463.15   480.32   490.57   504.82   509.44   532.38
eigval :      545.17   566.99   574.52   578.44   586.87   592.13
eigval :      602.15   617.33   624.74   633.77   651.01   655.73
eigval :      658.77   670.26   671.41   686.74   701.99   709.76
eigval :      715.40   730.10   746.25   755.12   764.92   784.92
eigval :      796.76   808.99   841.09   851.61   859.74   862.30
eigval :      872.41   877.47   879.60   883.49   892.07   892.99
eigval :      898.80   903.19   919.48   922.90   923.83   924.33
eigval :      926.93   930.00   930.91   932.76   939.57   962.04
eigval :      974.64   981.71   986.92  1045.08  1055.32  1067.49
eigval :     1083.01  1084.21  1090.76  1098.67  1112.13  1120.67
eigval :     1123.74  1135.06  1158.17  1170.10  1175.65  1179.48
eigval :     1181.89  1182.11  1190.56  1194.86  1201.65  1206.68
eigval :     1216.93  1239.39  1242.67  1252.67  1259.53  1271.70
eigval :     1282.07  1285.73  1288.91  1295.12  1303.99  1311.61
eigval :     1318.01  1325.57  1326.29  1338.12  1341.83  1348.86
eigval :     1369.23  1373.24  1392.86  1395.01  1411.06  1422.31
eigval :     1431.69  1436.35  1443.49  1446.58  1449.51  1469.98
eigval :     1472.51  1483.82  1531.70  1537.80  1540.51  1549.93
eigval :     1552.67  1559.15  1575.00  1579.74  1594.97  1607.07
eigval :     3016.71  3034.99  3040.58  3057.11  3059.84  3060.73
eigval :     3063.38  3064.45  3065.09  3069.40  3075.13  3076.17
eigval :     3077.55  3078.27  3079.42  3082.75  3084.67  3086.38
eigval :     3086.73  3100.02  3107.06  3108.68  3125.57  3128.76

   temp. (K)  partition function   enthalpy   heat capacity  entropy
                                   cal/mol     cal/K/mol   cal/K/mol   J/K/mol
 298.15  VIB  0.346E+12            16686.779    111.033    101.170
         ROT  0.418E+08              888.752      2.981     37.854
         INT  0.144E+20            17575.531    114.014    139.024
         TR   0.102E+29             1481.254      4.968     44.382
         TOT                       19056.7850   118.9821   183.4067   767.3735

       T/K    H(0)-H(T)+PV         H(T)/Eh          T*S/Eh         G(T)/Eh
   ------------------------------------------------------------------------
    298.15    0.303689E-01    0.504155E+00    0.871424E-01    0.417012E+00
   ------------------------------------------------------------------------

         :::::::::::::::::::::::::::::::::::::::::::::::::::::
         ::                  THERMODYNAMIC                  ::
         :::::::::::::::::::::::::::::::::::::::::::::::::::::
         :: total free energy         -93.020982932542 Eh   ::
         ::.................................................::
         :: total energy              -93.437995218488 Eh   ::
         :: zero point energy           0.473785789971 Eh   ::
         :: G(RRHO) w/o ZPVE           -0.056773504025 Eh   ::
         :: G(RRHO) contrib.            0.417012285946 Eh   ::
         :::::::::::::::::::::::::::::::::::::::::::::::::::::

           -------------------------------------------------
          | TOTAL ENERGY              -93.437995218488 Eh   |
          | TOTAL ENTHALPY            -92.933840508511 Eh   |
          | TOTAL FREE ENERGY         -93.020982932542 Eh   |
          | GRADIENT NORM               0.000058005811 Eh/α |
          | HOMO-LUMO GAP               0.352027887493 eV   |
           -------------------------------------------------

 * finished run on 2025/09/10 at 13:21:19.293
