   * xtb version 6.7.1 (edcfbbe) compiled by 'albert@albert-system' on 2024-07-22

   ID    Z sym.   atoms
    1    6 C      1, 2, 4-17, 19-38
    2    5 B      3
    3    7 N      18
    4    1 H      39-62

          program call               : xtb data2507/toluene/BN-DBC-Ph2/BN-DBC-Ph2.xyz --gfn 2 --gbsa toluene --ohess vtight --parallel 40 --molden --ceasefiles --namespace data2507/toluene/BN-DBC-Ph2/BN-DBC-Ph2_toluene_S0_preOpt
      * Solvation model:               GBSA
        Solvent                        toluene
        Solvent mass                       9.2140E+01 g/mol
          :  Hamiltonian                  GFN2-xTB          :
 * total energy  :   -93.3744526 Eh     change       -0.4254630E-08 Eh
 * total energy  :   -93.4297959 Eh     change       -0.5534323E-01 Eh
 * total energy  :   -93.4522772 Eh     change       -0.2248134E-01 Eh
 * total energy  :   -93.4619883 Eh     change       -0.9711122E-02 Eh
 * total energy  :   -93.4677169 Eh     change       -0.5728563E-02 Eh
 * total energy  :   -93.4717300 Eh     change       -0.4013144E-02 Eh
 * total energy  :   -93.4747115 Eh     change       -0.2981453E-02 Eh
 * total energy  :   -93.4767866 Eh     change       -0.2075164E-02 Eh
 * total energy  :   -93.4780746 Eh     change       -0.1287942E-02 Eh
 * total energy  :   -93.4788877 Eh     change       -0.8131101E-03 Eh
 * total energy  :   -93.4849691 Eh     change       -0.6696417E-06 Eh
 * total energy  :   -93.4849697 Eh     change       -0.5843551E-06 Eh
 * total energy  :   -93.4849702 Eh     change       -0.5372305E-06 Eh
 * total energy  :   -93.4849708 Eh     change       -0.5395076E-06 Eh
 * total energy  :   -93.4849714 Eh     change       -0.5875125E-06 Eh
 * total energy  :   -93.4849720 Eh     change       -0.6491105E-06 Eh
 * total energy  :   -93.4849727 Eh     change       -0.6586315E-06 Eh
 * total energy  :   -93.4849733 Eh     change       -0.6042427E-06 Eh
 * total energy  :   -93.4849733 Eh     change       -0.3428838E-08 Eh
   *** GEOMETRY OPTIMIZATION CONVERGED AFTER 68 ITERATIONS ***

 final structure:
================
62
 xtb: 6.7.1 (edcfbbe)
C            2.88627619513151       -4.57229514929732       -0.22186836299908
C            1.58888789298935       -4.57841973234842       -0.64029137747911
B            0.69724259823527       -3.39111800506080       -0.31359129886034
C            1.39331552278046       -2.20303124730599        0.35214798282557
C            0.70438518348594       -0.97892329328237        0.39039417861849
C           -0.71829494663025       -0.93609257037350        0.29881910630644
C           -1.36980769345689        0.30411530857982        0.38892316139100
C           -2.71531086128619        0.51447706560198       -0.01207626807568
C           -3.42126615568380        1.63675918898816        0.32874541977661
C           -4.80407077205313        1.85468863797928       -0.10244452424965
C           -5.69419929266911        0.78654853101552       -0.21409152732321
C           -7.00276679629496        1.00124709620446       -0.60428493835513
C           -7.44268630485385        2.28190872636770       -0.89820757552242
C           -6.56494714474197        3.34926542428205       -0.79760340841804
C           -5.25813083620807        3.14007578856348       -0.39867200559596
C           -2.75332669983561        2.59438472302587        1.14436023562392
C           -1.42317313710946        2.46978492353596        1.35389183077743
N           -0.69793273986529        1.41482049890966        0.87825966672642
C            0.68829965686860        1.46956424042503        0.76954574712226
C            1.38800549660599        2.67495016195320        0.89023843306528
C            2.73556611159760        2.73793203309469        0.62510938338296
C            3.42411477970305        1.61487264439342        0.15515033411144
C            4.84328402137826        1.70214355670946       -0.21709637255452
C            5.71728088679265        0.65669392097288        0.07650897119117
C            7.05598423731974        0.74224663157707       -0.25833768396407
C            7.54436208779342        1.87031080617712       -0.89711213533611
C            6.68386837042901        2.91287824099454       -1.19965410931346
C            5.34565059885134        2.83145508417553       -0.86153573729146
C            2.73101658653255        0.42165083919422        0.04161826465040
C            1.38792830804696        0.29832028076784        0.41486558373782
C           -1.48302585078079       -2.16479509424725        0.13468485181179
C           -2.81798860699851       -2.26636751946851        0.55280928853768
C           -3.56261784016639       -3.39687328016776        0.29702461249124
C           -2.98487682877105       -4.47247046140726       -0.36816166005594
C           -1.63764323992793       -4.43756687205944       -0.65499600806197
C           -0.84415206847936       -3.31888425856015       -0.37806107656642
C            2.72382801594282       -2.36900502249812        0.80670645534062
C            3.42881094377266       -3.50666563307935        0.53571554076829
H            3.53882467918715       -5.42035458045468       -0.41479187006360
H            1.24353805615346       -5.47212698268897       -1.15279810314758
H           -3.15881523479333       -0.23387410477991       -0.64809523114567
H           -5.36604633142580       -0.21276980354625        0.02883851348237
H           -7.68389230699662        0.16580433666305       -0.67781959790984
H           -8.46533466521206        2.44715292513954       -1.20399099798700
H           -6.90157017083634        4.34901579824140       -1.03089733438102
H           -4.57642035431900        3.97565070295717       -0.34001234874935
H           -3.29257392901199        3.42401845378917        1.56862581843797
H           -0.88066792705033        3.20771957327958        1.92022822634307
H            0.88069567289237        3.58834782231854        1.15393973315731
H            3.25738411423604        3.67466285444568        0.74724356550435
H            5.34842729708179       -0.22033559170035        0.58763344627491
H            7.72170013279756       -0.07447801682453       -0.01810311418778
H            8.59042744224239        1.93593677952930       -1.15872234028323
H            7.05778945661894        3.79272347448492       -1.70350125349664
H            4.67885604168931        3.64135690436437       -1.11935178129642
H            3.22244853507011       -0.43497099269101       -0.39085536535138
H           -3.26274007568289       -1.47241917553342        1.13649850268903
H           -4.59147358934581       -3.45356963961061        0.62591380174797
H           -3.57580452203802       -5.34831151233223       -0.60017270774443
H           -1.16396361654550       -5.31112573248375       -1.08108333800726
H            3.17253948661098       -1.61830171377812        1.45030555072875
H            4.43478813023500       -3.61833799309227        0.92353124714363

          :  Hamiltonian                  GFN2-xTB          :
         :: gradient norm              0.000061466769 Eh/a0 ::
         :: HOMO-LUMO gap              1.132839845893 eV    ::
         :: SCC energy               -95.273886859830 Eh    ::
         :: -> dispersion             -0.086543929341 Eh    ::
         :: -> Gsolv                  -0.043479258181 Eh    ::
         :: repulsion energy           1.788913587593 Eh    ::

    * Orbital Energies and Occupations

         #    Occupation            Energy/Eh            Energy/eV
      -------------------------------------------------------------
         1        2.0000           -0.6972017             -18.9718
       ...           ...                  ...                  ...
        76        2.0000           -0.4112928             -11.1918
        77        2.0000           -0.4102035             -11.1622
        78        2.0000           -0.4088449             -11.1252
        79        2.0000           -0.4068306             -11.0704
        80        2.0000           -0.4049106             -11.0182
        81        2.0000           -0.4006680             -10.9027
        82        2.0000           -0.3898585             -10.6086
        83        2.0000           -0.3866047             -10.5200
        84        2.0000           -0.3790455             -10.3144
        85        2.0000           -0.3652144              -9.9380
        86        2.0000           -0.3627274              -9.8703
        87        2.0000           -0.3501387              -9.5278
        88        2.0000           -0.3313404              -9.0162 (HOMO)
        89                         -0.2897092              -7.8834 (LUMO)
        90                         -0.2717391              -7.3944
        91                         -0.2453971              -6.6776
        92                         -0.2385617              -6.4916
        93                         -0.2279900              -6.2039
        94                         -0.2251807              -6.1275
        95                         -0.2229869              -6.0678
        96                         -0.2176393              -5.9223
        97                         -0.2141088              -5.8262
        98                         -0.1963680              -5.3434
        99                         -0.1842549              -5.0138
       ...                                ...                  ...
       176                          0.7369429              20.0532
      -------------------------------------------------------------
                  HL-Gap            0.0416311 Eh            1.1328 eV

     #   Z          covCN         q      C6AA      α(0)
     1   6 C        2.902    -0.036    28.905     8.815
     2   6 C        2.821    -0.123    31.120     9.141
     3   5 B        2.731     0.172    18.774     7.258
     4   6 C        2.888    -0.087    30.189     9.008
     5   6 C        2.973     0.006    27.895     8.663
     6   6 C        2.973    -0.028    28.690     8.786
     7   6 C        2.934     0.059    26.684     8.472
     8   6 C        2.926    -0.044    29.081     8.844
     9   6 C        2.975     0.023    27.482     8.599
    10   6 C        2.976     0.011    27.777     8.645
    11   6 C        2.924    -0.032    28.801     8.801
    12   6 C        2.918    -0.028    28.696     8.784
    13   6 C        2.920    -0.028    28.696     8.785
    14   6 C        2.918    -0.029    28.714     8.787
    15   6 C        2.925    -0.032    28.809     8.802
    16   6 C        2.919    -0.046    29.144     8.853
    17   6 C        2.873     0.013    27.717     8.630
    18   7 N        2.757     0.036    20.621     6.744
    19   6 C        2.936     0.042    27.051     8.530
    20   6 C        2.916    -0.050    29.234     8.866
    21   6 C        2.924    -0.034    28.842     8.807
    22   6 C        2.973     0.009    27.820     8.652
    23   6 C        2.976     0.010    27.800     8.649
    24   6 C        2.925    -0.033    28.825     8.805
    25   6 C        2.918    -0.030    28.741     8.791
    26   6 C        2.920    -0.031    28.776     8.797
    27   6 C        2.918    -0.030    28.760     8.794
    28   6 C        2.925    -0.035    28.864     8.810
    29   6 C        2.930    -0.036    28.905     8.817
    30   6 C        2.979     0.005    27.914     8.667
    31   6 C        2.978    -0.000    28.030     8.684
    32   6 C        2.920    -0.045    29.128     8.850
    33   6 C        2.918    -0.039    28.974     8.827
    34   6 C        2.914    -0.039    28.972     8.826
    35   6 C        2.922    -0.035    28.878     8.813
    36   6 C        2.892    -0.072    29.782     8.947
    37   6 C        2.904    -0.043    29.066     8.840
    38   6 C        2.908    -0.059    29.463     8.900
    39   1 H        0.925    -0.011     3.259     2.823
    40   1 H        0.925    -0.016     3.344     2.860
    41   1 H        0.926     0.068     2.107     2.270
    42   1 H        0.926     0.039     2.463     2.454
    43   1 H        0.926     0.035     2.515     2.480
    44   1 H        0.926     0.035     2.513     2.479
    45   1 H        0.926     0.037     2.495     2.470
    46   1 H        0.926     0.041     2.433     2.439
    47   1 H        0.926     0.065     2.142     2.289
    48   1 H        0.926     0.072     2.065     2.247
    49   1 H        0.926     0.049     2.328     2.386
    50   1 H        0.926     0.046     2.365     2.405
    51   1 H        0.926     0.033     2.548     2.496
    52   1 H        0.926     0.030     2.580     2.512
    53   1 H        0.926     0.032     2.564     2.504
    54   1 H        0.926     0.033     2.544     2.494
    55   1 H        0.926     0.036     2.503     2.474
    56   1 H        0.926     0.053     2.280     2.361
    57   1 H        0.926     0.022     2.696     2.568
    58   1 H        0.925     0.015     2.804     2.618
    59   1 H        0.925     0.012     2.854     2.642
    60   1 H        0.925     0.016     2.789     2.611
    61   1 H        0.925     0.002     3.031     2.723
    62   1 H        0.925    -0.006     3.156     2.778

molecular dipole:
                 x           y           z       tot (Debye)
 q only:       -1.660       4.044       0.378
   full:       -1.585       3.998       0.471      10.998

 projected vibrational frequencies (cm⁻¹)
eigval :       -0.00    -0.00    -0.00     0.00     0.00     0.00
eigval :       19.92    26.29    39.78    45.71    48.34    54.16
eigval :       64.15    81.26    93.60   103.21   107.08   123.99
eigval :      146.31   171.43   190.26   196.85   209.25   217.75
eigval :      230.89   265.74   277.61   318.48   322.31   327.06
eigval :      333.51   361.76   369.45   372.07   373.88   380.63
eigval :      403.32   414.07   434.64   438.69   448.44   474.77
eigval :      485.04   490.49   506.89   515.93   518.61   553.84
eigval :      568.11   570.27   583.69   586.61   588.80   603.96
eigval :      612.24   630.09   643.57   651.93   661.90   667.33
eigval :      673.71   675.48   676.58   699.28   715.19   724.75
eigval :      733.51   745.32   757.57   759.44   774.01   801.36
eigval :      805.66   810.74   848.19   860.66   862.48   873.13
eigval :      877.68   881.34   883.37   894.24   898.52   901.58
eigval :      905.99   907.94   921.13   929.75   929.99   930.82
eigval :      933.35   939.25   941.39   964.30   966.85   969.52
eigval :      983.35   988.12   993.15  1051.54  1061.37  1075.88
eigval :     1083.86  1085.02  1095.64  1103.50  1120.30  1123.49
eigval :     1125.13  1145.51  1161.26  1177.20  1181.10  1183.32
eigval :     1184.17  1197.30  1198.39  1203.69  1207.72  1225.23
eigval :     1226.84  1238.44  1244.80  1258.03  1275.70  1277.91
eigval :     1280.01  1283.50  1283.73  1295.66  1302.28  1315.84
eigval :     1316.73  1319.40  1329.28  1343.47  1357.96  1369.11
eigval :     1398.81  1408.04  1415.43  1416.99  1426.35  1430.90
eigval :     1433.97  1434.73  1449.84  1463.63  1476.23  1486.86
eigval :     1501.73  1511.05  1540.10  1543.72  1575.06  1576.69
eigval :     1580.78  1581.87  1585.43  1589.35  1598.80  1603.67
eigval :     2976.56  2991.53  2996.15  3031.92  3047.66  3053.07
eigval :     3062.66  3067.59  3070.11  3071.37  3072.06  3074.32
eigval :     3079.24  3083.14  3083.84  3088.70  3090.38  3091.48
eigval :     3094.62  3107.23  3108.05  3113.22  3117.81  3128.04

   temp. (K)  partition function   enthalpy   heat capacity  entropy
                                   cal/mol     cal/K/mol   cal/K/mol   J/K/mol
 298.15  VIB  0.169E+12            16316.921    109.441     98.640
         ROT  0.414E+08              888.752      2.981     37.837
         INT  0.702E+19            17205.673    112.421    136.477
         TR   0.102E+29             1481.254      4.968     44.382
         TOT                       18686.9272   117.3896   180.8593   756.7153

       T/K    H(0)-H(T)+PV         H(T)/Eh          T*S/Eh         G(T)/Eh
   ------------------------------------------------------------------------
    298.15    0.297795E-01    0.506611E+00    0.859321E-01    0.420679E+00
   ------------------------------------------------------------------------

         :::::::::::::::::::::::::::::::::::::::::::::::::::::
         ::                  THERMODYNAMIC                  ::
         :::::::::::::::::::::::::::::::::::::::::::::::::::::
         :: total free energy         -93.064294718831 Eh   ::
         ::.................................................::
         :: total energy              -93.484973273031 Eh   ::
         :: zero point energy           0.476831133558 Eh   ::
         :: G(RRHO) w/o ZPVE           -0.056152579357 Eh   ::
         :: G(RRHO) contrib.            0.420678554201 Eh   ::
         :::::::::::::::::::::::::::::::::::::::::::::::::::::

           -------------------------------------------------
          | TOTAL ENERGY              -93.484973273031 Eh   |
          | TOTAL ENTHALPY            -92.978362625458 Eh   |
          | TOTAL FREE ENERGY         -93.064294718831 Eh   |
          | GRADIENT NORM               0.000061463787 Eh/α |
          | HOMO-LUMO GAP               1.132840964422 eV   |
           -------------------------------------------------

 * finished run on 2025/09/10 at 13:15:36.935
