   * xtb version 6.7.1 (edcfbbe) compiled by 'albert@albert-system' on 2024-07-22

   ID    Z sym.   atoms
    1    6 C      1, 2, 4-17, 19-38
    2    5 B      3
    3    7 N      18
    4    1 H      39-62

          program call               : xtb data2507/toluene/BN-DBC-Ph2/BN-DBC-Ph2_toluene_S0_crest.xyz --gfn 2 --gbsa toluene --ohess vtight --parallel 40 --molden --ceasefiles --namespace data2507/toluene/BN-DBC-Ph2/BN-DBC-Ph2_toluene_S0_finalOpt
      * Solvation model:               GBSA
        Solvent                        toluene
        Solvent mass                       9.2140E+01 g/mol
          :  Hamiltonian                  GFN2-xTB          :
 * total energy  :   -93.4848558 Eh     change       -0.8839010E-09 Eh
 * total energy  :   -93.4849368 Eh     change       -0.8100929E-04 Eh
 * total energy  :   -93.4849666 Eh     change       -0.2985737E-04 Eh
 * total energy  :   -93.4849771 Eh     change       -0.1042785E-04 Eh
 * total energy  :   -93.4849850 Eh     change       -0.7942257E-05 Eh
 * total energy  :   -93.4849913 Eh     change       -0.6264422E-05 Eh
 * total energy  :   -93.4849936 Eh     change       -0.2374708E-05 Eh
 * total energy  :   -93.4849952 Eh     change       -0.1565987E-05 Eh
 * total energy  :   -93.4849969 Eh     change       -0.1664051E-05 Eh
 * total energy  :   -93.4849985 Eh     change       -0.1597088E-05 Eh
 * total energy  :   -93.4849995 Eh     change       -0.1082861E-05 Eh
 * total energy  :   -93.4850000 Eh     change       -0.4241259E-06 Eh
 * total energy  :   -93.4850002 Eh     change       -0.1916865E-06 Eh
 * total energy  :   -93.4850003 Eh     change       -0.1335045E-06 Eh
 * total energy  :   -93.4850003 Eh     change       -0.3767909E-08 Eh
   *** GEOMETRY OPTIMIZATION CONVERGED AFTER 15 ITERATIONS ***

 final structure:
================
62
 xtb: 6.7.1 (edcfbbe)
C            3.02073366492135       -4.48632105047200       -0.21399130221452
C            1.72389877197827       -4.53153730806264       -0.63162054742506
B            0.80025161143540       -3.36621311259358       -0.31464992190548
C            1.46313484470356       -2.15435612869138        0.34223272696380
C            0.73962425113537       -0.95037535550296        0.37638454911103
C           -0.68339192954838       -0.94766600486767        0.28202225016357
C           -1.36878436690328        0.27463086355482        0.36694444681818
C           -2.71429897223050        0.45043893432680       -0.04913311260275
C           -3.45129845842987        1.55641290584971        0.27954480007811
C           -4.82916436701182        1.74451792147930       -0.18000095459229
C           -5.69034479785705        0.65655107528123       -0.32344686096867
C           -6.99221127521299        0.84298058175070       -0.74890775918231
C           -7.45447969202698        2.11498922001423       -1.04605331821611
C           -6.60601698954792        3.20221196181829       -0.91248507537413
C           -5.30611820156536        3.02110256349752       -0.47881968579844
C           -2.81815733744117        2.52880622624883        1.10563347491387
C           -1.48811287431702        2.43711625355130        1.33204367384680
N           -0.73061927866351        1.40240359174216        0.86212989003194
C            0.65379729846208        1.49621254796237        0.75750287046304
C            1.31915367412066        2.72046846371851        0.88173416186977
C            2.66264357654963        2.82348302016741        0.60869294873682
C            3.38022520911376        1.72302978853660        0.12872911164214
C            4.79100296078386        1.85553967455330       -0.26150164126107
C            5.70162025901704        0.83739002457478        0.01603758191224
C            7.03134796612362        0.96487042825687       -0.34058635046508
C            7.47401863135029        2.10820014861808       -0.98549851026461
C            6.57691992415868        3.12423351080715       -1.27149695375673
C            5.24768663566737        3.00105127590572       -0.91138584262643
C            2.72289802419356        0.50934050103016        0.01913221975612
C            1.38605633953334        0.34622855270564        0.39908639347576
C           -1.41432104761034       -2.19668263795301        0.11937019645009
C           -2.74885430616419       -2.33049863366111        0.53009992570512
C           -3.46182373994943       -3.48194126930821        0.27783784295281
C           -2.85192602725599       -4.54646537784662       -0.37637706254450
C           -1.50458795529440       -4.47763989268879       -0.65646047249704
C           -0.74247191803817       -3.33648489072483       -0.38301089533044
C            2.79863137383435       -2.27928565643383        0.79559002522108
C            3.53452796853147       -3.39917069966809        0.53301401890190
H            3.69636577689900       -5.31763628311638       -0.40004626609391
H            1.40307328883662       -5.43875842452940       -1.13625372527014
H           -3.13101930882720       -0.30966273795754       -0.68933836770766
H           -5.34541221378845       -0.33666317686870       -0.07876414175330
H           -7.65040860578234       -0.00807081627664       -0.84790158500945
H           -8.47180728767511        2.25825728709778       -1.37943517443805
H           -6.96001597099439        4.19550482219671       -1.14768613510926
H           -4.64691140279118        3.87250870130501       -0.39569383685443
H           -3.38302395720023        3.34411505957225        1.52422203679173
H           -0.97117401346278        3.18737535379086        1.90612346903359
H            0.78729130373639        3.61751131595642        1.15306831662052
H            3.15792303751781        3.77442142219341        0.73148961826729
H            5.36832019480965       -0.05146272429341        0.53117981573465
H            7.72568916326137        0.16861169830513       -0.11308671769697
H            8.51291436651577        2.20623727073741       -1.26491772995801
H            6.91505784250011        4.01581476656484       -1.77996151304800
H            4.55223266450758        3.79058644347928       -1.15633529685907
H            3.23699438390895       -0.33208920606268       -0.41686706180220
H           -3.21844117112205       -1.54435755080064        1.10483123491876
H           -4.49082243142158       -3.56338504883584        0.60104283544893
H           -3.41810824170560       -5.43932724807003       -0.60513956560340
H           -1.00558079520147       -5.34116509346084       -1.07394872850548
H            3.22788017568712       -1.51069696288541        1.43127051069871
H            4.54383302234654       -3.47945155981826        0.91998874250667

          :  Hamiltonian                  GFN2-xTB          :
         :: gradient norm              0.000127550325 Eh/a0 ::
         :: HOMO-LUMO gap              1.128753584184 eV    ::
         :: SCC energy               -95.273982440369 Eh    ::
         :: -> dispersion             -0.086506916759 Eh    ::
         :: -> Gsolv                  -0.043503777593 Eh    ::
         :: repulsion energy           1.788982144062 Eh    ::

    * Orbital Energies and Occupations

         #    Occupation            Energy/Eh            Energy/eV
      -------------------------------------------------------------
         1        2.0000           -0.6972264             -18.9725
       ...           ...                  ...                  ...
        76        2.0000           -0.4112801             -11.1915
        77        2.0000           -0.4102216             -11.1627
        78        2.0000           -0.4088221             -11.1246
        79        2.0000           -0.4068451             -11.0708
        80        2.0000           -0.4049088             -11.0181
        81        2.0000           -0.4006901             -10.9033
        82        2.0000           -0.3898297             -10.6078
        83        2.0000           -0.3866145             -10.5203
        84        2.0000           -0.3790957             -10.3157
        85        2.0000           -0.3651648              -9.9366
        86        2.0000           -0.3626608              -9.8685
        87        2.0000           -0.3501956              -9.5293
        88        2.0000           -0.3313836              -9.0174 (HOMO)
        89                         -0.2899025              -7.8886 (LUMO)
        90                         -0.2716637              -7.3923
        91                         -0.2453965              -6.6776
        92                         -0.2386140              -6.4930
        93                         -0.2279973              -6.2041
        94                         -0.2251672              -6.1271
        95                         -0.2229826              -6.0677
        96                         -0.2176808              -5.9234
        97                         -0.2140870              -5.8256
        98                         -0.1964073              -5.3445
        99                         -0.1841674              -5.0114
       ...                                ...                  ...
       176                          0.7370485              20.0561
      -------------------------------------------------------------
                  HL-Gap            0.0414811 Eh            1.1288 eV

     #   Z          covCN         q      C6AA      α(0)
     1   6 C        2.902    -0.036    28.905     8.815
     2   6 C        2.821    -0.123    31.119     9.140
     3   5 B        2.731     0.172    18.776     7.258
     4   6 C        2.888    -0.087    30.189     9.008
     5   6 C        2.973     0.005    27.895     8.663
     6   6 C        2.973    -0.028    28.690     8.786
     7   6 C        2.935     0.059    26.684     8.472
     8   6 C        2.926    -0.043    29.080     8.843
     9   6 C        2.975     0.023    27.482     8.599
    10   6 C        2.976     0.011    27.776     8.645
    11   6 C        2.924    -0.032    28.802     8.801
    12   6 C        2.918    -0.028    28.696     8.784
    13   6 C        2.920    -0.028    28.695     8.784
    14   6 C        2.918    -0.029    28.714     8.787
    15   6 C        2.925    -0.032    28.809     8.802
    16   6 C        2.919    -0.046    29.142     8.853
    17   6 C        2.873     0.013    27.716     8.630
    18   7 N        2.758     0.036    20.624     6.745
    19   6 C        2.937     0.042    27.049     8.530
    20   6 C        2.916    -0.050    29.233     8.866
    21   6 C        2.924    -0.034    28.842     8.807
    22   6 C        2.973     0.009    27.821     8.652
    23   6 C        2.976     0.010    27.800     8.649
    24   6 C        2.925    -0.033    28.826     8.805
    25   6 C        2.918    -0.030    28.741     8.791
    26   6 C        2.920    -0.031    28.776     8.797
    27   6 C        2.918    -0.030    28.760     8.794
    28   6 C        2.925    -0.035    28.864     8.811
    29   6 C        2.930    -0.036    28.903     8.817
    30   6 C        2.979     0.005    27.915     8.667
    31   6 C        2.978    -0.000    28.030     8.684
    32   6 C        2.920    -0.045    29.128     8.850
    33   6 C        2.918    -0.039    28.973     8.827
    34   6 C        2.914    -0.039    28.972     8.826
    35   6 C        2.922    -0.035    28.878     8.812
    36   6 C        2.891    -0.072    29.782     8.947
    37   6 C        2.904    -0.043    29.068     8.840
    38   6 C        2.908    -0.059    29.461     8.900
    39   1 H        0.925    -0.011     3.260     2.823
    40   1 H        0.925    -0.016     3.344     2.860
    41   1 H        0.926     0.068     2.107     2.270
    42   1 H        0.926     0.039     2.462     2.454
    43   1 H        0.926     0.035     2.515     2.480
    44   1 H        0.926     0.035     2.513     2.479
    45   1 H        0.926     0.037     2.494     2.470
    46   1 H        0.926     0.041     2.432     2.439
    47   1 H        0.926     0.065     2.141     2.288
    48   1 H        0.926     0.072     2.065     2.247
    49   1 H        0.926     0.049     2.328     2.386
    50   1 H        0.926     0.046     2.365     2.405
    51   1 H        0.926     0.033     2.548     2.496
    52   1 H        0.926     0.030     2.580     2.512
    53   1 H        0.926     0.032     2.564     2.504
    54   1 H        0.926     0.033     2.544     2.494
    55   1 H        0.926     0.036     2.503     2.474
    56   1 H        0.926     0.053     2.282     2.362
    57   1 H        0.926     0.022     2.696     2.568
    58   1 H        0.925     0.015     2.803     2.618
    59   1 H        0.925     0.012     2.853     2.642
    60   1 H        0.926     0.016     2.788     2.611
    61   1 H        0.925     0.002     3.031     2.723
    62   1 H        0.925    -0.006     3.156     2.778

molecular dipole:
                 x           y           z       tot (Debye)
 q only:       -1.777       4.002       0.351
   full:       -1.701       3.960       0.443      11.011

 projected vibrational frequencies (cm⁻¹)
eigval :       -0.00    -0.00    -0.00     0.00     0.00     0.00
eigval :       14.78    26.29    36.30    41.61    43.65    51.15
eigval :       60.51    80.44    93.64   103.49   106.44   122.75
eigval :      146.42   171.46   190.74   195.94   209.27   218.09
eigval :      230.91   265.43   276.98   318.61   322.34   327.03
eigval :      333.51   361.67   369.70   370.49   373.30   380.63
eigval :      403.22   413.85   434.27   438.09   447.70   474.52
eigval :      484.50   489.88   506.86   516.03   518.63   553.85
eigval :      568.14   570.35   583.67   586.58   588.51   604.07
eigval :      612.61   630.20   643.44   651.85   661.76   666.76
eigval :      672.97   674.86   676.34   699.18   715.22   724.97
eigval :      733.38   747.06   753.62   756.72   777.70   802.11
eigval :      808.15   814.76   848.42   860.62   862.60   872.88
eigval :      875.67   883.61   886.33   898.32   899.05   900.97
eigval :      901.32   907.22   922.58   928.80   929.13   930.27
eigval :      930.74   931.62   945.18   963.14   966.74   969.20
eigval :      982.98   987.81   993.43  1051.56  1061.56  1075.52
eigval :     1083.28  1084.38  1094.99  1102.96  1120.32  1122.77
eigval :     1125.27  1145.70  1161.60  1177.00  1181.05  1182.75
eigval :     1184.55  1197.20  1198.41  1202.27  1207.70  1225.30
eigval :     1226.86  1238.56  1244.88  1256.90  1275.39  1277.89
eigval :     1279.41  1282.40  1283.72  1295.80  1302.15  1315.89
eigval :     1316.71  1319.40  1329.50  1343.61  1358.21  1369.63
eigval :     1398.89  1408.33  1415.51  1416.94  1426.56  1430.84
eigval :     1433.54  1434.62  1449.85  1463.33  1476.12  1486.37
eigval :     1501.77  1511.03  1540.21  1543.77  1574.90  1576.39
eigval :     1580.80  1581.79  1585.60  1589.14  1598.50  1603.68
eigval :     2976.68  2991.29  2996.15  3031.67  3047.83  3053.49
eigval :     3062.75  3067.96  3070.10  3071.22  3071.47  3073.96
eigval :     3078.88  3082.84  3083.45  3088.28  3090.19  3091.64
eigval :     3094.22  3107.13  3108.03  3113.04  3118.03  3128.58

   temp. (K)  partition function   enthalpy   heat capacity  entropy
                                   cal/mol     cal/K/mol   cal/K/mol   J/K/mol
 298.15  VIB  0.330E+12            16356.172    109.091     99.053
         ROT  0.415E+08              888.752      2.981     37.838
         INT  0.137E+20            17244.924    112.071    136.891
         TR   0.102E+29             1481.254      4.968     44.382
         TOT                       18726.1782   117.0396   181.2736   758.4486

       T/K    H(0)-H(T)+PV         H(T)/Eh          T*S/Eh         G(T)/Eh
   ------------------------------------------------------------------------
    298.15    0.298421E-01    0.506569E+00    0.861289E-01    0.420440E+00
   ------------------------------------------------------------------------

         :::::::::::::::::::::::::::::::::::::::::::::::::::::
         ::                  THERMODYNAMIC                  ::
         :::::::::::::::::::::::::::::::::::::::::::::::::::::
         :: total free energy         -93.064560071927 Eh   ::
         ::.................................................::
         :: total energy              -93.485000296176 Eh   ::
         :: zero point energy           0.476727084018 Eh   ::
         :: G(RRHO) w/o ZPVE           -0.056286859769 Eh   ::
         :: G(RRHO) contrib.            0.420440224249 Eh   ::
         :::::::::::::::::::::::::::::::::::::::::::::::::::::

           -------------------------------------------------
          | TOTAL ENERGY              -93.485000296176 Eh   |
          | TOTAL ENTHALPY            -92.978431147699 Eh   |
          | TOTAL FREE ENERGY         -93.064560071927 Eh   |
          | GRADIENT NORM               0.000127662737 Eh/α |
          | HOMO-LUMO GAP               1.128759276007 eV   |
           -------------------------------------------------

 * finished run on 2025/09/10 at 13:18:23.256
