   * xtb version 6.7.1 (edcfbbe) compiled by 'albert@albert-system' on 2024-07-22

   ID    Z sym.   atoms
    1    6 C      1, 2, 4-17, 19-38
    2    5 B      3
    3    7 N      18
    4    1 H      39-62

          program call               : xtb data2507/toluene/BN-DBC-Ph2/BN-DBC-Ph2_toluene_S0_finalOpt.xtbopt.xyz --gfn 2 --uhf 2 --gbsa toluene --ohess vtight --parallel 40 --molden --ceasefiles --namespace data2507/toluene/BN-DBC-Ph2/BN-DBC-Ph2_toluene_T1_preOpt
      * Solvation model:               GBSA
        Solvent                        toluene
        Solvent mass                       9.2140E+01 g/mol
          :  Hamiltonian                  GFN2-xTB          :
 * total energy  :   -93.4289369 Eh     change       -0.7403287E-09 Eh
 * total energy  :   -93.4321564 Eh     change       -0.3219463E-02 Eh
 * total energy  :   -93.4338419 Eh     change       -0.1685463E-02 Eh
 * total energy  :   -93.4341804 Eh     change       -0.3385141E-03 Eh
 * total energy  :   -93.4344419 Eh     change       -0.2615270E-03 Eh
 * total energy  :   -93.4345589 Eh     change       -0.1169598E-03 Eh
 * total energy  :   -93.4346583 Eh     change       -0.9946715E-04 Eh
 * total energy  :   -93.4347408 Eh     change       -0.8242806E-04 Eh
 * total energy  :   -93.4348112 Eh     change       -0.7041326E-04 Eh
 * total energy  :   -93.4348764 Eh     change       -0.6523419E-04 Eh
 * total energy  :   -93.4352225 Eh     change       -0.1093054E-05 Eh
 * total energy  :   -93.4352237 Eh     change       -0.1187184E-05 Eh
 * total energy  :   -93.4352249 Eh     change       -0.1275337E-05 Eh
 * total energy  :   -93.4352262 Eh     change       -0.1271027E-05 Eh
 * total energy  :   -93.4352273 Eh     change       -0.1128566E-05 Eh
 * total energy  :   -93.4352282 Eh     change       -0.9057881E-06 Eh
 * total energy  :   -93.4352289 Eh     change       -0.6571358E-06 Eh
 * total energy  :   -93.4352294 Eh     change       -0.4967482E-06 Eh
 * total energy  :   -93.4352294 Eh     change       -0.3755105E-08 Eh
   *** GEOMETRY OPTIMIZATION CONVERGED AFTER 44 ITERATIONS ***

 final structure:
================
62
 xtb: 6.7.1 (edcfbbe)
C            2.95929526684125       -4.59988973253640       -0.28370085626721
C            1.67708432809970       -4.61169559962737       -0.74749487820838
B            0.77313411336386       -3.41116328225041       -0.43852321452673
C            1.47351666181039       -2.17093247580467        0.16777786216568
C            0.73418216378641       -0.95115741616583        0.26054449487505
C           -0.65736701003135       -0.98686663934026        0.26206156885197
C           -1.38508003656077        0.24799909822206        0.36919381835478
C           -2.68955494054565        0.42159420834187       -0.04981092610538
C           -3.43796980037041        1.57090656591117        0.24134993700581
C           -4.78418412514799        1.78003600334625       -0.24401179756642
C           -5.60241257560548        0.71313027379761       -0.64662176807835
C           -6.88687100721009        0.93034257167248       -1.09909211632615
C           -7.40230791086016        2.21618011377546       -1.17038129894063
C           -6.60770221123431        3.28511155404191       -0.78345478455374
C           -5.32310256054276        3.07372913844428       -0.32857496132907
C           -2.80246707471411        2.49352353503576        1.12219710817414
C           -1.49767293277686        2.36378511829194        1.44370113939839
N           -0.71079157313769        1.34804898199636        0.92509968382767
C            0.65220100427821        1.46343860372367        0.78641372553854
C            1.32272203376683        2.67460954530062        1.00027639483120
C            2.66062548131310        2.80376258389389        0.69378090875570
C            3.37371194674147        1.75113431712258        0.12233697879551
C            4.77663887927695        1.91157953898571       -0.27369036290912
C            5.69164501994979        0.87180024300121       -0.10476872503387
C            7.01581947533457        1.02804975396602       -0.46817163998588
C            7.45409985238113        2.22396781886198       -1.01326142625703
C            6.55504962482043        3.26307580195171       -1.19164724740434
C            5.23129811006569        3.11009153277197       -0.82509231898203
C            2.71337629729664        0.53436558659090       -0.05533768476919
C            1.39203295440261        0.34798685709788        0.32997583008219
C           -1.39082655256602       -2.24983454055438        0.20480335960542
C           -2.69143915171316       -2.36098630188915        0.70205360439793
C           -3.42451229087256       -3.52350498873395        0.53550397833727
C           -2.86881407710770       -4.60453744862973       -0.13056173291482
C           -1.54535921177744       -4.54462273693586       -0.52731938500096
C           -0.76504354179310       -3.40135451804884       -0.33385839501251
C            2.76646568168515       -2.33746576482764        0.66778960904570
C            3.47409066969769       -3.50409859663423        0.44674696413239
H            3.62047377172028       -5.44421843864219       -0.44255445599174
H            1.34457164204971       -5.49896576662705       -1.27233968341452
H           -3.12818437329186       -0.36426046667715       -0.64219167538568
H           -5.23707456624787       -0.30065807109423       -0.58022759320660
H           -7.49842238156624        0.08899913223977       -1.39514618680945
H           -8.40925298131708        2.38282045042184       -1.52428878003080
H           -6.99530546396285        4.29297118567701       -0.84307260100395
H           -4.71433792552632        3.92429436342158       -0.05906406405190
H           -3.37179580101419        3.29241823120527        1.56943321829357
H           -1.01432713384213        3.03694315071002        2.13208300106955
H            0.79350110027447        3.53860537730902        1.36715285889518
H            3.15392786448510        3.74555480162657        0.88345820657258
H            5.36624753098044       -0.05931748758077        0.33523496063916
H            7.71181472120091        0.21376989173629       -0.32323847072633
H            8.48914373983743        2.34532572155738       -1.29806308381180
H            6.88820604442050        4.19688132697223       -1.62234833186160
H            4.53492607023497        3.92023345553350       -0.98711000227494
H            3.23332147531037       -0.27404604899623       -0.54418006926239
H           -3.12889402494946       -1.54549167099202        1.25940598418932
H           -4.42862387750357       -3.58479174901881        0.93083153236121
H           -3.44828885826635       -5.50279063189179       -0.28929469079079
H           -1.08812197167859       -5.41332142049869       -0.97819715498786
H            3.22906654717060       -1.56139236354774        1.26518171646972
H            4.47995319726511       -3.58392075627841        0.83847760707776

          :  Hamiltonian                  GFN2-xTB          :
         :: gradient norm              0.000049183249 Eh/a0 ::
         :: HOMO-LUMO gap              0.473171153078 eV    ::
         :: SCC energy               -95.212041859090 Eh    ::
         :: -> dispersion             -0.086028109732 Eh    ::
         :: -> Gsolv                  -0.038016933985 Eh    ::
         :: repulsion energy           1.776812460313 Eh    ::

    * Orbital Energies and Occupations

         #    Occupation            Energy/Eh            Energy/eV
      -------------------------------------------------------------
         1        2.0000           -0.6778854             -18.4462
       ...           ...                  ...                  ...
        77        2.0000           -0.4081955             -11.1076
        78        2.0000           -0.4062927             -11.0558
        79        2.0000           -0.4031732             -10.9709
        80        2.0000           -0.4015516             -10.9268
        81        2.0000           -0.3989824             -10.8569
        82        2.0000           -0.3963002             -10.7839
        83        2.0000           -0.3923531             -10.6765
        84        2.0000           -0.3868922             -10.5279
        85        2.0000           -0.3852432             -10.4830
        86        2.0000           -0.3740585             -10.1787
        87        1.9994           -0.3646826              -9.9235
        88        1.0006           -0.3504290              -9.5357
        89        0.9999           -0.2858941              -7.7796 (HOMO)
        90        0.0001           -0.2685054              -7.3064 (LUMO)
        91                         -0.2392310              -6.5098
        92                         -0.2380240              -6.4770
        93                         -0.2275141              -6.1910
        94                         -0.2202806              -5.9941
        95                         -0.2193952              -5.9700
        96                         -0.2143770              -5.8335
        97                         -0.2131292              -5.7995
        98                         -0.1969924              -5.3604
        99                         -0.1893083              -5.1513
       100                         -0.1732872              -4.7154
       ...                                ...                  ...
       176                          0.7173326              19.5196
      -------------------------------------------------------------
                  HL-Gap            0.0173887 Eh            0.4732 eV

     #   Z          covCN         q      C6AA      α(0)
     1   6 C        2.899    -0.033    28.811     8.801
     2   6 C        2.821    -0.098    30.466     9.044
     3   5 B        2.727     0.201    18.364     7.180
     4   6 C        2.888    -0.051    29.252     8.867
     5   6 C        2.970    -0.003    28.101     8.695
     6   6 C        2.974    -0.008    28.206     8.712
     7   6 C        2.929     0.039    27.123     8.541
     8   6 C        2.922    -0.047    29.160     8.855
     9   6 C        2.971    -0.012    28.322     8.729
    10   6 C        2.970     0.004    27.934     8.669
    11   6 C        2.924    -0.042    29.045     8.838
    12   6 C        2.917    -0.034    28.836     8.806
    13   6 C        2.919    -0.041    29.009     8.832
    14   6 C        2.916    -0.034    28.840     8.806
    15   6 C        2.925    -0.043    29.056     8.840
    16   6 C        2.917    -0.041    29.012     8.833
    17   6 C        2.865    -0.002    28.060     8.683
    18   7 N        2.756    -0.000    21.269     6.849
    19   6 C        2.930     0.050    26.870     8.501
    20   6 C        2.916    -0.060    29.484     8.904
    21   6 C        2.923    -0.035    28.865     8.810
    22   6 C        2.972    -0.003    28.103     8.696
    23   6 C        2.975     0.008    27.829     8.653
    24   6 C        2.925    -0.037    28.909     8.817
    25   6 C        2.918    -0.032    28.791     8.799
    26   6 C        2.919    -0.034    28.858     8.809
    27   6 C        2.918    -0.032    28.791     8.799
    28   6 C        2.925    -0.037    28.915     8.818
    29   6 C        2.928    -0.045    29.129     8.851
    30   6 C        2.979    -0.004    28.117     8.698
    31   6 C        2.977     0.005    27.898     8.664
    32   6 C        2.920    -0.033    28.834     8.806
    33   6 C        2.918    -0.030    28.738     8.791
    34   6 C        2.914    -0.033    28.810     8.802
    35   6 C        2.921    -0.027    28.673     8.781
    36   6 C        2.891    -0.066    29.653     8.928
    37   6 C        2.902    -0.035    28.882     8.812
    38   6 C        2.910    -0.023    28.578     8.766
    39   1 H        0.925     0.022     2.708     2.573
    40   1 H        0.925     0.022     2.707     2.573
    41   1 H        0.926     0.050     2.325     2.384
    42   1 H        0.926     0.025     2.656     2.549
    43   1 H        0.925     0.021     2.712     2.575
    44   1 H        0.926     0.020     2.734     2.586
    45   1 H        0.925     0.021     2.715     2.577
    46   1 H        0.926     0.025     2.655     2.548
    47   1 H        0.926     0.045     2.384     2.415
    48   1 H        0.926     0.048     2.344     2.394
    49   1 H        0.926     0.036     2.505     2.475
    50   1 H        0.926     0.035     2.522     2.483
    51   1 H        0.926     0.031     2.576     2.510
    52   1 H        0.926     0.028     2.614     2.528
    53   1 H        0.926     0.027     2.625     2.534
    54   1 H        0.926     0.028     2.618     2.530
    55   1 H        0.926     0.030     2.590     2.516
    56   1 H        0.926     0.043     2.414     2.430
    57   1 H        0.926     0.034     2.527     2.486
    58   1 H        0.926     0.029     2.603     2.523
    59   1 H        0.926     0.029     2.605     2.524
    60   1 H        0.926     0.035     2.511     2.478
    61   1 H        0.925     0.029     2.596     2.520
    62   1 H        0.925     0.032     2.556     2.500

molecular dipole:
                 x           y           z       tot (Debye)
 q only:        0.419      -0.109       0.365
   full:        0.449      -0.011       0.541       1.787

 projected vibrational frequencies (cm⁻¹)
eigval :       -0.00    -0.00    -0.00     0.00     0.00     0.00
eigval :       19.49    23.96    36.65    40.62    47.04    49.60
eigval :       62.93    78.96    85.42   106.50   109.38   119.33
eigval :      146.73   162.52   175.01   191.32   208.96   212.87
eigval :      224.28   259.23   263.02   310.05   315.66   319.59
eigval :      327.24   345.95   356.55   370.46   371.73   381.85
eigval :      394.52   410.17   421.37   427.40   437.78   440.41
eigval :      464.92   480.99   491.97   504.27   512.53   535.07
eigval :      540.18   565.58   573.10   582.53   587.17   591.88
eigval :      600.20   621.25   627.03   629.21   646.32   653.97
eigval :      658.79   669.77   674.16   686.39   698.21   710.94
eigval :      718.57   726.05   741.64   755.49   767.79   782.72
eigval :      793.81   798.74   842.82   854.21   857.51   860.00
eigval :      872.87   873.66   879.72   883.87   893.41   894.38
eigval :      897.99   903.15   918.56   920.91   923.82   924.78
eigval :      928.78   929.20   931.26   950.31   950.79   962.35
eigval :      974.57   982.66   989.55  1041.23  1050.37  1062.54
eigval :     1083.13  1084.34  1092.68  1100.26  1108.78  1123.15
eigval :     1123.48  1132.46  1157.05  1173.49  1179.43  1180.56
eigval :     1183.42  1185.44  1187.89  1203.36  1204.65  1212.69
eigval :     1217.51  1237.28  1242.15  1253.40  1255.21  1268.38
eigval :     1283.76  1285.17  1289.43  1291.15  1302.40  1310.74
eigval :     1318.38  1322.90  1325.79  1335.52  1339.79  1345.03
eigval :     1361.01  1366.54  1392.86  1401.90  1415.31  1422.75
eigval :     1433.09  1433.89  1443.57  1444.93  1451.88  1471.35
eigval :     1475.95  1484.31  1528.06  1538.02  1546.15  1551.64
eigval :     1554.55  1559.16  1575.45  1580.88  1596.12  1607.96
eigval :     3023.17  3034.75  3041.31  3058.58  3059.78  3059.88
eigval :     3063.13  3063.83  3066.20  3069.19  3075.70  3076.24
eigval :     3077.57  3079.93  3081.24  3082.38  3084.27  3087.69
eigval :     3088.18  3097.73  3103.67  3106.84  3112.17  3113.51

   temp. (K)  partition function   enthalpy   heat capacity  entropy
                                   cal/mol     cal/K/mol   cal/K/mol   J/K/mol
 298.15  VIB  0.419E+12            16662.634    110.783    100.803
         ROT  0.421E+08              888.752      2.981     37.869
         INT  0.176E+20            17551.387    113.764    138.673
         TR   0.102E+29             1481.254      4.968     44.382
         TOT                       19032.6405   118.7321   183.0547   765.9010

       T/K    H(0)-H(T)+PV         H(T)/Eh          T*S/Eh         G(T)/Eh
   ------------------------------------------------------------------------
    298.15    0.303304E-01    0.504156E+00    0.869752E-01    0.417181E+00
   ------------------------------------------------------------------------

         :::::::::::::::::::::::::::::::::::::::::::::::::::::
         ::                  THERMODYNAMIC                  ::
         :::::::::::::::::::::::::::::::::::::::::::::::::::::
         :: total free energy         -93.018048191913 Eh   ::
         ::.................................................::
         :: total energy              -93.435229393979 Eh   ::
         :: zero point energy           0.473825973632 Eh   ::
         :: G(RRHO) w/o ZPVE           -0.056644771566 Eh   ::
         :: G(RRHO) contrib.            0.417181202066 Eh   ::
         :::::::::::::::::::::::::::::::::::::::::::::::::::::

           -------------------------------------------------
          | TOTAL ENERGY              -93.435229393979 Eh   |
          | TOTAL ENTHALPY            -92.931072977049 Eh   |
          | TOTAL FREE ENERGY         -93.018048191913 Eh   |
          | GRADIENT NORM               0.000049176394 Eh/α |
          | HOMO-LUMO GAP               0.473170987630 eV   |
           -------------------------------------------------

 * finished run on 2025/09/10 at 13:18:27.916
