   * xtb version 6.7.1 (edcfbbe) compiled by 'albert@albert-system' on 2024-07-22

   ID    Z sym.   atoms
    1    6 C      1-6, 8, 10-16, 18-27, 29-34
    2    7 N      7, 9, 28, 35
    3    8 O      17
    4    1 H      36-53

          program call               : xtb data2507/toluene/4-DBFBI/4-DBFBI_toluene_S0_crest.xyz --gfn 2 --gbsa toluene --ohess vtight --parallel 40 --molden --ceasefiles --namespace data2507/toluene/4-DBFBI/4-DBFBI_toluene_S0_finalOpt
      * Solvation model:               GBSA
        Solvent                        toluene
        Solvent mass                       9.2140E+01 g/mol
          :  Hamiltonian                  GFN2-xTB          :
 * total energy  :   -89.3030291 Eh     change       -0.3258322E-08 Eh
 * total energy  :   -89.3030681 Eh     change       -0.3900597E-04 Eh
 * total energy  :   -89.3030816 Eh     change       -0.1352534E-04 Eh
 * total energy  :   -89.3030860 Eh     change       -0.4357948E-05 Eh
 * total energy  :   -89.3030910 Eh     change       -0.5068880E-05 Eh
 * total energy  :   -89.3030961 Eh     change       -0.5027286E-05 Eh
 * total energy  :   -89.3031005 Eh     change       -0.4419320E-05 Eh
 * total energy  :   -89.3031045 Eh     change       -0.4068537E-05 Eh
 * total energy  :   -89.3031088 Eh     change       -0.4301911E-05 Eh
 * total energy  :   -89.3031137 Eh     change       -0.4834604E-05 Eh
 * total energy  :   -89.3031325 Eh     change       -0.4191491E-05 Eh
 * total energy  :   -89.3031363 Eh     change       -0.3753203E-05 Eh
 * total energy  :   -89.3031395 Eh     change       -0.3183648E-05 Eh
 * total energy  :   -89.3031420 Eh     change       -0.2499524E-05 Eh
 * total energy  :   -89.3031437 Eh     change       -0.1729547E-05 Eh
 * total energy  :   -89.3031449 Eh     change       -0.1177805E-05 Eh
 * total energy  :   -89.3031458 Eh     change       -0.8874179E-06 Eh
 * total energy  :   -89.3031465 Eh     change       -0.6899587E-06 Eh
 * total energy  :   -89.3031465 Eh     change       -0.9779271E-08 Eh
   *** GEOMETRY OPTIMIZATION CONVERGED AFTER 22 ITERATIONS ***

 final structure:
================
53
 xtb: 6.7.1 (edcfbbe)
C           -7.11102183584920       -2.72864708679924        1.21339908559666
C           -7.58202349380633       -1.43713031384312        1.44238044391269
C           -6.80508688543417       -0.32632606393630        1.16546163308126
C           -5.54170410101151       -0.55215736754312        0.65301309761343
C           -5.04790893109776       -1.86606024447002        0.41561698944975
C           -5.84902441847944       -2.96316192413688        0.70183990872618
N           -3.76317176666675       -1.83055958574530       -0.09134258703083
C           -3.49485880156404       -0.56183844151226       -0.17197137156722
N           -2.41605988616555        0.20002187833309       -0.52440301275220
C           -1.20110679276263       -0.28670171387467       -1.02261991220414
C            0.00376229288595        0.22086079337194       -0.54425165997661
C            1.19357003496032       -0.28542806776227       -1.06037245852795
C            2.49587721767767        0.20861505221743       -0.59038349245605
C            2.67456687834947        1.57438663371004       -0.33185883143850
C            3.88113527917837        2.08497929998133        0.10655553833271
C            4.92026904168838        1.19094063582814        0.29701360761695
O            6.17570980848774        1.48590889986772        0.72875691293043
C            6.85442422083929        0.30095470336143        0.76758844206363
C            8.17165012638541        0.12127385820351        1.14964170244044
C            8.66835821555981       -1.17040713319880        1.11809782160956
C            7.87723189831915       -2.24496639793102        0.71859013487588
C            6.56197785604792       -2.06358162612091        0.33667765604921
C            6.04195897202157       -0.77574675711630        0.36082714446148
C            4.76451397172823       -0.18843399908117        0.04821093209017
C            3.54927824285718       -0.67944175182858       -0.40203349507295
C            1.10159111706324       -1.28836633409396       -2.02920269771557
C           -0.15017651566077       -1.72607383579395       -2.42062023316509
N           -1.28139648595945       -1.23683056710297       -1.94085981064506
C           -2.76793859132467        1.53340349884993       -0.32366439904135
C           -2.07460289164784        2.70261225627931       -0.58095912913313
C           -2.70163884725918        3.90473457855231       -0.28970223467928
C           -3.98716918908945        3.94600487712099        0.23417269918533
C           -4.70492863825648        2.78372417119802        0.46962045663989
C           -4.08741536135399        1.58140961163256        0.18072510337519
N           -4.51072290714314        0.27406253813234        0.26571536355178
H           -7.75228975454084       -3.56684480834384        1.44329127899620
H           -8.57498891251656       -1.30009765104229        1.84355469036187
H           -7.17274189081248        0.67275770625333        1.34291011965009
H           -5.48464486188277       -3.96266193524748        0.52439708667487
H            0.01073790637631        0.95878010632482        0.24239696801886
H            1.85255729069825        2.25216600517530       -0.50319152497924
H            4.01449817650726        3.13817916677346        0.29501327889453
H            8.77847881570672        0.95781452853528        1.45760894320114
H            9.69235513446859       -1.34746309921852        1.41039635443622
H            8.30325243653786       -3.23699229749575        0.70862103241079
H            5.94984079203095       -2.89688004756873        0.02811022176077
H            3.41796406792933       -1.73565062390592       -0.57731783948103
H            1.98999804796423       -1.70486752844496       -2.47554594556106
H           -0.26702613964091       -2.50217940947245       -3.16522889304070
H           -1.08537134370233        2.68328039197712       -1.00914577673465
H           -2.17728259384478        4.82848227981882       -0.47918792316543
H           -4.44142142509956        4.89983361386810        0.45246475880285
H           -5.70987100569763        2.81388886496449        0.85838862495957

          :  Hamiltonian                  GFN2-xTB          :
         :: gradient norm              0.000066743073 Eh/a0 ::
         :: HOMO-LUMO gap              2.648629188955 eV    ::
         :: SCC energy               -90.856681127662 Eh    ::
         :: -> dispersion             -0.069727294151 Eh    ::
         :: -> Gsolv                  -0.041249209527 Eh    ::
         :: repulsion energy           1.553534664464 Eh    ::

    * Orbital Energies and Occupations

         #    Occupation            Energy/Eh            Energy/eV
      -------------------------------------------------------------
         1        2.0000           -0.7444865             -20.2585
       ...           ...                  ...                  ...
        70        2.0000           -0.4354380             -11.8489
        71        2.0000           -0.4333107             -11.7910
        72        2.0000           -0.4311760             -11.7329
        73        2.0000           -0.4307354             -11.7209
        74        2.0000           -0.4222916             -11.4911
        75        2.0000           -0.4189185             -11.3994
        76        2.0000           -0.4093221             -11.1382
        77        2.0000           -0.3970797             -10.8051
        78        2.0000           -0.3942833             -10.7290
        79        2.0000           -0.3880407             -10.5591
        80        2.0000           -0.3867111             -10.5229
        81        2.0000           -0.3848425             -10.4721
        82        2.0000           -0.3718184             -10.1177 (HOMO)
        83                         -0.2744831              -7.4691 (LUMO)
        84                         -0.2627120              -7.1488
        85                         -0.2549666              -6.9380
        86                         -0.2489265              -6.7736
        87                         -0.2386064              -6.4928
        88                         -0.2332459              -6.3469
        89                         -0.2212946              -6.0217
        90                         -0.2123005              -5.7770
        91                         -0.2032859              -5.5317
        92                         -0.2014790              -5.4825
        93                         -0.1618719              -4.4048
       ...                                ...                  ...
       158                          0.7330455              19.9472
      -------------------------------------------------------------
                  HL-Gap            0.0973353 Eh            2.6486 eV

     #   Z          covCN         q      C6AA      α(0)
     1   6 C        2.922    -0.042    29.032     8.836
     2   6 C        2.926    -0.043    29.069     8.842
     3   6 C        2.907    -0.053    29.320     8.879
     4   6 C        3.063     0.029    27.292     8.567
     5   6 C        3.240     0.070    25.552     8.196
     6   6 C        2.910    -0.050    29.238     8.867
     7   7 N        1.861    -0.346    29.840     8.097
     8   6 C        3.348     0.229    20.951     7.219
     9   7 N        2.800    -0.070    22.594     7.060
    10   6 C        2.907     0.159    24.557     8.126
    11   6 C        2.922    -0.067    29.672     8.933
    12   6 C        2.985     0.032    27.283     8.568
    13   6 C        2.976     0.001    28.006     8.681
    14   6 C        2.930    -0.035    28.882     8.814
    15   6 C        2.907    -0.052    29.299     8.876
    16   6 C        3.097     0.130    25.049     8.202
    17   8 O        1.714    -0.235    17.885     5.710
    18   6 C        3.098     0.127    25.100     8.211
    19   6 C        2.908    -0.052    29.286     8.874
    20   6 C        2.926    -0.030    28.760     8.795
    21   6 C        2.921    -0.037    28.918     8.818
    22   6 C        2.913    -0.033    28.818     8.803
    23   6 C        3.054    -0.019    28.431     8.745
    24   6 C        3.052    -0.018    28.400     8.740
    25   6 C        2.918    -0.036    28.904     8.816
    26   6 C        2.918    -0.052    29.288     8.875
    27   6 C        2.912     0.062    26.610     8.459
    28   7 N        1.844    -0.254    27.465     7.767
    29   6 C        3.079     0.039    27.031     8.524
    30   6 C        2.911    -0.051    29.267     8.871
    31   6 C        2.923    -0.036    28.900     8.816
    32   6 C        2.924    -0.037    28.924     8.820
    33   6 C        2.910    -0.047    29.173     8.857
    34   6 C        3.028     0.042    27.029     8.528
    35   7 N        2.899    -0.069    22.568     7.056
    36   1 H        0.926     0.038     2.477     2.461
    37   1 H        0.926     0.039     2.468     2.457
    38   1 H        0.926     0.033     2.544     2.494
    39   1 H        0.926     0.040     2.447     2.446
    40   1 H        0.926     0.049     2.334     2.389
    41   1 H        0.926     0.048     2.348     2.396
    42   1 H        0.926     0.055     2.263     2.352
    43   1 H        0.926     0.050     2.326     2.385
    44   1 H        0.926     0.048     2.344     2.394
    45   1 H        0.926     0.046     2.375     2.410
    46   1 H        0.926     0.046     2.370     2.407
    47   1 H        0.926     0.051     2.310     2.377
    48   1 H        0.926     0.056     2.240     2.341
    49   1 H        0.925     0.050     2.321     2.382
    50   1 H        0.926     0.044     2.400     2.423
    51   1 H        0.926     0.053     2.286     2.364
    52   1 H        0.926     0.052     2.290     2.366
    53   1 H        0.926     0.048     2.350     2.397

molecular dipole:
                 x           y           z       tot (Debye)
 q only:        1.459       0.945       0.047
   full:        1.582       1.375       0.224       5.358

 projected vibrational frequencies (cm⁻¹)
eigval :       -0.00    -0.00    -0.00     0.00     0.00     0.00
eigval :       11.04    19.00    24.89    45.96    63.02    69.10
eigval :       80.54    94.92   112.09   123.00   144.39   163.45
eigval :      190.54   206.92   215.88   238.59   246.32   279.60
eigval :      285.66   306.06   316.96   330.41   364.49   392.38
eigval :      399.31   409.90   413.84   419.52   425.51   433.79
eigval :      445.78   456.17   513.43   527.04   537.37   538.80
eigval :      544.73   548.99   568.46   593.10   598.48   600.43
eigval :      622.31   633.01   652.37   662.01   676.84   679.61
eigval :      694.50   697.84   706.80   716.96   723.30   729.55
eigval :      769.86   772.78   781.45   788.70   813.66   827.84
eigval :      836.19   843.52   860.91   865.18   867.99   874.73
eigval :      876.14   884.57   889.00   892.78   898.70   907.40
eigval :      907.98   911.97   917.61   918.34   924.26   927.40
eigval :      972.95  1010.19  1014.38  1057.38  1058.42  1066.86
eigval :     1075.64  1088.60  1108.35  1115.53  1132.65  1137.24
eigval :     1138.22  1162.16  1168.08  1174.08  1181.56  1187.04
eigval :     1200.36  1212.23  1228.19  1237.43  1240.81  1246.89
eigval :     1251.42  1259.45  1268.52  1278.63  1289.37  1300.34
eigval :     1332.73  1337.42  1347.01  1356.52  1358.31  1384.84
eigval :     1398.36  1409.29  1416.24  1424.25  1441.30  1457.53
eigval :     1470.03  1472.80  1485.63  1497.52  1537.75  1564.57
eigval :     1570.24  1575.88  1588.26  1590.36  1596.55  1601.96
eigval :     1606.90  1613.21  1655.59  3060.72  3077.01  3082.12
eigval :     3083.55  3090.05  3092.28  3092.66  3093.38  3097.76
eigval :     3098.46  3099.59  3099.79  3103.15  3105.44  3106.85
eigval :     3107.22  3107.68  3113.00

   temp. (K)  partition function   enthalpy   heat capacity  entropy
                                   cal/mol     cal/K/mol   cal/K/mol   J/K/mol
 298.15  VIB  0.163E+11            14193.514     95.244     86.063
         ROT  0.382E+08              888.752      2.981     37.674
         INT  0.623E+18            15082.266     98.224    123.737
         TR   0.925E+28             1481.254      4.968     44.185
         TOT                       16563.5203   103.1926   167.9218   702.5847

       T/K    H(0)-H(T)+PV         H(T)/Eh          T*S/Eh         G(T)/Eh
   ------------------------------------------------------------------------
    298.15    0.263956E-01    0.420333E+00    0.797851E-01    0.340548E+00
   ------------------------------------------------------------------------

         :::::::::::::::::::::::::::::::::::::::::::::::::::::
         ::                  THERMODYNAMIC                  ::
         :::::::::::::::::::::::::::::::::::::::::::::::::::::
         :: total free energy         -88.962598158650 Eh   ::
         ::.................................................::
         :: total energy              -89.303146463897 Eh   ::
         :: zero point energy           0.393937710518 Eh   ::
         :: G(RRHO) w/o ZPVE           -0.053389405270 Eh   ::
         :: G(RRHO) contrib.            0.340548305247 Eh   ::
         :::::::::::::::::::::::::::::::::::::::::::::::::::::

           -------------------------------------------------
          | TOTAL ENERGY              -89.303146463897 Eh   |
          | TOTAL ENTHALPY            -88.882813103586 Eh   |
          | TOTAL FREE ENERGY         -88.962598158650 Eh   |
          | GRADIENT NORM               0.000066733510 Eh/α |
          | HOMO-LUMO GAP               2.648628851482 eV   |
           -------------------------------------------------

 * finished run on 2025/09/04 at 15:06:41.816
