   * xtb version 6.7.1 (edcfbbe) compiled by 'albert@albert-system' on 2024-07-22

   ID    Z sym.   atoms
    1    6 C      1-6, 8, 10-16, 18-27, 29-34
    2    7 N      7, 9, 28, 35
    3    8 O      17
    4    1 H      36-53

          program call               : xtb data2507/toluene/4-DBFBI/4-DBFBI.xyz --gfn 2 --gbsa toluene --ohess vtight --parallel 40 --molden --ceasefiles --namespace data2507/toluene/4-DBFBI/4-DBFBI_toluene_S0_preOpt
      * Solvation model:               GBSA
        Solvent                        toluene
        Solvent mass                       9.2140E+01 g/mol
          :  Hamiltonian                  GFN2-xTB          :
 * total energy  :   -89.2867511 Eh     change       -0.5378638E-08 Eh
 * total energy  :   -89.2973384 Eh     change       -0.1058732E-01 Eh
 * total energy  :   -89.3002499 Eh     change       -0.2911501E-02 Eh
 * total energy  :   -89.3010291 Eh     change       -0.7791984E-03 Eh
 * total energy  :   -89.3015421 Eh     change       -0.5130075E-03 Eh
 * total energy  :   -89.3017162 Eh     change       -0.1740253E-03 Eh
 * total energy  :   -89.3018014 Eh     change       -0.8522919E-04 Eh
 * total energy  :   -89.3018419 Eh     change       -0.4051335E-04 Eh
 * total energy  :   -89.3018920 Eh     change       -0.5012565E-04 Eh
 * total energy  :   -89.3019291 Eh     change       -0.3705541E-04 Eh
 * total energy  :   -89.3031219 Eh     change       -0.9471344E-06 Eh
 * total energy  :   -89.3031229 Eh     change       -0.9218190E-06 Eh
 * total energy  :   -89.3031238 Eh     change       -0.9129330E-06 Eh
 * total energy  :   -89.3031247 Eh     change       -0.9144181E-06 Eh
 * total energy  :   -89.3031256 Eh     change       -0.9235832E-06 Eh
 * total energy  :   -89.3031265 Eh     change       -0.9328306E-06 Eh
 * total energy  :   -89.3031275 Eh     change       -0.9350509E-06 Eh
 * total energy  :   -89.3031284 Eh     change       -0.9252228E-06 Eh
 * total energy  :   -89.3031284 Eh     change       -0.6276750E-08 Eh
   *** GEOMETRY OPTIMIZATION CONVERGED AFTER 68 ITERATIONS ***

 final structure:
================
53
 xtb: 6.7.1 (edcfbbe)
C           -7.10018292365716       -2.87988056110683        1.04395917748308
C           -7.58966314136162       -1.59819391597517        1.28890386344574
C           -6.82613043186353       -0.47326006493792        1.03253546071008
C           -5.55674036756080       -0.67483539076105        0.52475610633116
C           -5.04354068319963       -1.97852296906964        0.27265171499708
C           -5.83193975411404       -3.09016337328974        0.53735421498032
N           -3.75557010743087       -1.91867338277801       -0.22359075138285
C           -3.50347478790676       -0.64557075113213       -0.28421299452828
N           -2.43235608878988        0.13600585311162       -0.61757293792677
C           -1.20318724878025       -0.32930204599785       -1.09994110240755
C           -0.01304589109466        0.20361398709162       -0.61190044627160
C            1.19117319559648       -0.28539388072209       -1.11040627901869
C            2.47826802215282        0.23771445966313       -0.62963065587396
C            2.63247855164350        1.61166930254427       -0.40118824113703
C            3.82363860310131        2.15028827536955        0.04573598965389
C            4.87105290081867        1.27599000103658        0.27771521719526
O            6.11359898611898        1.59954456114497        0.72617034547078
C            6.80712031472270        0.42560719326320        0.80951284618615
C            8.11816345444763        0.27422352821993        1.22375975621078
C            8.63222450483048       -1.01094492856696        1.23770230508850
C            7.86372590591509       -2.10650573319348        0.85126482779573
C            6.55480971910116       -1.95328965777842        0.43660326462460
C            6.01768057040403       -0.67244718750300        0.41459793241551
C            4.73917977156504       -0.11126377048501        0.06092797928808
C            3.54001528165545       -0.63043213382726       -0.40102498406815
C            1.12939373798164       -1.29825468803323       -2.07102340971233
C           -0.10983832522539       -1.76032964070261       -2.47443427611606
N           -1.25507253121965       -1.28712971956971       -2.01226777956151
C           -2.80490395501189        1.46174676238178       -0.40276463625077
C           -2.12771238674225        2.64448756922877       -0.64092777703009
C           -2.77415363279996        3.83346061700529       -0.33838072040956
C           -4.06337250535514        3.84933843714032        0.17761543311127
C           -4.76570246484370        2.67374235582676        0.39231119765725
C           -4.12867156773964        1.48446081029507        0.09211736070700
N           -4.53421297752280        0.17037408046245        0.15654516937429
H           -7.73163306141730       -3.72979147266455        1.25748809092059
H           -8.58652650305428       -1.48022283217496        1.68644138709787
H           -7.20830038251067        0.51809121157769        1.22229859284669
H           -5.45314667416704       -4.08205600376269        0.34790207220055
H           -0.02697207837361        0.94706113405354        0.16937056592251
H            1.80380216556827        2.27257367289294       -0.60364356566099
H            3.93904821434913        3.20964164052504        0.21002196955008
H            8.70716362027592        1.12700429851652        1.52170911570688
H            9.65211993174366       -1.16612813401568        1.55558878321401
H            8.30259467839860       -3.09262176289108        0.87754846111495
H            5.96032913431822       -2.80294570873105        0.13826792138734
H            3.42640570142045       -1.69217893769583       -0.55411751818950
H            2.03094967877812       -1.70312626761428       -2.50150741085523
H           -0.20426675185788       -2.54395599747224       -3.21433476746467
H           -1.13599877249769        2.64610597718235       -1.06357946817608
H           -2.26208253206510        4.76705093723561       -0.51249344774970
H           -4.53282497601711        4.79348491650090        0.40556113937577
H           -5.77371414072299        2.68413733018397        0.77400290772640

          :  Hamiltonian                  GFN2-xTB          :
         :: gradient norm              0.000065637453 Eh/a0 ::
         :: HOMO-LUMO gap              2.660810807698 eV    ::
         :: SCC energy               -90.856712034822 Eh    ::
         :: -> dispersion             -0.069737299275 Eh    ::
         :: -> Gsolv                  -0.041200238756 Eh    ::
         :: repulsion energy           1.553583628911 Eh    ::

    * Orbital Energies and Occupations

         #    Occupation            Energy/Eh            Energy/eV
      -------------------------------------------------------------
         1        2.0000           -0.7444384             -20.2572
       ...           ...                  ...                  ...
        70        2.0000           -0.4354295             -11.8486
        71        2.0000           -0.4332987             -11.7907
        72        2.0000           -0.4311736             -11.7328
        73        2.0000           -0.4307169             -11.7204
        74        2.0000           -0.4223057             -11.4915
        75        2.0000           -0.4189172             -11.3993
        76        2.0000           -0.4092842             -11.1372
        77        2.0000           -0.3970354             -10.8039
        78        2.0000           -0.3942546             -10.7282
        79        2.0000           -0.3879811             -10.5575
        80        2.0000           -0.3866743             -10.5219
        81        2.0000           -0.3846565             -10.4670
        82        2.0000           -0.3718377             -10.1182 (HOMO)
        83                         -0.2740547              -7.4574 (LUMO)
        84                         -0.2626803              -7.1479
        85                         -0.2549658              -6.9380
        86                         -0.2489720              -6.7749
        87                         -0.2386265              -6.4934
        88                         -0.2332939              -6.3483
        89                         -0.2212076              -6.0194
        90                         -0.2122942              -5.7768
        91                         -0.2033164              -5.5325
        92                         -0.2014902              -5.4828
        93                         -0.1618953              -4.4054
       ...                                ...                  ...
       158                          0.7330335              19.9469
      -------------------------------------------------------------
                  HL-Gap            0.0977830 Eh            2.6608 eV

     #   Z          covCN         q      C6AA      α(0)
     1   6 C        2.922    -0.042    29.032     8.836
     2   6 C        2.926    -0.043    29.068     8.842
     3   6 C        2.907    -0.053    29.320     8.879
     4   6 C        3.063     0.029    27.292     8.567
     5   6 C        3.240     0.070    25.555     8.196
     6   6 C        2.910    -0.050    29.236     8.866
     7   7 N        1.862    -0.345    29.818     8.094
     8   6 C        3.347     0.229    20.968     7.223
     9   7 N        2.800    -0.070    22.586     7.058
    10   6 C        2.906     0.159    24.560     8.126
    11   6 C        2.922    -0.067    29.679     8.934
    12   6 C        2.985     0.032    27.284     8.568
    13   6 C        2.977     0.001    28.006     8.681
    14   6 C        2.931    -0.035    28.882     8.814
    15   6 C        2.907    -0.052    29.299     8.876
    16   6 C        3.097     0.130    25.051     8.203
    17   8 O        1.714    -0.235    17.886     5.710
    18   6 C        3.098     0.127    25.100     8.210
    19   6 C        2.908    -0.052    29.286     8.874
    20   6 C        2.926    -0.030    28.760     8.795
    21   6 C        2.921    -0.037    28.919     8.819
    22   6 C        2.913    -0.033    28.818     8.803
    23   6 C        3.054    -0.019    28.432     8.745
    24   6 C        3.052    -0.018    28.400     8.740
    25   6 C        2.918    -0.036    28.904     8.816
    26   6 C        2.918    -0.052    29.290     8.875
    27   6 C        2.912     0.062    26.609     8.459
    28   7 N        1.844    -0.254    27.461     7.766
    29   6 C        3.079     0.039    27.035     8.524
    30   6 C        2.911    -0.051    29.267     8.871
    31   6 C        2.923    -0.036    28.901     8.816
    32   6 C        2.924    -0.037    28.922     8.819
    33   6 C        2.910    -0.047    29.173     8.857
    34   6 C        3.028     0.042    27.028     8.528
    35   7 N        2.899    -0.069    22.567     7.055
    36   1 H        0.926     0.038     2.477     2.461
    37   1 H        0.926     0.039     2.468     2.457
    38   1 H        0.926     0.033     2.544     2.494
    39   1 H        0.926     0.040     2.445     2.445
    40   1 H        0.926     0.049     2.334     2.389
    41   1 H        0.926     0.048     2.351     2.398
    42   1 H        0.926     0.055     2.263     2.353
    43   1 H        0.926     0.049     2.326     2.385
    44   1 H        0.926     0.048     2.344     2.394
    45   1 H        0.926     0.046     2.376     2.410
    46   1 H        0.926     0.046     2.371     2.408
    47   1 H        0.926     0.051     2.313     2.378
    48   1 H        0.926     0.056     2.244     2.342
    49   1 H        0.925     0.050     2.321     2.383
    50   1 H        0.926     0.044     2.397     2.421
    51   1 H        0.926     0.053     2.286     2.364
    52   1 H        0.926     0.052     2.289     2.366
    53   1 H        0.926     0.048     2.349     2.397

molecular dipole:
                 x           y           z       tot (Debye)
 q only:        1.424       0.971       0.096
   full:        1.539       1.404       0.276       5.341

 projected vibrational frequencies (cm⁻¹)
eigval :       -0.00    -0.00    -0.00     0.00     0.00     0.00
eigval :       12.90    19.63    25.19    47.83    64.45    69.89
eigval :       81.49    95.88   112.89   123.07   144.27   163.68
eigval :      190.36   207.09   216.68   239.33   247.17   279.91
eigval :      285.32   306.11   316.87   330.19   364.72   393.08
eigval :      399.08   410.24   414.00   420.50   426.29   434.40
eigval :      445.72   456.40   513.15   527.31   537.63   538.94
eigval :      544.67   548.98   569.33   593.22   598.44   600.39
eigval :      622.66   633.45   652.35   661.61   677.25   679.70
eigval :      694.96   697.73   707.06   716.75   723.36   729.64
eigval :      770.60   773.27   783.23   788.84   814.33   827.80
eigval :      836.77   843.43   861.74   865.85   868.02   875.54
eigval :      876.89   885.15   889.19   893.86   899.48   908.30
eigval :      908.48   912.68   918.27   918.72   924.36   930.37
eigval :      973.08  1010.23  1014.40  1057.00  1059.31  1066.37
eigval :     1075.95  1088.29  1108.58  1115.76  1132.84  1137.55
eigval :     1137.99  1162.41  1167.18  1174.28  1180.49  1187.20
eigval :     1200.26  1211.77  1228.33  1237.95  1240.88  1247.00
eigval :     1251.47  1259.51  1269.16  1278.79  1289.65  1300.67
eigval :     1332.95  1337.57  1346.99  1356.59  1358.27  1384.78
eigval :     1398.55  1409.66  1416.28  1424.31  1441.45  1457.57
eigval :     1469.99  1472.99  1485.97  1497.76  1538.15  1564.80
eigval :     1570.40  1575.82  1588.41  1590.36  1596.74  1601.80
eigval :     1606.96  1613.27  1655.18  3060.57  3077.10  3081.15
eigval :     3081.80  3089.98  3092.59  3092.94  3093.31  3097.32
eigval :     3099.24  3099.37  3100.37  3103.55  3105.49  3106.97
eigval :     3107.75  3107.95  3113.13

   temp. (K)  partition function   enthalpy   heat capacity  entropy
                                   cal/mol     cal/K/mol   cal/K/mol   J/K/mol
 298.15  VIB  0.122E+11            14173.386     95.278     85.747
         ROT  0.382E+08              888.752      2.981     37.674
         INT  0.465E+18            15062.138     98.259    123.421
         TR   0.925E+28             1481.254      4.968     44.185
         TOT                       16543.3921   103.2273   167.6054   701.2611

       T/K    H(0)-H(T)+PV         H(T)/Eh          T*S/Eh         G(T)/Eh
   ------------------------------------------------------------------------
    298.15    0.263636E-01    0.420388E+00    0.796347E-01    0.340754E+00
   ------------------------------------------------------------------------

         :::::::::::::::::::::::::::::::::::::::::::::::::::::
         ::                  THERMODYNAMIC                  ::
         :::::::::::::::::::::::::::::::::::::::::::::::::::::
         :: total free energy         -88.962374756464 Eh   ::
         ::.................................................::
         :: total energy              -89.303128405735 Eh   ::
         :: zero point energy           0.394024825281 Eh   ::
         :: G(RRHO) w/o ZPVE           -0.053271176009 Eh   ::
         :: G(RRHO) contrib.            0.340753649272 Eh   ::
         :::::::::::::::::::::::::::::::::::::::::::::::::::::

           -------------------------------------------------
          | TOTAL ENERGY              -89.303128405735 Eh   |
          | TOTAL ENTHALPY            -88.882740006978 Eh   |
          | TOTAL FREE ENERGY         -88.962374756464 Eh   |
          | GRADIENT NORM               0.000065638478 Eh/α |
          | HOMO-LUMO GAP               2.660810770982 eV   |
           -------------------------------------------------

 * finished run on 2025/09/04 at 15:04:32.627
