   * xtb version 6.7.1 (edcfbbe) compiled by 'albert@albert-system' on 2024-07-22

   ID    Z sym.   atoms
    1    6 C      1-6, 8, 10-16, 18-27, 29-34
    2    7 N      7, 9, 28, 35
    3    8 O      17
    4    1 H      36-53

          program call               : xtb data2507/toluene/4-DBFBI/4-DBFBI_toluene_S0_finalOpt.xtbopt.xyz --gfn 2 --uhf 2 --gbsa toluene --ohess vtight --parallel 40 --molden --ceasefiles --namespace data2507/toluene/4-DBFBI/4-DBFBI_toluene_T1_preOpt
      * Solvation model:               GBSA
        Solvent                        toluene
        Solvent mass                       9.2140E+01 g/mol
          :  Hamiltonian                  GFN2-xTB          :
 * total energy  :   -89.1900198 Eh     change       -0.1778815E-08 Eh
 * total energy  :   -89.1940448 Eh     change       -0.4025005E-02 Eh
 * total energy  :   -89.1953668 Eh     change       -0.1321976E-02 Eh
 * total energy  :   -89.1957261 Eh     change       -0.3593640E-03 Eh
 * total energy  :   -89.1961757 Eh     change       -0.4495818E-03 Eh
 * total energy  :   -89.1964415 Eh     change       -0.2657866E-03 Eh
 * total energy  :   -89.1966746 Eh     change       -0.2331109E-03 Eh
 * total energy  :   -89.1968293 Eh     change       -0.1547287E-03 Eh
 * total energy  :   -89.1969227 Eh     change       -0.9336425E-04 Eh
 * total energy  :   -89.1970072 Eh     change       -0.8446952E-04 Eh
 * total energy  :   -89.1979194 Eh     change       -0.4122608E-06 Eh
 * total energy  :   -89.1979200 Eh     change       -0.5962026E-06 Eh
 * total energy  :   -89.1979206 Eh     change       -0.6378921E-06 Eh
 * total energy  :   -89.1979212 Eh     change       -0.5759059E-06 Eh
 * total energy  :   -89.1979217 Eh     change       -0.5365107E-06 Eh
 * total energy  :   -89.1979222 Eh     change       -0.4716963E-06 Eh
 * total energy  :   -89.1979225 Eh     change       -0.3013949E-06 Eh
 * total energy  :   -89.1979227 Eh     change       -0.1591407E-06 Eh
 * total energy  :   -89.1979228 Eh     change       -0.8254668E-07 Eh
   *** GEOMETRY OPTIMIZATION CONVERGED AFTER 56 ITERATIONS ***

 final structure:
================
53
 xtb: 6.7.1 (edcfbbe)
C           -7.24163263559481       -2.59876920881083        1.20130590958322
C           -7.71354423712180       -1.29109248875644        1.31076943577820
C           -6.91394024158839       -0.20090907453345        0.99875453572165
C           -5.62972384258059       -0.46593609896085        0.57279888787908
C           -5.13283859161974       -1.79971959500071        0.45268075085533
C           -5.95768075071223       -2.87458932864470        0.77466136326472
N           -3.83215398114692       -1.80709915674384        0.01736773607027
C           -3.54179889307342       -0.54061598701252       -0.14177557170324
N           -2.45097393916076        0.17771679949603       -0.51582804868275
C           -1.21805005274302       -0.36007155304296       -0.90919402307182
C           -0.05271466016508        0.14499421903580       -0.39566438636426
C            1.20607773695805       -0.42292380023738       -0.75547427173504
C            2.43867429105090        0.04931073353029       -0.23745806071825
C            2.52856467599808        1.30975863151381        0.44316543828760
C            3.69750243988658        1.80484685163481        0.95270104891842
C            4.85464342914556        1.03812895760885        0.80131528566389
O            6.10870655468386        1.34451545589738        1.23582992861615
C            6.90747372507693        0.30442536278888        0.86373727816170
C            8.26617757810319        0.18936507766796        1.09991845719780
C            8.89687684530008       -0.95469606552700        0.63471351166469
C            8.19429066212613       -1.94588851656159       -0.04060607793523
C            6.83254445602200       -1.82791293675701       -0.27512687639827
C            6.18080930903736       -0.69315304013654        0.18028063004460
C            4.81851287996655       -0.21317573506296        0.13440552860660
C            3.64393223770873       -0.70494756168306       -0.37684948546484
C            1.11124191205686       -1.54067841642099       -1.65882351730550
C           -0.10464433920428       -1.95641857509277       -2.11626091679725
N           -1.26756686924533       -1.38171383341605       -1.78898184280600
C           -2.79189404788197        1.52125841715177       -0.43029202989065
C           -2.06805369122405        2.66132789581345       -0.74295770833374
C           -2.68898119895639        3.88608455434259       -0.56462072178871
C           -3.99597988430478        3.97951406950386       -0.09448738173786
C           -4.74166524863948        2.84837737318922        0.19721210996802
C           -4.13157537489847        1.62064180347678        0.01978787450879
N           -4.56976577886980        0.32613473412998        0.18440640029448
H           -7.90070687993417       -3.41490328053483        1.45608784467261
H           -8.72513699511811       -1.12143842998119        1.64645317137329
H           -7.28516413706270        0.80793752209394        1.08733936121962
H           -5.58928002822479       -3.88384871816474        0.68609281747467
H           -0.11690036550430        0.91474644817919        0.35628559776239
H            1.64032230075302        1.91233755460523        0.53914970623200
H            3.73579523296300        2.76010226353894        1.45281027665806
H            8.80446731939166        0.96261812216704        1.62468124794555
H            9.95642692660449       -1.07559449287618        0.80235354574632
H            8.71927975675100       -2.82308929016257       -0.38770877722601
H            6.28995750773253       -2.59978323252357       -0.79897266936279
H            3.63448624196313       -1.66933828480274       -0.85521461552823
H            1.99836468968624       -2.02717974111685       -2.02588538175077
H           -0.19050743077029       -2.77010153463453       -2.82392751299467
H           -1.06201935273151        2.59306955390971       -1.12464770119044
H           -2.14626516133862        4.78830550219983       -0.79911554906513
H           -4.44266488755526        4.95264911763548        0.03575014583597
H           -5.75932862635061        2.92099827144808        0.54424641979961

          :  Hamiltonian                  GFN2-xTB          :
         :: gradient norm              0.000050523424 Eh/a0 ::
         :: HOMO-LUMO gap              0.416683317851 eV    ::
         :: SCC energy               -90.732808825355 Eh    ::
         :: -> dispersion             -0.069642244549 Eh    ::
         :: -> Gsolv                  -0.041284685830 Eh    ::
         :: repulsion energy           1.534886044288 Eh    ::

    * Orbital Energies and Occupations

         #    Occupation            Energy/Eh            Energy/eV
      -------------------------------------------------------------
         1        2.0000           -0.7403506             -20.1460
       ...           ...                  ...                  ...
        71        2.0000           -0.4303288             -11.7098
        72        2.0000           -0.4293296             -11.6827
        73        2.0000           -0.4264952             -11.6055
        74        2.0000           -0.4181276             -11.3778
        75        2.0000           -0.4149417             -11.2911
        76        2.0000           -0.4084192             -11.1137
        77        2.0000           -0.4007811             -10.9058
        78        2.0000           -0.3983576             -10.8399
        79        2.0000           -0.3910344             -10.6406
        80        1.9998           -0.3872457             -10.5375
        81        1.6410           -0.3797935             -10.3347
        82        1.3592           -0.3786927             -10.3048
        83        0.9997           -0.2747502              -7.4763 (HOMO)
        84        0.0003           -0.2594376              -7.0597 (LUMO)
        85        0.0000           -0.2537591              -6.9051
        86                         -0.2496054              -6.7921
        87                         -0.2434879              -6.6256
        88                         -0.2271871              -6.1821
        89                         -0.2231090              -6.0711
        90                         -0.2150803              -5.8526
        91                         -0.2032769              -5.5314
        92                         -0.1920642              -5.2263
        93                         -0.1719030              -4.6777
        94                         -0.1219445              -3.3183
       ...                                ...                  ...
       158                          0.7424387              20.2028
      -------------------------------------------------------------
                  HL-Gap            0.0153127 Eh            0.4167 eV

     #   Z          covCN         q      C6AA      α(0)
     1   6 C        2.920    -0.037    28.911     8.817
     2   6 C        2.926    -0.033    28.815     8.803
     3   6 C        2.906    -0.048    29.186     8.858
     4   6 C        3.061     0.034    27.182     8.550
     5   6 C        3.232     0.074    25.559     8.207
     6   6 C        2.909    -0.041    29.028     8.835
     7   7 N        1.862    -0.319    29.120     7.998
     8   6 C        3.358     0.224    20.853     7.175
     9   7 N        2.801    -0.043    22.063     6.976
    10   6 C        2.883     0.141    24.936     8.187
    11   6 C        2.918    -0.069    29.717     8.939
    12   6 C        2.970    -0.012    28.303     8.727
    13   6 C        2.965     0.002    27.984     8.677
    14   6 C        2.924    -0.047    29.177     8.858
    15   6 C        2.902    -0.052    29.288     8.874
    16   6 C        3.091     0.114    25.389     8.259
    17   8 O        1.713    -0.231    17.827     5.701
    18   6 C        3.091     0.126    25.137     8.218
    19   6 C        2.908    -0.051    29.256     8.869
    20   6 C        2.925    -0.031    28.783     8.798
    21   6 C        2.920    -0.037    28.929     8.820
    22   6 C        2.913    -0.031    28.772     8.796
    23   6 C        3.051    -0.020    28.457     8.749
    24   6 C        3.037    -0.018    28.414     8.743
    25   6 C        2.912    -0.053    29.311     8.878
    26   6 C        2.912    -0.056    29.379     8.888
    27   6 C        2.887     0.049    26.895     8.502
    28   7 N        1.840    -0.263    27.686     7.798
    29   6 C        3.091     0.040    27.007     8.518
    30   6 C        2.910    -0.044    29.088     8.844
    31   6 C        2.923    -0.033    28.822     8.804
    32   6 C        2.924    -0.031    28.766     8.796
    33   6 C        2.909    -0.044    29.099     8.845
    34   6 C        3.033     0.043    27.007     8.524
    35   7 N        2.897    -0.062    22.445     7.036
    36   1 H        0.926     0.050     2.316     2.380
    37   1 H        0.926     0.053     2.288     2.366
    38   1 H        0.926     0.046     2.371     2.408
    39   1 H        0.926     0.052     2.294     2.369
    40   1 H        0.926     0.037     2.491     2.468
    41   1 H        0.926     0.037     2.484     2.465
    42   1 H        0.926     0.044     2.393     2.419
    43   1 H        0.926     0.049     2.330     2.387
    44   1 H        0.926     0.048     2.347     2.396
    45   1 H        0.926     0.045     2.379     2.412
    46   1 H        0.926     0.045     2.387     2.416
    47   1 H        0.926     0.038     2.472     2.459
    48   1 H        0.926     0.041     2.430     2.438
    49   1 H        0.925     0.041     2.436     2.441
    50   1 H        0.926     0.053     2.279     2.361
    51   1 H        0.926     0.060     2.197     2.318
    52   1 H        0.926     0.062     2.179     2.309
    53   1 H        0.926     0.057     2.237     2.339

molecular dipole:
                 x           y           z       tot (Debye)
 q only:       -0.948       1.122       0.281
   full:       -0.855       1.467       0.443       4.461

 projected vibrational frequencies (cm⁻¹)
eigval :       -0.00    -0.00    -0.00     0.00     0.00     0.00
eigval :       12.57    22.98    25.93    48.85    61.57    78.18
eigval :       83.91    95.34   107.36   119.92   130.12   155.41
eigval :      181.25   191.06   205.26   230.35   240.68   268.55
eigval :      285.54   308.07   313.77   324.37   349.58   362.84
eigval :      374.22   395.23   401.34   407.98   411.81   420.61
eigval :      444.79   447.20   482.52   511.23   521.75   529.55
eigval :      533.74   536.60   542.94   544.67   584.79   592.51
eigval :      593.54   595.75   611.49   647.18   655.16   658.90
eigval :      666.44   676.79   701.31   703.22   704.25   726.77
eigval :      731.53   759.50   769.23   769.56   775.00   785.27
eigval :      794.39   799.32   820.32   840.15   846.27   856.13
eigval :      860.45   863.09   870.91   880.56   883.45   885.99
eigval :      897.12   900.46   909.26   912.36   916.95   920.46
eigval :      931.26   975.02   988.58  1009.18  1052.04  1059.45
eigval :     1062.11  1086.84  1095.85  1102.59  1122.48  1127.18
eigval :     1135.80  1145.38  1158.39  1167.68  1170.47  1180.53
eigval :     1186.33  1198.71  1214.02  1226.82  1230.81  1236.51
eigval :     1240.13  1254.89  1259.30  1274.06  1279.70  1283.41
eigval :     1303.02  1317.02  1326.33  1352.08  1354.99  1361.71
eigval :     1367.48  1376.33  1390.77  1400.54  1408.75  1420.01
eigval :     1429.71  1444.93  1454.24  1469.57  1478.52  1482.10
eigval :     1517.16  1548.26  1561.77  1574.17  1576.89  1584.26
eigval :     1589.39  1591.76  1624.64  3053.75  3083.48  3086.31
eigval :     3089.56  3090.31  3092.16  3095.23  3096.89  3097.21
eigval :     3101.48  3102.68  3104.51  3109.43  3109.89  3110.57
eigval :     3113.01  3115.25  3122.05

   temp. (K)  partition function   enthalpy   heat capacity  entropy
                                   cal/mol     cal/K/mol   cal/K/mol   J/K/mol
 298.15  VIB  0.183E+11            14623.365     98.115     88.330
         ROT  0.377E+08              888.752      2.981     37.652
         INT  0.690E+18            15512.118    101.096    125.981
         TR   0.925E+28             1481.254      4.968     44.185
         TOT                       16993.3715   106.0642   170.1659   711.9740

       T/K    H(0)-H(T)+PV         H(T)/Eh          T*S/Eh         G(T)/Eh
   ------------------------------------------------------------------------
    298.15    0.270807E-01    0.415761E+00    0.808513E-01    0.334910E+00
   ------------------------------------------------------------------------

         :::::::::::::::::::::::::::::::::::::::::::::::::::::
         ::                  THERMODYNAMIC                  ::
         :::::::::::::::::::::::::::::::::::::::::::::::::::::
         :: total free energy         -88.863012582735 Eh   ::
         ::.................................................::
         :: total energy              -89.197922780724 Eh   ::
         :: zero point energy           0.388680835324 Eh   ::
         :: G(RRHO) w/o ZPVE           -0.053770637335 Eh   ::
         :: G(RRHO) contrib.            0.334910197989 Eh   ::
         :::::::::::::::::::::::::::::::::::::::::::::::::::::

           -------------------------------------------------
          | TOTAL ENERGY              -89.197922780724 Eh   |
          | TOTAL ENTHALPY            -88.782161284099 Eh   |
          | TOTAL FREE ENERGY         -88.863012582735 Eh   |
          | GRADIENT NORM               0.000049514328 Eh/α |
          | HOMO-LUMO GAP               0.416678970899 eV   |
           -------------------------------------------------

 * finished run on 2025/09/04 at 15:06:46.294
