   * xtb version 6.7.1 (edcfbbe) compiled by 'albert@albert-system' on 2024-07-22

   ID    Z sym.   atoms
    1    6 C      1-6, 8, 10-16, 18-27, 29-34
    2    7 N      7, 9, 28, 35
    3    8 O      17
    4    1 H      36-53

          program call               : xtb data2507/toluene/4-DBFBI/4-DBFBI_toluene_T1_crest.xyz --gfn 2 --uhf 2 --gbsa toluene --ohess vtight --parallel 40 --molden --ceasefiles --namespace data2507/toluene/4-DBFBI/4-DBFBI_toluene_T1_finalOpt
      * Solvation model:               GBSA
        Solvent                        toluene
        Solvent mass                       9.2140E+01 g/mol
          :  Hamiltonian                  GFN2-xTB          :
 * total energy  :   -89.2049816 Eh     change       -0.2320633E-10 Eh
 * total energy  :   -89.2050199 Eh     change       -0.3836068E-04 Eh
 * total energy  :   -89.2050352 Eh     change       -0.1524310E-04 Eh
 * total energy  :   -89.2050389 Eh     change       -0.3746702E-05 Eh
 * total energy  :   -89.2050422 Eh     change       -0.3299064E-05 Eh
 * total energy  :   -89.2050451 Eh     change       -0.2933413E-05 Eh
 * total energy  :   -89.2050479 Eh     change       -0.2780112E-05 Eh
 * total energy  :   -89.2050501 Eh     change       -0.2164139E-05 Eh
 * total energy  :   -89.2050519 Eh     change       -0.1774201E-05 Eh
 * total energy  :   -89.2050535 Eh     change       -0.1641433E-05 Eh
 * total energy  :   -89.2050591 Eh     change       -0.1195557E-05 Eh
 * total energy  :   -89.2050602 Eh     change       -0.1090289E-05 Eh
 * total energy  :   -89.2050613 Eh     change       -0.1099066E-05 Eh
 * total energy  :   -89.2050623 Eh     change       -0.1075934E-05 Eh
 * total energy  :   -89.2050632 Eh     change       -0.8769376E-06 Eh
 * total energy  :   -89.2050638 Eh     change       -0.5987296E-06 Eh
 * total energy  :   -89.2050642 Eh     change       -0.4036111E-06 Eh
 * total energy  :   -89.2050646 Eh     change       -0.3796471E-06 Eh
 * total energy  :   -89.2050646 Eh     change       -0.7299164E-08 Eh
   *** GEOMETRY OPTIMIZATION CONVERGED AFTER 22 ITERATIONS ***

 final structure:
================
53
 xtb: 6.7.1 (edcfbbe)
C           -2.22217828738147       -4.86906681909763        0.27435911202394
C           -3.59913392859055       -4.75085295841732        0.09036389021042
C           -4.21287373596432       -3.51195704654150       -0.02765991041934
C           -3.40099998564407       -2.39955168074119        0.04103108185092
C           -1.99075327466519       -2.50545660584498        0.23091140446829
C           -1.40093732638668       -3.76157072012657        0.34650496801439
N           -1.40480162015322       -1.26516969186328        0.27647370754444
C           -2.40591991039045       -0.42958517380574        0.11612781650151
N           -2.55833496833149        0.92264628054916        0.06281471798879
C           -1.53499673495235        1.86166323480800        0.17594412351541
C           -0.22350765578663        1.46875057353726        0.07452891879609
C            0.83031706387382        2.42104233936771        0.16329738859374
C            2.19713793322656        2.05385511820089        0.06700718131015
C            3.23304975699536        3.04137074835371       -0.04622291192621
C            4.56094789490409        2.72729391330741       -0.14121420251268
C            4.91714112556719        1.37666479138300       -0.13000421988490
O            6.17063516540950        0.85424045671098       -0.21618928219104
C            6.02590741637996       -0.50102124388087       -0.17225674496836
C            7.04318465626285       -1.43688970254533       -0.23613383127488
C            6.67921187927102       -2.77427895103399       -0.18249207727518
C            5.34859934004961       -3.15973389786141       -0.06954343777778
C            4.33144085593861       -2.21891038604182       -0.00265714894013
C            4.67142506991222       -0.87694398741956       -0.05427666878666
C            3.92935369374754        0.36271989386224       -0.02394775990741
C            2.59938929980526        0.68179655328829        0.07667015277198
C            0.38546155049250        3.77931568596295        0.35162668311691
C           -0.94745163983048        4.05846702677617        0.44632953812788
N           -1.92113452547590        3.14414768433868        0.37400642195139
C           -3.91565110373503        1.16878907055219       -0.12773936704368
C           -4.61213582227923        2.35917240792529       -0.26285020087069
C           -5.98392551723429        2.28680743846528       -0.43406596373441
C           -6.65074986433295        1.06484677442670       -0.48256113688339
C           -5.96847505612307       -0.13456220245205       -0.35877365308275
C           -4.59879725084174       -0.07194015058098       -0.18291668974152
N           -3.63420458484323       -1.04216261244512       -0.02978768953186
H           -1.78935001737850       -5.85417269799950        0.36213317721921
H           -4.20360477525089       -5.64348178147000        0.04057936479454
H           -5.27908068992435       -3.42722502676467       -0.16630407423156
H           -0.33614110672521       -3.85088082985625        0.48945766368416
H           -0.03000737102664        0.42997799337390       -0.13075902841996
H            2.95647602494849        4.08188962776689       -0.07653181676888
H            5.31728457484309        3.49162460546498       -0.22894878161388
H            8.07327435510152       -1.13032608835702       -0.32522796300424
H            7.44840464410993       -3.53007922430281       -0.23155305308131
H            5.10391404184073       -4.21062484839986       -0.03307838575978
H            3.29866227639041       -2.51910433249167        0.08536076393620
H            1.86959762434987       -0.10303455839497        0.18091601867626
H            1.09186815473774        4.58232656998591        0.47207758977306
H           -1.29473556542826        5.06813557187696        0.62387073508593
H           -4.08541500688077        3.29832015480391       -0.22801230939327
H           -6.54812110557529        3.20012281087449       -0.53895545477041
H           -7.71998500350345        1.05006145742092       -0.62552091414871
H           -6.48326936272247       -1.08064648434785       -0.39823093511155

          :  Hamiltonian                  GFN2-xTB          :
         :: gradient norm              0.000076710401 Eh/a0 ::
         :: HOMO-LUMO gap              0.447323551049 eV    ::
         :: SCC energy               -90.738060880476 Eh    ::
         :: -> dispersion             -0.070438958554 Eh    ::
         :: -> Gsolv                  -0.039738776007 Eh    ::
         :: repulsion energy           1.532996274481 Eh    ::

    * Orbital Energies and Occupations

         #    Occupation            Energy/Eh            Energy/eV
      -------------------------------------------------------------
         1        2.0000           -0.7407644             -20.1572
       ...           ...                  ...                  ...
        71        2.0000           -0.4296629             -11.6917
        72        2.0000           -0.4291425             -11.6776
        73        2.0000           -0.4259294             -11.5901
        74        2.0000           -0.4169509             -11.3458
        75        2.0000           -0.4118626             -11.2074
        76        2.0000           -0.4083235             -11.1110
        77        2.0000           -0.4049857             -11.0202
        78        2.0000           -0.3963734             -10.7859
        79        2.0000           -0.3909616             -10.6386
        80        1.9939           -0.3835326             -10.4365
        81        1.5650           -0.3789396             -10.3115
        82        1.4411           -0.3784661             -10.2986
        83        0.9998           -0.2740279              -7.4567 (HOMO)
        84        0.0002           -0.2575889              -7.0094 (LUMO)
        85        0.0000           -0.2534957              -6.8980
        86                         -0.2474629              -6.7338
        87                         -0.2430313              -6.6132
        88                         -0.2265977              -6.1660
        89                         -0.2177905              -5.9264
        90                         -0.2128065              -5.7908
        91                         -0.2023652              -5.5066
        92                         -0.1918639              -5.2209
        93                         -0.1676350              -4.5616
        94                         -0.1189198              -3.2360
       ...                                ...                  ...
       158                          0.7428376              20.2136
      -------------------------------------------------------------
                  HL-Gap            0.0164390 Eh            0.4473 eV

     #   Z          covCN         q      C6AA      α(0)
     1   6 C        2.920    -0.037    28.918     8.819
     2   6 C        2.926    -0.034    28.842     8.807
     3   6 C        2.906    -0.048    29.191     8.859
     4   6 C        3.062     0.033    27.196     8.552
     5   6 C        3.222     0.072    25.675     8.236
     6   6 C        2.909    -0.043    29.078     8.842
     7   7 N        1.863    -0.335    29.553     8.058
     8   6 C        3.353     0.209    21.210     7.251
     9   7 N        2.798    -0.038    21.977     6.963
    10   6 C        2.884     0.137    25.005     8.198
    11   6 C        2.918    -0.069    29.718     8.939
    12   6 C        2.970    -0.009    28.236     8.716
    13   6 C        2.965     0.004    27.937     8.670
    14   6 C        2.924    -0.045    29.115     8.849
    15   6 C        2.901    -0.051    29.265     8.870
    16   6 C        3.090     0.116    25.345     8.252
    17   8 O        1.713    -0.228    17.773     5.692
    18   6 C        3.090     0.126    25.138     8.218
    19   6 C        2.908    -0.050    29.243     8.867
    20   6 C        2.925    -0.031    28.778     8.797
    21   6 C        2.920    -0.037    28.922     8.819
    22   6 C        2.913    -0.030    28.759     8.794
    23   6 C        3.050    -0.020    28.447     8.747
    24   6 C        3.037    -0.017    28.390     8.739
    25   6 C        2.912    -0.052    29.286     8.874
    26   6 C        2.911    -0.058    29.430     8.896
    27   6 C        2.887     0.049    26.901     8.503
    28   7 N        1.840    -0.285    28.229     7.874
    29   6 C        3.090     0.047    26.849     8.493
    30   6 C        2.910    -0.041    29.026     8.834
    31   6 C        2.923    -0.034    28.847     8.808
    32   6 C        2.924    -0.030    28.761     8.795
    33   6 C        2.909    -0.045    29.129     8.850
    34   6 C        3.035     0.040    27.077     8.535
    35   7 N        2.894    -0.059    22.383     7.027
    36   1 H        0.926     0.049     2.338     2.391
    37   1 H        0.926     0.050     2.315     2.379
    38   1 H        0.926     0.045     2.387     2.416
    39   1 H        0.926     0.049     2.327     2.385
    40   1 H        0.926     0.057     2.237     2.339
    41   1 H        0.926     0.044     2.396     2.421
    42   1 H        0.926     0.046     2.366     2.405
    43   1 H        0.926     0.050     2.315     2.379
    44   1 H        0.926     0.049     2.332     2.388
    45   1 H        0.926     0.046     2.367     2.406
    46   1 H        0.926     0.045     2.382     2.413
    47   1 H        0.926     0.041     2.438     2.442
    48   1 H        0.926     0.038     2.470     2.458
    49   1 H        0.925     0.036     2.500     2.473
    50   1 H        0.926     0.074     2.047     2.237
    51   1 H        0.926     0.059     2.212     2.326
    52   1 H        0.926     0.060     2.200     2.320
    53   1 H        0.926     0.055     2.262     2.352

molecular dipole:
                 x           y           z       tot (Debye)
 q only:       -1.524      -0.946      -0.288
   full:       -1.483      -0.978      -0.349       4.601

 projected vibrational frequencies (cm⁻¹)
eigval :       -0.00    -0.00    -0.00     0.00     0.00     0.00
eigval :       12.58    25.20    32.33    51.86    57.11    73.38
eigval :       82.39   105.32   107.68   121.93   144.48   159.24
eigval :      169.66   182.73   201.77   237.12   252.69   269.32
eigval :      286.49   306.63   313.18   318.84   343.02   355.35
eigval :      378.12   383.91   404.01   408.45   413.54   419.15
eigval :      432.16   445.26   485.64   511.11   517.67   526.00
eigval :      534.87   535.99   541.19   544.59   584.95   591.74
eigval :      592.82   595.01   613.18   642.53   652.55   662.97
eigval :      664.68   676.17   697.32   706.66   712.29   726.95
eigval :      727.71   765.31   770.38   773.23   778.84   788.69
eigval :      792.46   799.37   815.34   827.81   840.80   855.15
eigval :      864.37   864.66   866.86   877.41   887.42   891.17
eigval :      899.62   900.33   914.62   915.44   916.36   918.30
eigval :      930.46   972.82   988.30  1016.96  1051.07  1053.25
eigval :     1059.35  1063.98  1079.93  1098.89  1107.47  1123.70
eigval :     1131.57  1152.01  1161.75  1166.52  1169.09  1178.78
eigval :     1184.78  1199.81  1208.97  1222.29  1231.15  1234.57
eigval :     1249.35  1251.79  1256.52  1270.54  1275.76  1289.89
eigval :     1317.40  1322.30  1326.86  1352.59  1355.61  1364.03
eigval :     1367.76  1374.97  1389.95  1397.24  1406.91  1415.20
eigval :     1420.47  1439.97  1454.48  1468.76  1478.79  1482.45
eigval :     1512.81  1534.11  1559.22  1568.62  1574.85  1583.36
eigval :     1585.65  1588.11  1619.27  3048.78  3083.07  3086.61
eigval :     3090.52  3092.02  3092.25  3094.69  3098.78  3101.75
eigval :     3103.20  3104.96  3109.59  3111.45  3112.33  3113.85
eigval :     3118.48  3120.98  3122.01

   temp. (K)  partition function   enthalpy   heat capacity  entropy
                                   cal/mol     cal/K/mol   cal/K/mol   J/K/mol
 298.15  VIB  0.133E+11            14624.485     98.328     88.149
         ROT  0.354E+08              888.752      2.981     37.526
         INT  0.471E+18            15513.237    101.308    125.675
         TR   0.925E+28             1481.254      4.968     44.185
         TOT                       16994.4908   106.2765   169.8595   710.6922

       T/K    H(0)-H(T)+PV         H(T)/Eh          T*S/Eh         G(T)/Eh
   ------------------------------------------------------------------------
    298.15    0.270824E-01    0.415537E+00    0.807057E-01    0.334831E+00
   ------------------------------------------------------------------------

         :::::::::::::::::::::::::::::::::::::::::::::::::::::
         ::                  THERMODYNAMIC                  ::
         :::::::::::::::::::::::::::::::::::::::::::::::::::::
         :: total free energy         -88.870233503579 Eh   ::
         ::.................................................::
         :: total energy              -89.205064602614 Eh   ::
         :: zero point energy           0.388454391315 Eh   ::
         :: G(RRHO) w/o ZPVE           -0.053623292281 Eh   ::
         :: G(RRHO) contrib.            0.334831099034 Eh   ::
         :::::::::::::::::::::::::::::::::::::::::::::::::::::

           -------------------------------------------------
          | TOTAL ENERGY              -89.205064602614 Eh   |
          | TOTAL ENTHALPY            -88.789527766284 Eh   |
          | TOTAL FREE ENERGY         -88.870233503579 Eh   |
          | GRADIENT NORM               0.000073397166 Eh/α |
          | HOMO-LUMO GAP               0.447327965831 eV   |
           -------------------------------------------------

 * finished run on 2025/09/04 at 15:09:25.271
