   * xtb version 6.7.1 (edcfbbe) compiled by 'albert@albert-system' on 2024-07-22

   ID    Z sym.   atoms
    1    6 C      1-11, 13, 15-19
    2    7 N      12, 14
    3    1 H      20-29

          program call               : xtb data2507/gas/PyI/PyI_gas_S0_finalOpt.xtbopt.xyz --gfn 2 --spinpol --tblite --uhf 2 --ohess vtight --parallel 40 --molden --ceasefiles --namespace data2507/gas/PyI/PyI_gas_T1_preOpt
 * total energy  :   -47.3156460 Eh     change        0.2112349E-07 Eh
 * total energy  :   -47.3226582 Eh     change       -0.7012176E-02 Eh
 * total energy  :   -47.3240567 Eh     change       -0.1398544E-02 Eh
 * total energy  :   -47.3240983 Eh     change       -0.4162394E-04 Eh
 * total energy  :   -47.3241088 Eh     change       -0.1047819E-04 Eh
 * total energy  :   -47.3241104 Eh     change       -0.1550036E-05 Eh
 * total energy  :   -47.3241105 Eh     change       -0.1728078E-06 Eh
 * total energy  :   -47.3241104 Eh     change        0.1412869E-06 Eh
 * total energy  :   -47.3241105 Eh     change       -0.1279509E-06 Eh
 * total energy  :   -47.3241104 Eh     change        0.1248497E-06 Eh
 * total energy  :   -47.3241104 Eh     change        0.1323863E-06 Eh
 * total energy  :   -47.3241105 Eh     change       -0.1252058E-06 Eh
 * total energy  :   -47.3241104 Eh     change        0.1322334E-06 Eh
 * total energy  :   -47.3241105 Eh     change       -0.1274230E-06 Eh
 * total energy  :   -47.3241104 Eh     change        0.1368779E-06 Eh
 * total energy  :   -47.3241105 Eh     change       -0.1310886E-06 Eh
 * total energy  :   -47.3241104 Eh     change        0.1314889E-06 Eh
 * total energy  :   -47.3241105 Eh     change       -0.1360377E-06 Eh
 * total energy  :   -47.3241105 Eh     change       -0.5256588E-08 Eh
   *** GEOMETRY OPTIMIZATION CONVERGED AFTER 22 ITERATIONS ***

 final structure:
================
29
 xtb: 6.7.1 (edcfbbe)
C            0.58926396771881        3.55457141940187       -0.00013686447386
C            1.79547072984222        2.88745157115694       -0.00006325526363
C            1.85083915938872        1.45562513792453        0.00004928560904
C            3.06026541367352        0.77381671201673        0.00012023963756
C            3.09357068290853       -0.62759482244269        0.00025035969622
C            1.91958703816749       -1.36908926320534        0.00031327517727
C            1.93819372157081       -2.80247339020991        0.00046871779440
C            0.76538713237638       -3.52912720877761        0.00053392928506
C           -0.45970380888593       -2.89567297822356        0.00043450914012
C           -0.52852502959512       -1.46595018561251        0.00026729959780
C           -1.72238879513537       -0.74978286574957        0.00014121927375
N           -3.03770119853390       -1.14250830825945        0.00010917861538
C           -3.78584329594016        0.00222350484444       -0.00004110015236
N           -3.07755950395643        1.08528332334182       -0.00010106380525
C           -1.77081731860632        0.67378846857045        0.00000670626168
C           -0.59521749569373        1.43275173747279       -0.00000775153704
C           -0.60337052361106        2.85695740175161       -0.00011560236169
C            0.62978353920730        0.72287845311833        0.00008859195369
C            0.66483651384921       -0.69900270359476        0.00022283238577
H            0.57629061769949        4.63526712128779       -0.00021380997025
H            2.72712344523716        3.43328172889683       -0.00008544697670
H            3.98632063834283        1.32961336216788        0.00007820373572
H            4.04510247014419       -1.13877310300039        0.00030649945981
H            2.89460540997576       -3.30258295254995        0.00054016323266
H            0.80629049141283       -4.60933040202315        0.00066348539531
H           -1.37425817263159       -3.46922598817849        0.00048786072740
H           -3.38132276517329       -2.08727032578875        0.00016382278235
H           -4.85875242832990       -0.01737406929859       -0.00010193059850
H           -1.55816308981844        3.35631305404208       -0.00017644068097

 projected vibrational frequencies (cm⁻¹)
eigval :       -0.00    -0.00    -0.00     0.00     0.00     0.00
eigval :       75.79   109.39   120.18   184.28   191.97   244.28
eigval :      273.84   290.31   318.65   370.78   373.59   405.68
eigval :      422.13   465.08   482.25   493.67   505.99   522.94
eigval :      549.55   563.11   570.38   596.29   632.54   646.13
eigval :      690.70   692.41   703.16   724.54   743.90   758.79
eigval :      768.04   799.58   817.63   820.86   851.85   870.01
eigval :      884.07   905.61   909.62   925.77   948.40  1044.25
eigval :     1072.36  1103.95  1114.40  1127.76  1140.18  1153.35
eigval :     1170.43  1178.13  1198.96  1210.95  1255.06  1266.81
eigval :     1274.87  1289.97  1311.01  1328.07  1360.89  1374.15
eigval :     1378.73  1402.37  1427.47  1456.40  1460.32  1475.58
eigval :     1477.51  1497.92  1508.04  1561.38  1591.93  3067.30
eigval :     3071.07  3074.57  3081.54  3083.84  3087.24  3092.30
eigval :     3116.61  3155.93  3484.61

   temp. (K)  partition function   enthalpy   heat capacity  entropy
                                   cal/mol     cal/K/mol   cal/K/mol   J/K/mol
 298.15  VIB  0.118E+04             6434.139     50.410     35.463
         ROT  0.339E+07              888.752      2.981     32.861
         INT  0.399E+10             7322.892     53.391     68.324
         TR   0.365E+28             1481.254      4.968     42.337
         TOT                        8804.1458    58.3594   110.6607   463.0045

       T/K    H(0)-H(T)+PV         H(T)/Eh          T*S/Eh         G(T)/Eh
   ------------------------------------------------------------------------
    298.15    0.140303E-01    0.227613E+00    0.525785E-01    0.175035E+00
   ------------------------------------------------------------------------

         :::::::::::::::::::::::::::::::::::::::::::::::::::::
         ::                  THERMODYNAMIC                  ::
         :::::::::::::::::::::::::::::::::::::::::::::::::::::
         :: total free energy         -47.149075955955 Eh   ::
         ::.................................................::
         :: total energy              -47.324110505922 Eh   ::
         :: zero point energy           0.213582732169 Eh   ::
         :: G(RRHO) w/o ZPVE           -0.038548182202 Eh   ::
         :: G(RRHO) contrib.            0.175034549967 Eh   ::
         :::::::::::::::::::::::::::::::::::::::::::::::::::::

           -------------------------------------------------
          | TOTAL ENERGY              -47.324110505922 Eh   |
          | TOTAL ENTHALPY            -47.096497474425 Eh   |
          | TOTAL FREE ENERGY         -47.149075955955 Eh   |
          | GRADIENT NORM               0.000028622993 Eh/α |
           -------------------------------------------------

 * finished run on 2025/08/26 at 13:08:00.942
