   * xtb version 6.7.1 (edcfbbe) compiled by 'albert@albert-system' on 2024-07-22

   ID    Z sym.   atoms
    1    6 C      1-11, 13, 15-19
    2    7 N      12, 14
    3    1 H      20-29

          program call               : xtb data2507/gas/PyI/PyI_gas_S0_crest.xyz --gfn 2 --ohess vtight --parallel 40 --molden --ceasefiles --namespace data2507/gas/PyI/PyI_gas_S0_finalOpt
          :  Hamiltonian                  GFN2-xTB          :
 * total energy  :   -47.4024260 Eh     change       -0.1054168E-08 Eh
 * total energy  :   -47.4024264 Eh     change       -0.4049622E-06 Eh
 * total energy  :   -47.4024266 Eh     change       -0.1823126E-06 Eh
 * total energy  :   -47.4024266 Eh     change       -0.1183920E-07 Eh
   *** GEOMETRY OPTIMIZATION CONVERGED AFTER 4 ITERATIONS ***

 final structure:
================
29
 xtb: 6.7.1 (edcfbbe)
C            0.59648558073223        3.52989526126244        0.00005937054627
C            1.80091624097092        2.85491295469806        0.00004851323817
C            1.84243610639226        1.45770219508249        0.00004027366897
C            3.07902177426774        0.74818858230229       -0.00004846424548
C            3.11237294115871       -0.60339953508989       -0.00003168824426
C            1.91131852954593       -1.37189414951650        0.00016812338155
C            1.93923135836388       -2.76957381805437        0.00040696543357
C            0.76997411293288       -3.50215910810103        0.00076739066837
C           -0.45799020685721       -2.86245861363926        0.00071178577817
C           -0.52829138575975       -1.47194467681653        0.00033158514344
C           -1.74113271555294       -0.73236968763118        0.00011215864799
N           -3.04911423605586       -1.13886729114399       -0.00004125461186
C           -3.80390785471890       -0.00654061669517       -0.00028544491087
N           -3.08974982581001        1.07891539356252       -0.00024007289875
C           -1.78948093306202        0.65955424167123        0.00000130767788
C           -0.59613233850794        1.44036081064519        0.00005120009952
C           -0.59854483747099        2.83040445795736        0.00003579302713
C            0.62962902716020        0.72493980216086        0.00008513495842
C            0.66520664849222       -0.69882314409080        0.00018629465360
H            0.58604936186060        4.61026346498656        0.00009446695622
H            2.73162352185211        3.40464139831485        0.00006603192222
H            3.99447554192615        1.32314746595610       -0.00013012883963
H            4.05401713127893       -1.13422498150925       -0.00011912126320
H            2.89465177664676       -3.27434220344945        0.00036503539907
H            0.80999155797075       -4.58184476160985        0.00111236551870
H           -1.36680587560196       -3.44785821800225        0.00104494934259
H           -3.38285559082164       -2.08790620628415       -0.00014997706188
H           -4.87602103725304       -0.02695712366236       -0.00047985920453
H           -1.54805791098002        3.34232655799607        0.00005322151859

          :  Hamiltonian                  GFN2-xTB          :
         :: gradient norm              0.000017435769 Eh/a0 ::
         :: HOMO-LUMO gap              2.473297185016 eV    ::
         :: SCC energy               -48.277432154219 Eh    ::
         :: -> dispersion             -0.037447220594 Eh    ::
         :: repulsion energy           0.875005557328 Eh    ::

    * Orbital Energies and Occupations

         #    Occupation            Energy/Eh            Energy/eV
      -------------------------------------------------------------
         1        2.0000           -0.6908664             -18.7994
       ...           ...                  ...                  ...
        32        2.0000           -0.4552171             -12.3871
        33        2.0000           -0.4515100             -12.2862
        34        2.0000           -0.4406718             -11.9913
        35        2.0000           -0.4401051             -11.9759
        36        2.0000           -0.4327718             -11.7763
        37        2.0000           -0.4288783             -11.6704
        38        2.0000           -0.4107587             -11.1773
        39        2.0000           -0.4094692             -11.1422
        40        2.0000           -0.4085110             -11.1161
        41        2.0000           -0.3959996             -10.7757
        42        2.0000           -0.3859198             -10.5014
        43        2.0000           -0.3787290             -10.3057
        44        2.0000           -0.3607705              -9.8171 (HOMO)
        45                         -0.2698785              -7.3438 (LUMO)
        46                         -0.2438654              -6.6359
        47                         -0.2173320              -5.9139
        48                         -0.2062152              -5.6114
        49                         -0.1825157              -4.9665
        50                         -0.1747630              -4.7555
        51                         -0.1121738              -3.0524
        52                         -0.0956309              -2.6022
        53                         -0.0218998              -0.5959
        54                          0.0099086               0.2696
        55                          0.0963761               2.6225
       ...                                ...                  ...
        86                          0.7340846              19.9755
      -------------------------------------------------------------
                  HL-Gap            0.0908920 Eh            2.4733 eV

     #   Z          covCN         q      C6AA      α(0)
     1   6 C        2.915    -0.029    28.734     8.790
     2   6 C        2.921    -0.038    28.938     8.822
     3   6 C        2.983     0.012    27.735     8.639
     4   6 C        2.914    -0.035    28.864     8.810
     5   6 C        2.914    -0.037    28.931     8.820
     6   6 C        2.983     0.013    27.707     8.634
     7   6 C        2.921    -0.039    28.968     8.826
     8   6 C        2.914    -0.031    28.783     8.797
     9   6 C        2.918    -0.041    29.011     8.832
    10   6 C        2.975    -0.004    28.111     8.697
    11   6 C        3.096     0.026    27.300     8.563
    12   7 N        2.794    -0.105    23.306     7.170
    13   6 C        3.159     0.099    25.521     8.259
    14   7 N        1.895    -0.267    27.780     7.814
    15   6 C        3.228     0.055    26.009     8.284
    16   6 C        2.979     0.004    27.924     8.668
    17   6 C        2.919    -0.032    28.791     8.799
    18   6 C        2.994    -0.004    28.107     8.697
    19   6 C        2.997    -0.001    28.034     8.685
    20   1 H        0.926     0.032     2.562     2.503
    21   1 H        0.926     0.031     2.578     2.511
    22   1 H        0.926     0.032     2.561     2.502
    23   1 H        0.926     0.031     2.573     2.509
    24   1 H        0.926     0.031     2.576     2.510
    25   1 H        0.926     0.028     2.611     2.527
    26   1 H        0.926     0.018     2.757     2.596
    27   1 H        0.860     0.162     1.322     1.801
    28   1 H        0.926     0.037     2.489     2.467
    29   1 H        0.926     0.051     2.303     2.373

molecular dipole:
                 x           y           z       tot (Debye)
 q only:       -0.125      -0.599      -0.000
   full:       -0.178      -1.223       0.000       3.141

 projected vibrational frequencies (cm⁻¹)
eigval :       -0.00    -0.00    -0.00     0.00     0.00     0.00
eigval :       72.02   116.28   119.54   192.35   211.56   244.31
eigval :      289.38   310.23   325.40   370.23   414.50   415.60
eigval :      453.76   469.58   487.93   534.25   537.16   566.62
eigval :      567.45   573.90   594.96   628.70   647.79   682.86
eigval :      704.42   706.66   753.34   763.42   774.71   798.82
eigval :      809.06   839.51   876.27   884.69   889.24   891.80
eigval :      917.85   921.28   926.17   943.75   996.24  1051.69
eigval :     1090.75  1110.27  1134.72  1141.61  1161.47  1177.32
eigval :     1194.54  1198.24  1223.32  1239.59  1280.98  1298.63
eigval :     1315.90  1324.91  1344.83  1376.75  1382.21  1398.13
eigval :     1401.97  1420.58  1472.37  1485.89  1494.74  1524.65
eigval :     1538.61  1563.75  1585.88  1591.25  1608.75  3064.37
eigval :     3064.83  3069.59  3073.64  3078.52  3082.54  3086.60
eigval :     3107.08  3163.10  3475.64

   temp. (K)  partition function   enthalpy   heat capacity  entropy
                                   cal/mol     cal/K/mol   cal/K/mol   J/K/mol
 298.15  VIB   818.                 6101.157     48.230     33.595
         ROT  0.337E+07              888.752      2.981     32.850
         INT  0.276E+10             6989.909     51.211     66.444
         TR   0.365E+28             1481.254      4.968     42.337
         TOT                        8471.1628    56.1792   108.7806   455.1379

       T/K    H(0)-H(T)+PV         H(T)/Eh          T*S/Eh         G(T)/Eh
   ------------------------------------------------------------------------
    298.15    0.134997E-01    0.231347E+00    0.516852E-01    0.179662E+00
   ------------------------------------------------------------------------

         :::::::::::::::::::::::::::::::::::::::::::::::::::::
         ::                  THERMODYNAMIC                  ::
         :::::::::::::::::::::::::::::::::::::::::::::::::::::
         :: total free energy         -47.222765072311 Eh   ::
         ::.................................................::
         :: total energy              -47.402426596891 Eh   ::
         :: zero point energy           0.217847021830 Eh   ::
         :: G(RRHO) w/o ZPVE           -0.038185497250 Eh   ::
         :: G(RRHO) contrib.            0.179661524580 Eh   ::
         :::::::::::::::::::::::::::::::::::::::::::::::::::::

           -------------------------------------------------
          | TOTAL ENERGY              -47.402426596891 Eh   |
          | TOTAL ENTHALPY            -47.171079917838 Eh   |
          | TOTAL FREE ENERGY         -47.222765072311 Eh   |
          | GRADIENT NORM               0.000017457315 Eh/α |
          | HOMO-LUMO GAP               2.473297314212 eV   |
           -------------------------------------------------

 * finished run on 2025/08/26 at 13:07:59.754
