   * xtb version 6.7.1 (edcfbbe) compiled by 'albert@albert-system' on 2024-07-22

   ID    Z sym.   atoms
    1    6 C      1-11, 13, 15-19
    2    7 N      12, 14
    3    1 H      20-29

          program call               : xtb data2507/gas/PyI/PyI_gas_T1_crest.xyz --gfn 2 --spinpol --tblite --uhf 2 --ohess vtight --parallel 40 --molden --ceasefiles --namespace data2507/gas/PyI/PyI_gas_T1_finalOpt
 * total energy  :   -47.3240953 Eh     change        0.4822809E-08 Eh
 * total energy  :   -47.3241071 Eh     change       -0.1181359E-04 Eh
 * total energy  :   -47.3241101 Eh     change       -0.2976855E-05 Eh
 * total energy  :   -47.3241104 Eh     change       -0.2809511E-06 Eh
 * total energy  :   -47.3241104 Eh     change       -0.8369160E-07 Eh
   *** GEOMETRY OPTIMIZATION CONVERGED AFTER 5 ITERATIONS ***

 final structure:
================
29
 xtb: 6.7.1 (edcfbbe)
C            0.53853820266015        3.56244644888111        0.00127390011686
C            1.75385241215999        2.91206457039148        0.00053504627766
C            1.82900033496794        1.48114416782022       -0.00022068029640
C            3.04773137324929        0.81610098041515       -0.00124729121679
C            3.10037591200670       -0.58472275233092       -0.00144796904580
C            1.93673012984480       -1.34234026458288       -0.00047838661030
C            1.97509095038229       -2.77531917136671       -0.00003690878372
C            0.81242070413489       -3.51806992138973        0.00119574694341
C           -0.42129335876669       -2.90160162310614        0.00149781394163
C           -0.50984193332436       -1.47298120830336        0.00059294624357
C           -1.71350287611597       -0.77336658086938        0.00010721556900
N           -3.02325968931641       -1.18422567049967       -0.00043283565787
C           -3.78711473460952       -0.04993853443421       -0.00102856619689
N           -3.09388203266678        1.04281775853287       -0.00066976297250
C           -1.78156664072694        0.64938695248327       -0.00000398805094
C           -0.61654347292146        1.42450693513426        0.00039561404759
C           -0.64434412126978        2.84844960237943        0.00105697671444
C            0.61814628928024        0.73161943231026        0.00008566701426
C            0.67281776682474       -0.68964545748895        0.00008318825523
H            0.51064126135630        4.64286305957068        0.00197696829657
H            2.67788594183302        3.47069427292229        0.00059259889948
H            3.96605210051563        1.38457928933725       -0.00182459446493
H            4.05889605988883       -1.08266378541891       -0.00227434853048
H            2.93831394517950       -3.26217330386005       -0.00046653681571
H            0.86825074994782       -4.59760675479112        0.00201966065495
H           -1.32786789005243       -3.48768525722920        0.00260408708644
H           -3.35381679988164       -2.13363352032769       -0.00110855325768
H           -4.85965193781886       -0.08436796558191       -0.00170896033082
H           -1.60594175316131        3.33457210990255        0.00146134076974

 projected vibrational frequencies (cm⁻¹)
eigval :       -0.00    -0.00    -0.00     0.00     0.00     0.00
eigval :       75.79   109.38   120.16   184.28   191.97   244.22
eigval :      273.84   290.31   318.59   370.79   373.58   405.75
eigval :      422.12   465.07   482.29   493.70   505.98   522.96
eigval :      549.55   563.11   570.39   596.31   632.64   646.14
eigval :      690.70   692.39   703.17   724.55   743.91   758.83
eigval :      768.03   799.58   817.65   820.87   851.84   870.03
eigval :      883.99   905.64   909.64   925.64   948.37  1044.04
eigval :     1072.36  1103.97  1114.31  1127.78  1140.21  1153.32
eigval :     1170.43  1178.19  1198.83  1210.87  1255.17  1266.81
eigval :     1274.97  1290.12  1311.01  1328.06  1360.87  1374.17
eigval :     1378.69  1402.34  1427.53  1456.40  1460.39  1475.49
eigval :     1477.52  1497.89  1507.94  1561.38  1591.87  3067.41
eigval :     3071.17  3074.68  3081.72  3084.05  3087.44  3092.42
eigval :     3116.68  3155.98  3484.71

   temp. (K)  partition function   enthalpy   heat capacity  entropy
                                   cal/mol     cal/K/mol   cal/K/mol   J/K/mol
 298.15  VIB  0.118E+04             6434.174     50.410     35.464
         ROT  0.339E+07              888.752      2.981     32.861
         INT  0.399E+10             7322.926     53.391     68.325
         TR   0.365E+28             1481.254      4.968     42.337
         TOT                        8804.1801    58.3594   110.6613   463.0069

       T/K    H(0)-H(T)+PV         H(T)/Eh          T*S/Eh         G(T)/Eh
   ------------------------------------------------------------------------
    298.15    0.140304E-01    0.227615E+00    0.525788E-01    0.175037E+00
   ------------------------------------------------------------------------

         :::::::::::::::::::::::::::::::::::::::::::::::::::::
         ::                  THERMODYNAMIC                  ::
         :::::::::::::::::::::::::::::::::::::::::::::::::::::
         :: total free energy         -47.149073889093 Eh   ::
         ::.................................................::
         :: total energy              -47.324110454330 Eh   ::
         :: zero point energy           0.213584963737 Eh   ::
         :: G(RRHO) w/o ZPVE           -0.038548398501 Eh   ::
         :: G(RRHO) contrib.            0.175036565237 Eh   ::
         :::::::::::::::::::::::::::::::::::::::::::::::::::::

           -------------------------------------------------
          | TOTAL ENERGY              -47.324110454330 Eh   |
          | TOTAL ENTHALPY            -47.096495136481 Eh   |
          | TOTAL FREE ENERGY         -47.149073889093 Eh   |
          | GRADIENT NORM               0.000064710594 Eh/α |
           -------------------------------------------------

 * finished run on 2025/08/26 at 13:08:39.619
