   * xtb version 6.7.1 (edcfbbe) compiled by 'albert@albert-system' on 2024-07-22

   ID    Z sym.   atoms
    1    6 C      1-11, 13, 15-19
    2    7 N      12, 14
    3    1 H      20-29

          program call               : xtb data2507/gas/PyI/PyI.xyz --gfn 2 --ohess vtight --parallel 40 --molden --ceasefiles --namespace data2507/gas/PyI/PyI_gas_S0_preOpt
          :  Hamiltonian                  GFN2-xTB          :
 * total energy  :   -47.3966130 Eh     change       -0.1475001E-08 Eh
 * total energy  :   -47.4015596 Eh     change       -0.4946643E-02 Eh
 * total energy  :   -47.4023516 Eh     change       -0.7919302E-03 Eh
 * total energy  :   -47.4024102 Eh     change       -0.5864913E-04 Eh
 * total energy  :   -47.4024258 Eh     change       -0.1558327E-04 Eh
 * total energy  :   -47.4024265 Eh     change       -0.6829187E-06 Eh
 * total energy  :   -47.4024266 Eh     change       -0.9338687E-07 Eh
   *** GEOMETRY OPTIMIZATION CONVERGED AFTER 7 ITERATIONS ***

 final structure:
================
29
 xtb: 6.7.1 (edcfbbe)
C            2.95744544244775       -2.07945334457352        0.00000090453794
C            3.26352548989871       -0.73313521992046        0.00000017151529
C            2.25424177433150        0.23396487962609       -0.00000025522509
C            2.55622641136060        1.62729805780611        0.00000011889439
C            1.57533016901158        2.55772631169663        0.00000018707063
C            0.20007417512060        2.18114682250452       -0.00000004296628
C           -0.81869489483999        3.13843849252147       -0.00000048387408
C           -2.14597710913925        2.76141111402666       -0.00000090706969
C           -2.49399614398240        1.42127799401215       -0.00000017317749
C           -1.50896622621514        0.43731330685489       -0.00000036762790
C           -1.77274616954274       -0.95852326754190        0.00000002034133
N           -2.95090412373349       -1.65705658056906        0.00000063897990
C           -2.61613003985817       -2.97608210273366       -0.00000015788829
N           -1.33186769052483       -3.17332036393392        0.00000134101802
C           -0.77191536125529       -1.92710776209311       -0.00000018365272
C            0.60728125782951       -1.56449611326169       -0.00000035393335
C            1.63745988991440       -2.49774729867450        0.00000054375058
C            0.89764149833959       -0.17526246915335       -0.00000048861776
C           -0.13535131877130        0.80516705768778       -0.00000031051930
H            3.75237811747962       -2.81113759512854       -0.00000051922819
H            4.29524284651162       -0.41071822385572       -0.00000002902818
H            3.59643434621476        1.92151462085269        0.00000088710096
H            1.81226234063144        3.61237933983559        0.00000007392360
H           -0.55319453594298        4.18586626989292       -0.00000008879728
H           -2.92056590019176        3.51461459110371        0.00000026819981
H           -3.53749999053189        1.13893076507047        0.00000027869920
H           -3.87917404493022       -1.26927031190701        0.00000039356651
H           -3.34971604565581       -3.75816946568074        0.00000013659231
H            1.38115783602358       -3.54556850446451       -0.00000060258485

          :  Hamiltonian                  GFN2-xTB          :
         :: gradient norm              0.000081434977 Eh/a0 ::
         :: HOMO-LUMO gap              2.473301631831 eV    ::
         :: SCC energy               -48.277466328620 Eh    ::
         :: -> dispersion             -0.037447305495 Eh    ::
         :: repulsion energy           0.875039744579 Eh    ::

    * Orbital Energies and Occupations

         #    Occupation            Energy/Eh            Energy/eV
      -------------------------------------------------------------
         1        2.0000           -0.6908681             -18.7995
       ...           ...                  ...                  ...
        32        2.0000           -0.4552151             -12.3870
        33        2.0000           -0.4515106             -12.2862
        34        2.0000           -0.4406734             -11.9913
        35        2.0000           -0.4401028             -11.9758
        36        2.0000           -0.4327707             -11.7763
        37        2.0000           -0.4288784             -11.6704
        38        2.0000           -0.4107556             -11.1772
        39        2.0000           -0.4094682             -11.1422
        40        2.0000           -0.4085108             -11.1161
        41        2.0000           -0.3960011             -10.7757
        42        2.0000           -0.3859190             -10.5014
        43        2.0000           -0.3787320             -10.3058
        44        2.0000           -0.3607689              -9.8170 (HOMO)
        45                         -0.2698767              -7.3437 (LUMO)
        46                         -0.2438624              -6.6358
        47                         -0.2173303              -5.9139
        48                         -0.2062145              -5.6114
        49                         -0.1825141              -4.9665
        50                         -0.1747598              -4.7555
        51                         -0.1121736              -3.0524
        52                         -0.0956267              -2.6021
        53                         -0.0218941              -0.5958
        54                          0.0099044               0.2695
        55                          0.0963955               2.6231
       ...                                ...                  ...
        86                          0.7341072              19.9761
      -------------------------------------------------------------
                  HL-Gap            0.0908922 Eh            2.4733 eV

     #   Z          covCN         q      C6AA      α(0)
     1   6 C        2.915    -0.029    28.734     8.790
     2   6 C        2.921    -0.038    28.939     8.822
     3   6 C        2.983     0.012    27.735     8.639
     4   6 C        2.914    -0.035    28.864     8.810
     5   6 C        2.914    -0.037    28.931     8.820
     6   6 C        2.983     0.013    27.707     8.634
     7   6 C        2.921    -0.039    28.968     8.826
     8   6 C        2.914    -0.031    28.783     8.797
     9   6 C        2.918    -0.041    29.011     8.832
    10   6 C        2.975    -0.004    28.111     8.697
    11   6 C        3.096     0.026    27.300     8.563
    12   7 N        2.794    -0.105    23.306     7.170
    13   6 C        3.159     0.099    25.521     8.259
    14   7 N        1.895    -0.267    27.780     7.814
    15   6 C        3.228     0.055    26.008     8.284
    16   6 C        2.979     0.004    27.924     8.668
    17   6 C        2.919    -0.032    28.791     8.799
    18   6 C        2.994    -0.004    28.107     8.697
    19   6 C        2.997    -0.001    28.034     8.685
    20   1 H        0.926     0.032     2.562     2.503
    21   1 H        0.926     0.031     2.578     2.511
    22   1 H        0.926     0.032     2.561     2.502
    23   1 H        0.926     0.031     2.573     2.508
    24   1 H        0.926     0.031     2.576     2.510
    25   1 H        0.926     0.028     2.611     2.527
    26   1 H        0.926     0.018     2.757     2.596
    27   1 H        0.860     0.162     1.322     1.801
    28   1 H        0.926     0.037     2.489     2.467
    29   1 H        0.926     0.051     2.303     2.373

molecular dipole:
                 x           y           z       tot (Debye)
 q only:       -0.528       0.309       0.000
   full:       -1.027       0.687       0.000       3.141

 projected vibrational frequencies (cm⁻¹)
eigval :       -0.00    -0.00    -0.00    -0.00     0.00     0.00
eigval :       72.48   115.94   119.67   192.27   211.39   244.37
eigval :      289.22   310.33   325.41   370.22   414.52   415.60
eigval :      453.59   469.57   487.88   534.42   537.14   566.66
eigval :      567.44   573.89   595.01   628.74   647.78   682.74
eigval :      704.38   706.65   753.24   763.42   774.57   798.63
eigval :      808.97   839.47   876.20   884.68   889.25   891.81
eigval :      917.71   921.24   926.12   943.76   996.26  1051.86
eigval :     1090.72  1110.28  1134.70  1141.58  1161.47  1177.33
eigval :     1194.53  1198.22  1223.31  1239.58  1280.85  1298.61
eigval :     1315.81  1324.92  1344.76  1376.74  1382.24  1398.11
eigval :     1401.92  1420.55  1472.34  1485.86  1494.75  1524.66
eigval :     1538.61  1563.78  1585.88  1591.24  1608.80  3064.59
eigval :     3065.00  3069.73  3073.80  3078.81  3082.60  3086.63
eigval :     3107.23  3163.14  3475.56

   temp. (K)  partition function   enthalpy   heat capacity  entropy
                                   cal/mol     cal/K/mol   cal/K/mol   J/K/mol
 298.15  VIB   816.                 6101.268     48.236     33.593
         ROT  0.337E+07              888.752      2.981     32.849
         INT  0.275E+10             6990.021     51.216     66.443
         TR   0.365E+28             1481.254      4.968     42.337
         TOT                        8471.2745    56.1846   108.7794   455.1331

       T/K    H(0)-H(T)+PV         H(T)/Eh          T*S/Eh         G(T)/Eh
   ------------------------------------------------------------------------
    298.15    0.134998E-01    0.231347E+00    0.516846E-01    0.179662E+00
   ------------------------------------------------------------------------

         :::::::::::::::::::::::::::::::::::::::::::::::::::::
         ::                  THERMODYNAMIC                  ::
         :::::::::::::::::::::::::::::::::::::::::::::::::::::
         :: total free energy         -47.222764433304 Eh   ::
         ::.................................................::
         :: total energy              -47.402426584040 Eh   ::
         :: zero point energy           0.217846927891 Eh   ::
         :: G(RRHO) w/o ZPVE           -0.038184777156 Eh   ::
         :: G(RRHO) contrib.            0.179662150736 Eh   ::
         :::::::::::::::::::::::::::::::::::::::::::::::::::::

           -------------------------------------------------
          | TOTAL ENERGY              -47.402426584040 Eh   |
          | TOTAL ENTHALPY            -47.171079820947 Eh   |
          | TOTAL FREE ENERGY         -47.222764433304 Eh   |
          | GRADIENT NORM               0.000081428489 Eh/α |
          | HOMO-LUMO GAP               2.473301673829 eV   |
           -------------------------------------------------

 * finished run on 2025/08/26 at 13:07:22.963
