   * xtb version 6.7.1 (edcfbbe) compiled by 'albert@albert-system' on 2024-07-22

   ID    Z sym.   atoms
    1    6 C      1-8, 10, 12-25, 27-47, 49, 50
    2    7 N      9, 26
    3    8 O      11, 48
    4    1 H      51-86

          program call               : xtb data2507/toluene/NA-TNA/NA-TNA.xyz --gfn 2 --gbsa toluene --ohess vtight --parallel 40 --molden --ceasefiles --namespace data2507/toluene/NA-TNA/NA-TNA_toluene_S0_preOpt
      * Solvation model:               GBSA
        Solvent                        toluene
        Solvent mass                       9.2140E+01 g/mol
          :  Hamiltonian                  GFN2-xTB          :
 * total energy  :  -130.9163597 Eh     change       -0.5360732E-08 Eh
 * total energy  :  -130.9329302 Eh     change       -0.1657053E-01 Eh
 * total energy  :  -130.9389287 Eh     change       -0.5998519E-02 Eh
 * total energy  :  -130.9412454 Eh     change       -0.2316691E-02 Eh
 * total energy  :  -130.9434782 Eh     change       -0.2232781E-02 Eh
 * total energy  :  -130.9451354 Eh     change       -0.1657263E-02 Eh
 * total energy  :  -130.9464994 Eh     change       -0.1363966E-02 Eh
 * total energy  :  -130.9475956 Eh     change       -0.1096237E-02 Eh
 * total energy  :  -130.9483335 Eh     change       -0.7378277E-03 Eh
 * total energy  :  -130.9487823 Eh     change       -0.4488516E-03 Eh
 * total energy  :  -130.9510207 Eh     change       -0.2700991E-06 Eh
 * total energy  :  -130.9510210 Eh     change       -0.2909803E-06 Eh
 * total energy  :  -130.9510212 Eh     change       -0.2536763E-06 Eh
 * total energy  :  -130.9510214 Eh     change       -0.1886090E-06 Eh
 * total energy  :  -130.9510216 Eh     change       -0.1886123E-06 Eh
 * total energy  :  -130.9510218 Eh     change       -0.2513439E-06 Eh
 * total energy  :  -130.9510221 Eh     change       -0.2558054E-06 Eh
 * total energy  :  -130.9510223 Eh     change       -0.2200636E-06 Eh
 * total energy  :  -130.9510223 Eh     change       -0.2193275E-08 Eh
   *** GEOMETRY OPTIMIZATION CONVERGED AFTER 94 ITERATIONS ***

 final structure:
================
86
 xtb: 6.7.1 (edcfbbe)
C           12.51782423050537        1.07280505847022       -0.62504441233491
C           11.92491507476888       -0.25182405968980       -0.12180796041210
C           12.57061578294439       -0.58224230964503        1.22719624961858
C           12.26261217296268       -1.38214945283143       -1.10535028961593
C           10.41276887475511       -0.11158569688677       -0.02901588272021
C            9.68057907962087        0.19790069942402       -1.17352793143166
C            8.30777136035443        0.34535589122075       -1.13874793848215
C            7.63083203987821        0.17423782893383        0.05723905077617
N            6.20351546985998        0.32305895487036        0.10881965335894
C            5.71422348644258        1.44807743294110        0.75189476387074
O            6.47966994142856        2.27907667095453        1.21286711655177
C            4.25408857814553        1.56811932529081        0.83501893609977
C            3.70457697822883        2.64753061863016        1.49963377628255
C            2.32114657066797        2.76576938870346        1.60876634304863
C            1.49491487523877        1.82464397462282        1.04396993320480
C            2.00805133147301        0.72209865813244        0.33241663541853
C            1.17836050466009       -0.27506738551350       -0.27771030211516
C           -0.26179921716895       -0.15494354643407       -0.25766434260113
C           -1.12142755307011       -1.18599091284413       -0.36501679958518
C           -2.56452558784624       -1.10925462609589       -0.34632306097851
C           -3.29943269774109       -2.30651680721613       -0.54726515923383
C           -4.66121300551963       -2.31755701284832       -0.53560237140908
C           -5.39470186746333       -1.12962715030535       -0.31154407288233
C           -6.79681785691267       -1.11131415811392       -0.28641650222380
C           -7.49096195349296        0.05973946513353       -0.05725807632614
N           -8.88282916668401        0.07477900247666       -0.00744081987186
C           -9.58546217668046       -1.03107749756370        0.49493058737885
C          -10.77121554249401       -1.44653380011077       -0.10957026047718
C          -11.46681902807283       -2.52915732199244        0.39456917925530
C          -10.99098768519251       -3.21602952127718        1.49976180784093
C           -9.81212863216449       -2.80763570110980        2.10312767474796
C           -9.11363525079382       -1.72198258095097        1.61077194283272
C           -9.59563433363648        1.18671705903850       -0.47769478971207
C           -9.17117646758122        1.86944092861950       -1.61749816203846
C           -9.87481957767474        2.96838498627246       -2.07237729207752
C          -11.01326016833608        3.39644908997694       -1.40865585858559
C          -11.44361151149560        2.71622529950405       -0.28050815190527
C          -10.74160195028162        1.62201611012903        0.18747495853635
C           -6.76835326182966        1.26055585666996        0.14704000258776
C           -5.40663895312796        1.26693731371220        0.11835764649892
C           -4.67326180812064        0.07915037803701       -0.11060921317177
C           -3.27180216799570        0.06126661694974       -0.13411148173180
C            1.79155789765630       -1.34783862841433       -0.91558884917007
C            3.16956715445410       -1.47554765696748       -0.97725820545785
C            3.99403876208798       -0.51881958620416       -0.40793122707843
C            3.42100407580075        0.59019199840742        0.24910875716509
C            5.44422422106676       -0.67839432091040       -0.48412219609784
O            5.99068344686679       -1.63006128762162       -1.01877790556285
C            8.33338651678807       -0.14120354512861        1.20610447341498
C            9.71004286704531       -0.27721998740932        1.15868809605836
H           13.60250409561447        1.00262484000813       -0.66909102811550
H           12.24997977782064        1.88421245151612        0.04885146695740
H           12.15182240720540        1.32007563702136       -1.61745919372978
H           13.64791843809641       -0.66753436912651        1.10028018712231
H           12.37911539005879        0.20300464655703        1.95483539078068
H           12.20241846029744       -1.52876611516041        1.61596988012319
H           13.34102265922750       -1.50978757495434       -1.17034043587620
H           11.88351525841848       -1.16872075732273       -2.10073111821683
H           11.82284829592539       -2.31840340297053       -0.76744094675038
H           10.18301942898490        0.33328576191830       -2.11883304305600
H            7.75841087369078        0.58758592372900       -2.03707164999946
H            4.36745708099968        3.38062717254074        1.93469133917917
H            1.90041375743386        3.60244212851352        2.14534269021651
H            0.42934127205791        1.93410841596324        1.16401219118104
H           -0.65637025566384        0.84204786408511       -0.14179237269055
H           -0.72810041444915       -2.19070895093573       -0.44942171086564
H           -2.75498783585626       -3.22521602595712       -0.71528001237852
H           -5.20438181308666       -3.23876483709411       -0.69278748352724
H           -7.33515855236230       -2.03409882010695       -0.44907543175525
H          -11.14078067954572       -0.91688295841705       -0.97565589083558
H          -12.38295309713196       -2.84275919006511       -0.08440680348207
H          -11.53541807109383       -4.06329166364679        1.88884696988147
H           -9.43732379067599       -3.33284417624201        2.96961671393491
H           -8.19967225588992       -1.39994883389453        2.08842232576081
H           -8.29130307500522        1.52958086421294       -2.14430885099241
H           -9.53635392680781        3.48790504168268       -2.95703419143691
H          -11.56257893533308        4.25325794966008       -1.76885884022092
H          -12.32848264232295        3.04502008714801        0.24477035925487
H          -11.07401165044599        1.09831534161838        1.07202317037164
H           -7.31669726579668        2.17055591259741        0.34184745385804
H           -4.86623914661174        2.18779913313240        0.28503743703552
H           -2.75390096978745        0.99436633992923        0.02825897618626
H            1.18283747113334       -2.09205205174453       -1.40417670229066
H            3.62732908032053       -2.31538596924980       -1.47926921388989
H            7.80387321528026       -0.27383766030118        2.13879773592328
H           10.22403054297694       -0.51876920768293        2.07410956310172

          :  Hamiltonian                  GFN2-xTB          :
         :: gradient norm              0.000048376740 Eh/a0 ::
         :: HOMO-LUMO gap              1.007068079713 eV    ::
         :: SCC energy              -133.268155304958 Eh    ::
         :: -> dispersion             -0.111717723613 Eh    ::
         :: -> Gsolv                  -0.061939397262 Eh    ::
         :: repulsion energy           2.317132984153 Eh    ::

    * Orbital Energies and Occupations

         #    Occupation            Energy/Eh            Energy/eV
      -------------------------------------------------------------
         1        2.0000           -0.7181388             -19.5416
       ...           ...                  ...                  ...
       109        2.0000           -0.4166506             -11.3376
       110        2.0000           -0.4138804             -11.2623
       111        2.0000           -0.4113532             -11.1935
       112        2.0000           -0.4104337             -11.1685
       113        2.0000           -0.4102643             -11.1639
       114        2.0000           -0.4089237             -11.1274
       115        2.0000           -0.4082427             -11.1088
       116        2.0000           -0.4070629             -11.0767
       117        2.0000           -0.4065836             -11.0637
       118        2.0000           -0.3964220             -10.7872
       119        2.0000           -0.3911361             -10.6434
       120        2.0000           -0.3804475             -10.3525
       121        2.0000           -0.3517783              -9.5724 (HOMO)
       122                         -0.3147692              -8.5653 (LUMO)
       123                         -0.2740483              -7.4572
       124                         -0.2555879              -6.9549
       125                         -0.2481339              -6.7521
       126                         -0.2433193              -6.6211
       127                         -0.2331211              -6.3435
       128                         -0.2288819              -6.2282
       129                         -0.2278712              -6.2007
       130                         -0.2271650              -6.1815
       131                         -0.2259954              -6.1496
       132                         -0.2243611              -6.1052
       ...                                ...                  ...
       236                          0.7208239              19.6146
      -------------------------------------------------------------
                  HL-Gap            0.0370091 Eh            1.0071 eV

     #   Z          covCN         q      C6AA      α(0)
     1   6 C        3.761    -0.108    22.607     6.778
     2   6 C        3.902     0.027    20.072     6.368
     3   6 C        3.761    -0.111    22.665     6.787
     4   6 C        3.761    -0.108    22.604     6.778
     5   6 C        2.972     0.014    27.698     8.633
     6   6 C        2.929    -0.033    28.829     8.805
     7   6 C        2.919    -0.034    28.836     8.806
     8   6 C        2.936     0.082    26.175     8.391
     9   7 N        2.746    -0.122    23.645     7.222
    10   6 C        2.777     0.276    22.331     7.740
    11   8 O        0.859    -0.452    22.745     6.394
    12   6 C        2.978    -0.032    28.786     8.801
    13   6 C        2.922    -0.011    28.296     8.723
    14   6 C        2.914    -0.027    28.665     8.779
    15   6 C        2.919    -0.022    28.551     8.762
    16   6 C        2.982     0.013    27.707     8.634
    17   6 C        2.967     0.028    27.379     8.583
    18   6 C        2.900    -0.043    29.056     8.838
    19   6 C        2.903    -0.028    28.694     8.783
    20   6 C        2.966     0.011    27.761     8.642
    21   6 C        2.923    -0.034    28.858     8.810
    22   6 C        2.915    -0.038    28.935     8.821
    23   6 C        2.986     0.014    27.700     8.633
    24   6 C        2.921    -0.059    29.471     8.902
    25   6 C        2.919     0.067    26.504     8.442
    26   7 N        2.752    -0.073    22.654     7.069
    27   6 C        2.924     0.065    26.550     8.450
    28   6 C        2.922    -0.047    29.155     8.855
    29   6 C        2.919    -0.029    28.737     8.791
    30   6 C        2.919    -0.038    28.935     8.821
    31   6 C        2.919    -0.030    28.738     8.791
    32   6 C        2.922    -0.046    29.153     8.854
    33   6 C        2.924     0.065    26.542     8.449
    34   6 C        2.922    -0.047    29.162     8.856
    35   6 C        2.919    -0.030    28.740     8.791
    36   6 C        2.919    -0.038    28.937     8.821
    37   6 C        2.919    -0.029    28.736     8.791
    38   6 C        2.922    -0.047    29.159     8.855
    39   6 C        2.917    -0.045    29.121     8.849
    40   6 C        2.917    -0.035    28.870     8.811
    41   6 C        2.983     0.007    27.865     8.659
    42   6 C        2.922    -0.037    28.913     8.818
    43   6 C        2.920    -0.035    28.868     8.811
    44   6 C        2.918    -0.012    28.319     8.727
    45   6 C        2.977    -0.038    28.928     8.822
    46   6 C        2.993     0.008    27.826     8.653
    47   6 C        2.776     0.275    22.348     7.743
    48   8 O        0.859    -0.454    22.795     6.401
    49   6 C        2.920    -0.034    28.849     8.808
    50   6 C        2.927    -0.038    28.936     8.822
    51   1 H        0.925     0.045     2.386     2.416
    52   1 H        0.925     0.035     2.516     2.481
    53   1 H        0.925     0.039     2.463     2.454
    54   1 H        0.925     0.043     2.406     2.425
    55   1 H        0.925     0.039     2.467     2.456
    56   1 H        0.925     0.039     2.469     2.457
    57   1 H        0.925     0.045     2.386     2.416
    58   1 H        0.925     0.039     2.464     2.455
    59   1 H        0.925     0.035     2.516     2.481
    60   1 H        0.926     0.047     2.358     2.402
    61   1 H        0.926     0.033     2.541     2.493
    62   1 H        0.926     0.059     2.207     2.323
    63   1 H        0.926     0.058     2.227     2.334
    64   1 H        0.926     0.066     2.135     2.285
    65   1 H        0.926     0.057     2.236     2.338
    66   1 H        0.925     0.048     2.344     2.394
    67   1 H        0.926     0.036     2.508     2.476
    68   1 H        0.926     0.034     2.530     2.487
    69   1 H        0.926     0.033     2.539     2.492
    70   1 H        0.926     0.033     2.545     2.495
    71   1 H        0.926     0.035     2.521     2.483
    72   1 H        0.926     0.033     2.539     2.492
    73   1 H        0.926     0.035     2.515     2.480
    74   1 H        0.926     0.034     2.530     2.488
    75   1 H        0.926     0.034     2.532     2.488
    76   1 H        0.926     0.035     2.518     2.481
    77   1 H        0.926     0.033     2.541     2.493
    78   1 H        0.926     0.035     2.523     2.484
    79   1 H        0.926     0.033     2.546     2.495
    80   1 H        0.926     0.037     2.495     2.470
    81   1 H        0.926     0.040     2.449     2.447
    82   1 H        0.926     0.042     2.426     2.436
    83   1 H        0.926     0.059     2.216     2.328
    84   1 H        0.926     0.058     2.228     2.334
    85   1 H        0.926     0.033     2.550     2.497
    86   1 H        0.926     0.054     2.273     2.357

molecular dipole:
                 x           y           z       tot (Debye)
 q only:       -3.669       0.096       0.108
   full:       -3.834       0.110       0.116       9.753

 projected vibrational frequencies (cm⁻¹)
eigval :       -0.00    -0.00     0.00     0.00     0.00     0.00
eigval :        6.41     7.19    13.15    15.06    23.19    29.49
eigval :       33.06    35.72    41.55    50.99    54.42    59.16
eigval :       63.22    70.97    84.94    88.81   103.07   107.12
eigval :      115.68   127.77   146.79   171.17   174.46   177.51
eigval :      180.64   183.41   217.77   219.23   224.84   233.39
eigval :      236.42   249.69   265.55   277.30   289.15   306.96
eigval :      312.48   316.78   318.92   348.26   354.36   360.96
eigval :      366.94   370.08   377.27   378.84   384.27   391.96
eigval :      392.66   400.05   410.35   421.15   431.46   438.89
eigval :      448.75   453.53   463.54   467.54   489.12   491.02
eigval :      496.44   507.41   510.22   528.48   542.86   547.22
eigval :      552.05   571.65   581.68   585.84   591.13   599.21
eigval :      604.48   612.46   627.53   638.97   653.39   661.36
eigval :      665.19   679.69   684.89   698.85   704.22   708.25
eigval :      713.97   744.06   753.87   756.06   763.12   772.00
eigval :      775.41   798.66   803.92   804.83   817.61   828.84
eigval :      839.31   843.44   847.34   857.82   867.04   869.76
eigval :      874.06   875.55   876.53   887.48   892.54   893.66
eigval :      903.15   909.67   911.58   917.12   919.38   919.83
eigval :      920.64   924.07   924.98   928.16   928.66   929.30
eigval :      930.11   960.23   961.14   963.78   971.10   974.97
eigval :      988.66  1003.19  1005.24  1015.60  1033.77  1035.02
eigval :     1036.42  1081.50  1082.56  1090.43  1121.11  1122.82
eigval :     1133.15  1139.31  1144.58  1147.06  1151.38  1169.83
eigval :     1174.35  1176.93  1179.41  1179.79  1187.65  1190.32
eigval :     1194.53  1197.61  1205.35  1214.91  1221.48  1226.10
eigval :     1226.43  1231.63  1232.32  1246.53  1258.40  1263.42
eigval :     1275.82  1277.15  1278.61  1281.73  1291.84  1298.92
eigval :     1308.05  1311.00  1316.13  1319.51  1320.37  1323.75
eigval :     1335.98  1339.50  1362.75  1385.31  1390.49  1396.92
eigval :     1397.07  1402.74  1407.66  1408.31  1426.39  1427.05
eigval :     1433.09  1439.61  1441.97  1460.88  1468.10  1470.98
eigval :     1485.01  1486.57  1488.37  1491.09  1498.28  1502.75
eigval :     1504.12  1509.34  1516.44  1527.60  1546.70  1553.44
eigval :     1575.25  1576.63  1579.83  1579.98  1584.77  1590.33
eigval :     1592.80  1601.32  1601.36  1622.59  1643.63  1664.10
eigval :     3023.28  3024.59  3027.44  3028.93  3031.16  3034.38
eigval :     3038.67  3046.75  3050.09  3059.20  3064.42  3071.21
eigval :     3073.75  3074.00  3074.72  3075.15  3075.31  3076.55
eigval :     3077.46  3079.94  3083.10  3083.95  3085.28  3085.88
eigval :     3086.73  3088.37  3088.53  3088.76  3093.98  3094.83
eigval :     3095.43  3096.66  3099.65  3104.79  3112.00  3118.99

   temp. (K)  partition function   enthalpy   heat capacity  entropy
                                   cal/mol     cal/K/mol   cal/K/mol   J/K/mol
 298.15  VIB  0.592E+21            25145.821    154.968    158.472
         ROT  0.149E+09              888.752      2.981     40.386
         INT  0.885E+29            26034.573    157.949    198.858
         TR   0.160E+29             1481.254      4.968     45.271
         TOT                       27515.8273   162.9169   244.1295  1021.4380

       T/K    H(0)-H(T)+PV         H(T)/Eh          T*S/Eh         G(T)/Eh
   ------------------------------------------------------------------------
    298.15    0.438493E-01    0.717333E+00    0.115994E+00    0.601339E+00
   ------------------------------------------------------------------------

         :::::::::::::::::::::::::::::::::::::::::::::::::::::
         ::                  THERMODYNAMIC                  ::
         :::::::::::::::::::::::::::::::::::::::::::::::::::::
         :: total free energy        -130.349682843542 Eh   ::
         ::.................................................::
         :: total energy             -130.951022319131 Eh   ::
         :: zero point energy           0.673484037769 Eh   ::
         :: G(RRHO) w/o ZPVE           -0.072144562181 Eh   ::
         :: G(RRHO) contrib.            0.601339475589 Eh   ::
         :::::::::::::::::::::::::::::::::::::::::::::::::::::

           -------------------------------------------------
          | TOTAL ENERGY             -130.951022319131 Eh   |
          | TOTAL ENTHALPY           -130.233689019371 Eh   |
          | TOTAL FREE ENERGY        -130.349682843542 Eh   |
          | GRADIENT NORM               0.000048374139 Eh/α |
          | HOMO-LUMO GAP               1.007068170977 eV   |
           -------------------------------------------------

 * finished run on 2025/08/26 at 00:05:08.008
