   * xtb version 6.7.1 (edcfbbe) compiled by 'albert@albert-system' on 2024-07-22

   ID    Z sym.   atoms
    1    6 C      1-8, 10, 12-25, 27-47, 49, 50
    2    7 N      9, 26
    3    8 O      11, 48
    4    1 H      51-86

          program call               : xtb data2507/toluene/NA-TNA/NA-TNA_toluene_S0_crest.xyz --gfn 2 --gbsa toluene --ohess vtight --parallel 40 --molden --ceasefiles --namespace data2507/toluene/NA-TNA/NA-TNA_toluene_S0_finalOpt
      * Solvation model:               GBSA
        Solvent                        toluene
        Solvent mass                       9.2140E+01 g/mol
          :  Hamiltonian                  GFN2-xTB          :
 * total energy  :  -130.9512008 Eh     change       -0.1914970E-08 Eh
 * total energy  :  -130.9513183 Eh     change       -0.1175311E-03 Eh
 * total energy  :  -130.9513518 Eh     change       -0.3350087E-04 Eh
 * total energy  :  -130.9513578 Eh     change       -0.6036682E-05 Eh
 * total energy  :  -130.9513640 Eh     change       -0.6178445E-05 Eh
 * total energy  :  -130.9513694 Eh     change       -0.5354875E-05 Eh
 * total energy  :  -130.9513721 Eh     change       -0.2755397E-05 Eh
 * total energy  :  -130.9513735 Eh     change       -0.1366679E-05 Eh
 * total energy  :  -130.9513733 Eh     change        0.2250604E-06 Eh
 * total energy  :  -130.9513745 Eh     change       -0.1211982E-05 Eh
 * total energy  :  -130.9513777 Eh     change       -0.9006763E-06 Eh
 * total energy  :  -130.9513788 Eh     change       -0.1100659E-05 Eh
 * total energy  :  -130.9513799 Eh     change       -0.1109567E-05 Eh
 * total energy  :  -130.9513807 Eh     change       -0.8647395E-06 Eh
 * total energy  :  -130.9513815 Eh     change       -0.7365168E-06 Eh
 * total energy  :  -130.9513823 Eh     change       -0.8246070E-06 Eh
 * total energy  :  -130.9513832 Eh     change       -0.9253396E-06 Eh
 * total energy  :  -130.9513842 Eh     change       -0.9707367E-06 Eh
 * total energy  :  -130.9513842 Eh     change       -0.1088864E-07 Eh
   *** GEOMETRY OPTIMIZATION CONVERGED AFTER 22 ITERATIONS ***

 final structure:
================
86
 xtb: 6.7.1 (edcfbbe)
C           13.02562157576126        0.15874993441478       -0.40153083254640
C           12.22687911971298       -1.13044974261173       -0.15824126038172
C           12.75691511296824       -1.78928812318849        1.11882192490251
C           12.44322302583083       -2.10587627810760       -1.32486303123474
C           10.74807400158277       -0.78378571506238       -0.06913998104691
C           10.11514319126668       -0.19385002298371       -1.16151254958023
C            8.77438320338976        0.13537154406128       -1.13186291984194
C            8.03273705466128       -0.11317462502714        0.01117363644739
N            6.63920162961593        0.23004955061820        0.05246255913817
C            6.32589686592869        1.57897140799681        0.09072496952780
O            7.21019700778816        2.41949379900301        0.10968011923416
C            4.89786595355244        1.91585177716530        0.11500362512721
C            4.51888202895178        3.24449418987278        0.11856979958965
C            3.16779877259083        3.58307692712453        0.12745042310074
C            2.20462850687110        2.60381411998590        0.15561189507865
C            2.54341481444053        1.23647810862106        0.18036194265503
C            1.56784587063977        0.18778118423199        0.21615899059183
C            0.15865781966283        0.48770197230144        0.33717022660328
C           -0.83412299140471       -0.31124240336958       -0.09751269918832
C           -2.25306091260043       -0.06920751732455        0.02411440479289
C           -2.79152195835784        1.06393111481781        0.68535930024417
C           -4.13719237954472        1.24963080936464        0.78451415462437
C           -5.04897697601006        0.31773493599692        0.23565951631859
C           -6.43778434591874        0.48163501832235        0.33918216730558
C           -7.30729934450577       -0.44607202014263       -0.19935299738886
N           -8.68712783204367       -0.28028164006312       -0.10869954449051
C           -9.25204079039820        1.00400791780899       -0.12609416935112
C          -10.32812364260243        1.31100435707124        0.70579125077811
C          -10.89049471746621        2.57311513370775        0.67876215602194
C          -10.38776552495616        3.54718969742395       -0.16866407374170
C           -9.31703583760030        3.24734868228317       -0.99578794911043
C           -8.75323692591575        1.98598229843019       -0.98152300314626
C           -9.52473362426599       -1.39661122414064        0.02949451579816
C           -9.14157376775300       -2.47495998104555        0.82678260889133
C           -9.96989481144298       -3.57361489291032        0.95530407789075
C          -11.19185688605973       -3.61107069917025        0.30314290372234
C          -11.57986993277020       -2.53896244409360       -0.48462609654100
C          -10.75471977023228       -1.43974425194121       -0.62641428658809
C           -6.78039173744205       -1.57877909228565       -0.86627162460040
C           -5.43447528964724       -1.76044346522126       -0.97337629316024
C           -4.52501709242499       -0.82546447365269       -0.42733615947606
C           -3.13579483147619       -0.98790619451656       -0.51922640924352
C            2.00812215642780       -1.13021972338680        0.17150323961553
C            3.35428879439520       -1.45216488984885        0.10875074871733
C            4.31893151906374       -0.45785355919870        0.09956927264088
C            3.92239723173335        0.89543632781184        0.13497340904511
C            5.73229812672181       -0.82315195624684        0.04370727527407
O            6.12868644365154       -1.97610368733615       -0.01658262093113
C            8.63839143035816       -0.69265234572307        1.11118723787861
C            9.98122095916301       -1.02600538001446        1.06447012666548
H           14.08930815925363       -0.06460302094227       -0.44753820606446
H           12.85438144515497        0.86537570112243        0.40812560780030
H           12.73589845805756        0.63454964302160       -1.33418469274661
H           12.65770179194235       -1.12389568164386        1.97325363511024
H           12.23187669182021       -2.71900684017222        1.32553054254462
H           13.81291632268086       -2.01989363044612        0.99387793289834
H           13.49269050014108       -2.38554755278108       -1.38658799705761
H           12.15283660652199       -1.66236509388650       -2.27295356135182
H           11.85266210264462       -3.00755627220847       -1.17537880478085
H           10.67040689688312        0.01496309732566       -2.06284839098986
H            8.30160112662805        0.59023838693087       -1.99044188020770
H            5.28788845626080        4.00254646439543        0.10489310721927
H            2.88117133331305        4.62354261939628        0.11041011861536
H            1.16689313734246        2.89580552223554        0.14396199601403
H           -0.08891153945600        1.42446292160270        0.81133013284270
H           -0.57962732911156       -1.22434031239553       -0.62025234364479
H           -2.12485700546189        1.79204548794900        1.12012084586166
H           -4.53268266516800        2.11900856144710        1.29082532533303
H           -6.82571123064303        1.34904421568395        0.85387733447308
H          -10.71710934467048        0.55525344911907        1.37263394616006
H          -11.72200949621824        2.79904975245994        1.33035850456791
H          -10.82743593400028        4.53316791794033       -0.18479255287284
H           -8.92291991040944        3.99868903938874       -1.66457010932259
H           -7.92496369358256        1.75196697311840       -1.63442627780397
H           -8.19468095552281       -2.44221694093618        1.34615902616318
H           -9.66251400482235       -4.40161290126118        1.57735871646633
H          -11.83775283074009       -4.46978609361843        0.40853735515099
H          -12.52910334496628       -2.56162188531344       -0.99987076639933
H          -11.05522641626005       -0.60823770287791       -1.24726552907986
H           -7.46531457380848       -2.29174696383056       -1.30120321937459
H           -5.04379036670950       -2.62449295828402       -1.49164628850966
H           -2.75291054186235       -1.86240610373350       -1.02774583049382
H            1.28698334272521       -1.93088784195079        0.22007114924255
H            3.67790490399093       -2.48241939241821        0.08146011339197
H            8.05841758788454       -0.88847536337279        2.00168578276414
H           10.41819714548002       -1.47889604258768        1.93887838284852

          :  Hamiltonian                  GFN2-xTB          :
         :: gradient norm              0.000081184247 Eh/a0 ::
         :: HOMO-LUMO gap              1.014156842883 eV    ::
         :: SCC energy              -133.268512281627 Eh    ::
         :: -> dispersion             -0.111652112213 Eh    ::
         :: -> Gsolv                  -0.061884227468 Eh    ::
         :: repulsion energy           2.317128080351 Eh    ::

    * Orbital Energies and Occupations

         #    Occupation            Energy/Eh            Energy/eV
      -------------------------------------------------------------
         1        2.0000           -0.7181325             -19.5414
       ...           ...                  ...                  ...
       109        2.0000           -0.4168836             -11.3440
       110        2.0000           -0.4138357             -11.2610
       111        2.0000           -0.4113640             -11.1938
       112        2.0000           -0.4104514             -11.1690
       113        2.0000           -0.4102273             -11.1629
       114        2.0000           -0.4088080             -11.1242
       115        2.0000           -0.4080026             -11.1023
       116        2.0000           -0.4068881             -11.0720
       117        2.0000           -0.4065856             -11.0638
       118        2.0000           -0.3962238             -10.7818
       119        2.0000           -0.3911861             -10.6447
       120        2.0000           -0.3805561             -10.3555
       121        2.0000           -0.3517966              -9.5729 (HOMO)
       122                         -0.3145271              -8.5587 (LUMO)
       123                         -0.2731660              -7.4332
       124                         -0.2560572              -6.9677
       125                         -0.2480959              -6.7510
       126                         -0.2438844              -6.6364
       127                         -0.2331444              -6.3442
       128                         -0.2287096              -6.2235
       129                         -0.2278466              -6.2000
       130                         -0.2270348              -6.1779
       131                         -0.2257529              -6.1430
       132                         -0.2243864              -6.1059
       ...                                ...                  ...
       236                          0.7202852              19.6000
      -------------------------------------------------------------
                  HL-Gap            0.0372696 Eh            1.0142 eV

     #   Z          covCN         q      C6AA      α(0)
     1   6 C        3.761    -0.108    22.603     6.777
     2   6 C        3.902     0.027    20.073     6.368
     3   6 C        3.761    -0.111    22.665     6.787
     4   6 C        3.761    -0.108    22.608     6.778
     5   6 C        2.972     0.014    27.700     8.633
     6   6 C        2.929    -0.033    28.830     8.806
     7   6 C        2.919    -0.034    28.842     8.807
     8   6 C        2.936     0.082    26.177     8.391
     9   7 N        2.746    -0.122    23.645     7.222
    10   6 C        2.776     0.276    22.331     7.740
    11   8 O        0.859    -0.452    22.741     6.394
    12   6 C        2.978    -0.032    28.786     8.801
    13   6 C        2.922    -0.011    28.296     8.723
    14   6 C        2.914    -0.026    28.664     8.779
    15   6 C        2.919    -0.022    28.551     8.762
    16   6 C        2.982     0.013    27.710     8.635
    17   6 C        2.968     0.028    27.385     8.584
    18   6 C        2.900    -0.042    29.051     8.837
    19   6 C        2.904    -0.028    28.700     8.784
    20   6 C        2.966     0.011    27.760     8.642
    21   6 C        2.918    -0.034    28.852     8.808
    22   6 C        2.915    -0.037    28.931     8.820
    23   6 C        2.985     0.014    27.704     8.634
    24   6 C        2.921    -0.059    29.473     8.903
    25   6 C        2.919     0.067    26.502     8.442
    26   7 N        2.752    -0.073    22.658     7.070
    27   6 C        2.924     0.065    26.550     8.450
    28   6 C        2.922    -0.047    29.156     8.855
    29   6 C        2.919    -0.029    28.736     8.791
    30   6 C        2.919    -0.038    28.936     8.821
    31   6 C        2.919    -0.030    28.738     8.791
    32   6 C        2.922    -0.046    29.153     8.854
    33   6 C        2.925     0.065    26.542     8.449
    34   6 C        2.922    -0.047    29.158     8.855
    35   6 C        2.919    -0.030    28.740     8.791
    36   6 C        2.919    -0.038    28.935     8.821
    37   6 C        2.919    -0.029    28.735     8.791
    38   6 C        2.922    -0.047    29.155     8.855
    39   6 C        2.917    -0.045    29.122     8.849
    40   6 C        2.916    -0.035    28.865     8.810
    41   6 C        2.983     0.006    27.876     8.661
    42   6 C        2.929    -0.037    28.918     8.819
    43   6 C        2.920    -0.035    28.870     8.811
    44   6 C        2.918    -0.012    28.318     8.726
    45   6 C        2.976    -0.038    28.929     8.823
    46   6 C        2.993     0.008    27.828     8.653
    47   6 C        2.776     0.275    22.347     7.743
    48   8 O        0.859    -0.454    22.792     6.401
    49   6 C        2.920    -0.034    28.842     8.807
    50   6 C        2.927    -0.038    28.936     8.822
    51   1 H        0.925     0.045     2.386     2.415
    52   1 H        0.925     0.035     2.517     2.481
    53   1 H        0.925     0.039     2.464     2.455
    54   1 H        0.925     0.039     2.469     2.457
    55   1 H        0.925     0.039     2.467     2.456
    56   1 H        0.925     0.043     2.406     2.426
    57   1 H        0.925     0.045     2.387     2.416
    58   1 H        0.925     0.039     2.463     2.454
    59   1 H        0.925     0.035     2.516     2.480
    60   1 H        0.926     0.047     2.360     2.402
    61   1 H        0.926     0.033     2.548     2.496
    62   1 H        0.926     0.059     2.207     2.323
    63   1 H        0.926     0.057     2.228     2.334
    64   1 H        0.926     0.066     2.135     2.285
    65   1 H        0.926     0.057     2.233     2.337
    66   1 H        0.925     0.047     2.355     2.400
    67   1 H        0.926     0.039     2.458     2.452
    68   1 H        0.926     0.035     2.515     2.480
    69   1 H        0.926     0.034     2.533     2.489
    70   1 H        0.926     0.033     2.547     2.496
    71   1 H        0.926     0.035     2.521     2.483
    72   1 H        0.926     0.033     2.538     2.491
    73   1 H        0.926     0.035     2.514     2.479
    74   1 H        0.926     0.034     2.529     2.487
    75   1 H        0.926     0.034     2.534     2.489
    76   1 H        0.926     0.035     2.517     2.481
    77   1 H        0.926     0.033     2.540     2.492
    78   1 H        0.926     0.035     2.521     2.483
    79   1 H        0.926     0.033     2.544     2.494
    80   1 H        0.926     0.036     2.501     2.473
    81   1 H        0.926     0.039     2.461     2.453
    82   1 H        0.925     0.038     2.470     2.458
    83   1 H        0.926     0.059     2.216     2.328
    84   1 H        0.926     0.058     2.227     2.334
    85   1 H        0.926     0.033     2.542     2.493
    86   1 H        0.926     0.054     2.274     2.358

molecular dipole:
                 x           y           z       tot (Debye)
 q only:       -3.698       0.243      -0.015
   full:       -3.857       0.274      -0.029       9.828

 projected vibrational frequencies (cm⁻¹)
eigval :       -0.00     0.00     0.00     0.00     0.00     0.00
eigval :       -6.56     9.04    11.65    18.73    23.00    27.62
eigval :       33.84    38.46    43.83    51.04    57.69    59.92
eigval :       64.16    73.79    85.67    91.07   102.29   109.63
eigval :      115.40   132.76   147.52   172.32   175.99   176.61
eigval :      178.66   187.48   205.01   218.89   231.33   232.26
eigval :      234.96   249.59   264.89   279.70   291.90   307.21
eigval :      313.16   315.47   317.62   350.09   361.13   362.37
eigval :      365.38   369.38   378.57   379.62   383.88   388.35
eigval :      393.31   400.32   411.42   419.13   431.95   438.92
eigval :      448.39   452.49   465.87   468.20   487.48   492.35
eigval :      492.63   506.13   514.36   529.03   543.43   547.10
eigval :      560.30   571.37   581.94   585.98   591.20   596.70
eigval :      604.84   612.40   628.64   639.85   652.36   661.49
eigval :      665.37   682.80   685.37   700.64   704.42   708.31
eigval :      716.21   743.36   754.45   756.08   764.23   775.64
eigval :      778.81   801.00   805.42   807.41   817.66   831.05
eigval :      834.87   844.81   848.09   864.09   864.59   870.47
eigval :      873.53   873.89   876.62   887.44   891.79   895.28
eigval :      905.68   909.81   910.17   914.56   920.56   921.16
eigval :      921.35   922.98   924.39   926.29   927.09   929.16
eigval :      931.77   958.76   962.12   963.21   965.25   974.80
eigval :      977.40  1003.13  1005.25  1015.22  1033.66  1034.69
eigval :     1036.08  1081.45  1082.88  1089.97  1120.33  1122.26
eigval :     1133.25  1139.48  1143.31  1145.97  1147.62  1170.92
eigval :     1173.91  1178.64  1178.96  1179.07  1186.57  1194.41
eigval :     1195.20  1197.84  1205.32  1215.40  1225.66  1226.05
eigval :     1230.05  1232.40  1243.58  1251.90  1256.91  1267.62
eigval :     1276.31  1276.93  1278.67  1281.48  1290.55  1297.67
eigval :     1305.05  1311.20  1312.16  1317.86  1321.16  1323.56
eigval :     1333.65  1337.30  1362.35  1385.87  1394.02  1394.77
eigval :     1395.70  1401.98  1407.10  1408.29  1425.73  1427.50
eigval :     1433.72  1438.84  1441.83  1458.52  1468.60  1471.16
eigval :     1484.96  1486.37  1491.21  1491.38  1498.11  1502.40
eigval :     1504.68  1509.05  1516.18  1530.31  1546.48  1553.30
eigval :     1575.21  1578.97  1580.01  1581.47  1584.92  1590.55
eigval :     1593.07  1600.05  1601.63  1617.70  1643.86  1664.33
eigval :     3023.68  3025.03  3027.76  3029.34  3031.43  3034.23
eigval :     3038.75  3048.00  3051.06  3055.95  3063.77  3069.10
eigval :     3072.01  3072.84  3073.17  3073.72  3074.37  3075.03
eigval :     3077.10  3079.70  3082.16  3082.85  3085.02  3086.05
eigval :     3087.53  3088.07  3088.60  3093.44  3093.58  3094.02
eigval :     3094.60  3096.79  3099.31  3103.20  3109.94  3118.07

   temp. (K)  partition function   enthalpy   heat capacity  entropy
                                   cal/mol     cal/K/mol   cal/K/mol   J/K/mol
 298.15  VIB  0.329E+21            25104.206    155.116    157.867
         ROT  0.155E+09              888.752      2.981     40.460
         INT  0.510E+29            25992.959    158.097    198.326
         TR   0.160E+29             1481.254      4.968     45.271
         TOT                       27474.2124   163.0652   243.5978  1019.2133

       T/K    H(0)-H(T)+PV         H(T)/Eh          T*S/Eh         G(T)/Eh
   ------------------------------------------------------------------------
    298.15    0.437829E-01    0.717358E+00    0.115741E+00    0.601617E+00
   ------------------------------------------------------------------------

         :::::::::::::::::::::::::::::::::::::::::::::::::::::
         ::                  THERMODYNAMIC                  ::
         :::::::::::::::::::::::::::::::::::::::::::::::::::::
         :: total free energy        -130.349767566401 Eh   ::
         ::.................................................::
         :: total energy             -130.951384202548 Eh   ::
         :: zero point energy           0.673574882500 Eh   ::
         :: G(RRHO) w/o ZPVE           -0.071958246353 Eh   ::
         :: G(RRHO) contrib.            0.601616636147 Eh   ::
         :::::::::::::::::::::::::::::::::::::::::::::::::::::

           -------------------------------------------------
          | TOTAL ENERGY             -130.951384202548 Eh   |
          | TOTAL ENTHALPY           -130.234026375612 Eh   |
          | TOTAL FREE ENERGY        -130.349767566401 Eh   |
          | GRADIENT NORM               0.000081201919 Eh/α |
          | HOMO-LUMO GAP               1.014156795683 eV   |
           -------------------------------------------------

 * finished run on 2025/08/26 at 00:14:02.724
