   * xtb version 6.7.1 (edcfbbe) compiled by 'albert@albert-system' on 2024-07-22

   ID    Z sym.   atoms
    1    6 C      1-8, 10, 12-25, 27-47, 49, 50
    2    7 N      9, 26
    3    8 O      11, 48
    4    1 H      51-86

          program call               : xtb data2507/toluene/NA-TNA/NA-TNA_toluene_S0_finalOpt.xtbopt.xyz --gfn 2 --uhf 2 --gbsa toluene --ohess vtight --parallel 40 --molden --ceasefiles --namespace data2507/toluene/NA-TNA/NA-TNA_toluene_T1_preOpt
      * Solvation model:               GBSA
        Solvent                        toluene
        Solvent mass                       9.2140E+01 g/mol
          :  Hamiltonian                  GFN2-xTB          :
 * total energy  :  -130.8933913 Eh     change       -0.1725397E-08 Eh
 * total energy  :  -130.8971139 Eh     change       -0.3722554E-02 Eh
 * total energy  :  -130.8984360 Eh     change       -0.1322125E-02 Eh
 * total energy  :  -130.8986593 Eh     change       -0.2233603E-03 Eh
 * total energy  :  -130.8988835 Eh     change       -0.2241200E-03 Eh
 * total energy  :  -130.8989993 Eh     change       -0.1158470E-03 Eh
 * total energy  :  -130.8990882 Eh     change       -0.8888164E-04 Eh
 * total energy  :  -130.8991322 Eh     change       -0.4400874E-04 Eh
 * total energy  :  -130.8991579 Eh     change       -0.2569660E-04 Eh
 * total energy  :  -130.8991850 Eh     change       -0.2706682E-04 Eh
 * total energy  :  -130.8995048 Eh     change       -0.1211611E-05 Eh
 * total energy  :  -130.8995059 Eh     change       -0.1075168E-05 Eh
 * total energy  :  -130.8995067 Eh     change       -0.7891389E-06 Eh
 * total energy  :  -130.8995074 Eh     change       -0.7301392E-06 Eh
 * total energy  :  -130.8995082 Eh     change       -0.7494831E-06 Eh
 * total energy  :  -130.8995088 Eh     change       -0.6245570E-06 Eh
 * total energy  :  -130.8995094 Eh     change       -0.5805931E-06 Eh
 * total energy  :  -130.8995100 Eh     change       -0.5994347E-06 Eh
 * total energy  :  -130.8995100 Eh     change       -0.1175243E-07 Eh
   *** GEOMETRY OPTIMIZATION CONVERGED AFTER 68 ITERATIONS ***

 final structure:
================
86
 xtb: 6.7.1 (edcfbbe)
C           13.02870119842342        0.19828062950183       -0.29893004927710
C           12.22683216200718       -1.09696390639111       -0.10293952844898
C           12.73782659195037       -1.78901547399735        1.16432003929343
C           12.46201028282715       -2.04060488437277       -1.29177445460760
C           10.74562887517240       -0.75524242729764       -0.02798667076388
C           10.13273948055481       -0.12018597000311       -1.10620251564958
C            8.79114491729260        0.20667986887429       -1.08788688477011
C            8.02546110142765       -0.09400419302208        0.02647849589101
N            6.63213127199066        0.24257247820400        0.05376880406805
C            6.30830746104299        1.56358674675775        0.30693987123873
O            7.19711830802460        2.38895262716681        0.50924552794970
C            4.88981513260426        1.89018839298668        0.32171130058644
C            4.50346329867873        3.21055070346065        0.55422713856805
C            3.16432532980371        3.54053884801672        0.55099669282936
C            2.19845040330995        2.56814376574000        0.33584294816592
C            2.53338269909774        1.22706138669372        0.12451176874821
C            1.55363328881945        0.18191821678389       -0.09174449192871
C            0.17562584773649        0.43838948145322        0.01711517466260
C           -0.85816347717254       -0.42775351719212       -0.29581751198678
C           -2.23727351663834       -0.16713357463024       -0.13393386850890
C           -2.75462632336323        1.01098078340989        0.48443747582151
C           -4.08878963639097        1.21364598579360        0.62102450763967
C           -5.03571579931272        0.26290859424115        0.14715059838703
C           -6.40665038613791        0.45985875683671        0.27200065910429
C           -7.31675695874822       -0.49223777284222       -0.18656003770338
N           -8.67777997189727       -0.28629091740275       -0.06255147902867
C           -9.20952611363342        1.01074856661520       -0.09530403272578
C          -10.26092050728542        1.35899930584414        0.75410334158964
C          -10.78859501886276        2.63505727356383        0.71427530329210
C          -10.27944682541352        3.57732528904950       -0.16639787300583
C           -9.23665501726402        3.23431855507309       -1.01352833044040
C           -8.70271429211630        1.96066287549270       -0.98415820652132
C           -9.55068342888017       -1.37076109931648        0.10716551669979
C           -9.19534618552094       -2.43915731563989        0.93220558139595
C          -10.06361159928450       -3.50030684383761        1.10084173492747
C          -11.29172571107134       -3.51013958199483        0.45720525040577
C          -11.64931789798515       -2.44846924309552       -0.35992204599155
C          -10.78822246078674       -1.38294199984213       -0.53773986613662
C           -6.82653946772730       -1.67691594966171       -0.78991659475179
C           -5.48853994956771       -1.88217897319823       -0.92963105784352
C           -4.54183364340248       -0.92903747074482       -0.46607931668318
C           -3.17152843634555       -1.11816355422680       -0.58967158578955
C            2.03346875402472       -1.12541959198087       -0.37741586213736
C            3.36304369838866       -1.42627775083720       -0.40547322950296
C            4.33116521186229       -0.43341159536974       -0.15872944555863
C            3.91845904155379        0.89160210977649        0.09950848545119
C            5.73071588069629       -0.78940291333370       -0.18643310899779
O            6.14705844087717       -1.92699806641130       -0.41153531901508
C            8.61161549351759       -0.72119723819384        1.11059264876888
C            9.95660831568840       -1.04764561048946        1.07801355909886
H           14.09365568881152       -0.02235736457272       -0.32623821434147
H           12.83720417001706        0.88599825182664        0.52233338181382
H           12.75877476495571        0.69479867839899       -1.22663775310691
H           12.61627394592632       -1.14912085406471        2.03522413773277
H           12.21544218048682       -2.72762591306650        1.33405526221248
H           13.79772172606136       -2.00863033627093        1.05296062061314
H           13.51406377282611       -2.31125628290277       -1.35069003735778
H           12.17593236629458       -1.57438614504691       -2.23029467895523
H           11.87567099310607       -2.94935891244363       -1.17123062431227
H           10.70486404674778        0.12799729690224       -1.98713289590616
H            8.33301735535601        0.69953973347240       -1.93383750998022
H            5.27396170994265        3.94792783516109        0.72260840289537
H            2.86228541867430        4.56432312146711        0.71513792460173
H            1.16700060369531        2.88098354659941        0.32652363762750
H           -0.10389219867070        1.41522346171768        0.37837228750477
H           -0.61985824785889       -1.38772280802644       -0.73102053355421
H           -2.06739971808835        1.75176345558395        0.86148334487749
H           -4.45966816810464        2.11177854546461        1.09409156919297
H           -6.76770072557597        1.35507573027634        0.75703742182737
H          -10.64889675927367        0.62916050426848        1.44891988368819
H          -11.59720264855490        2.89774734217891        1.37970961235340
H          -10.69406199282290        4.57344936923963       -0.19363780766094
H           -8.84208155357714        3.96073022626743       -1.70808860955359
H           -7.90274368193805        1.68835741453252       -1.65662700771607
H           -8.24633149419007       -2.42158820593689        1.44743587028645
H           -9.78367076807636       -4.31969299095968        1.74574470564298
H          -11.96758082147127       -4.34060109947312        0.59287815360591
H          -12.60217654308041       -2.45345660888729       -0.86752938706459
H          -11.06069155820779       -0.56152381049568       -1.18353131387555
H           -7.53246679972607       -2.40276929574882       -1.16445575479647
H           -5.12424812200614       -2.77708372014327       -1.41199289349659
H           -2.80835405899066       -2.02531139337659       -1.05194482143656
H            1.32182885031518       -1.91674027909915       -0.54844121573814
H            3.71378763428870       -2.42745363684359       -0.60849973225349
H            8.01270666591202       -0.95690246572436        1.97907169902776
H           10.37682367996128       -1.53691846123584        1.94122349223076

          :  Hamiltonian                  GFN2-xTB          :
         :: gradient norm              0.000059313037 Eh/a0 ::
         :: HOMO-LUMO gap              0.875837585779 eV    ::
         :: SCC energy              -133.203111247941 Eh    ::
         :: -> dispersion             -0.111624230679 Eh    ::
         :: -> Gsolv                  -0.075457959983 Eh    ::
         :: repulsion energy           2.303601251048 Eh    ::

    * Orbital Energies and Occupations

         #    Occupation            Energy/Eh            Energy/eV
      -------------------------------------------------------------
         1        2.0000           -0.6963300             -18.9481
       ...           ...                  ...                  ...
       110        2.0000           -0.4177630             -11.3679
       111        2.0000           -0.4135302             -11.2527
       112        2.0000           -0.4095656             -11.1448
       113        2.0000           -0.4059108             -11.0454
       114        2.0000           -0.4041483             -10.9974
       115        2.0000           -0.4030689             -10.9681
       116        2.0000           -0.3964064             -10.7868
       117        2.0000           -0.3941926             -10.7265
       118        2.0000           -0.3934207             -10.7055
       119        2.0000           -0.3892814             -10.5929
       120        1.9998           -0.3767691             -10.2524
       121        1.0002           -0.3606782              -9.8146
       122        1.0000           -0.3077034              -8.3730 (HOMO)
       123                         -0.2755171              -7.4972 (LUMO)
       124                         -0.2580256              -7.0212
       125                         -0.2475720              -6.7368
       126                         -0.2409572              -6.5568
       127                         -0.2391594              -6.5079
       128                         -0.2369969              -6.4490
       129                         -0.2311871              -6.2909
       130                         -0.2270041              -6.1771
       131                         -0.2217626              -6.0345
       132                         -0.2198677              -5.9829
       133                         -0.2117351              -5.7616
       ...                                ...                  ...
       236                          0.7173598              19.5204
      -------------------------------------------------------------
                  HL-Gap            0.0321862 Eh            0.8758 eV

     #   Z          covCN         q      C6AA      α(0)
     1   6 C        3.761    -0.107    22.597     6.776
     2   6 C        3.902     0.026    20.078     6.369
     3   6 C        3.761    -0.110    22.657     6.785
     4   6 C        3.761    -0.107    22.599     6.777
     5   6 C        2.972     0.012    27.749     8.641
     6   6 C        2.929    -0.035    28.861     8.810
     7   6 C        2.920    -0.034    28.857     8.809
     8   6 C        2.936     0.090    25.994     8.362
     9   7 N        2.748    -0.136    23.943     7.267
    10   6 C        2.778     0.267    22.503     7.770
    11   8 O        0.859    -0.494    23.647     6.520
    12   6 C        2.980    -0.040    28.991     8.832
    13   6 C        2.920    -0.027    28.665     8.780
    14   6 C        2.913    -0.031    28.779     8.797
    15   6 C        2.920    -0.040    28.986     8.829
    16   6 C        2.976     0.009    27.805     8.650
    17   6 C        2.962     0.002    27.981     8.676
    18   6 C        2.902    -0.027    28.685     8.782
    19   6 C        2.904    -0.045    29.119     8.848
    20   6 C        2.964     0.025    27.445     8.593
    21   6 C        2.914    -0.031    28.781     8.797
    22   6 C        2.913    -0.032    28.794     8.799
    23   6 C        2.983     0.017    27.633     8.623
    24   6 C        2.920    -0.047    29.163     8.856
    25   6 C        2.921     0.065    26.548     8.449
    26   7 N        2.753    -0.024    21.713     6.921
    27   6 C        2.927     0.062    26.614     8.460
    28   6 C        2.921    -0.040    28.983     8.828
    29   6 C        2.919    -0.025    28.618     8.772
    30   6 C        2.919    -0.028    28.701     8.785
    31   6 C        2.919    -0.025    28.623     8.773
    32   6 C        2.921    -0.039    28.982     8.828
    33   6 C        2.927     0.062    26.609     8.460
    34   6 C        2.921    -0.039    28.978     8.828
    35   6 C        2.919    -0.025    28.623     8.773
    36   6 C        2.919    -0.028    28.702     8.785
    37   6 C        2.919    -0.025    28.621     8.773
    38   6 C        2.921    -0.039    28.980     8.828
    39   6 C        2.914    -0.044    29.081     8.843
    40   6 C        2.916    -0.031    28.768     8.795
    41   6 C        2.979     0.015    27.678     8.630
    42   6 C        2.926    -0.041    29.012     8.833
    43   6 C        2.916    -0.033    28.823     8.804
    44   6 C        2.913    -0.029    28.727     8.789
    45   6 C        2.977    -0.039    28.973     8.829
    46   6 C        2.989     0.005    27.892     8.663
    47   6 C        2.777     0.263    22.574     7.782
    48   8 O        0.858    -0.499    23.755     6.535
    49   6 C        2.920    -0.034    28.858     8.809
    50   6 C        2.927    -0.039    28.968     8.827
    51   1 H        0.925     0.045     2.383     2.414
    52   1 H        0.925     0.034     2.526     2.486
    53   1 H        0.925     0.038     2.473     2.459
    54   1 H        0.925     0.038     2.476     2.461
    55   1 H        0.925     0.038     2.474     2.460
    56   1 H        0.925     0.044     2.401     2.423
    57   1 H        0.925     0.045     2.383     2.414
    58   1 H        0.925     0.038     2.474     2.460
    59   1 H        0.925     0.034     2.524     2.484
    60   1 H        0.926     0.044     2.392     2.419
    61   1 H        0.926     0.028     2.615     2.529
    62   1 H        0.926     0.042     2.428     2.437
    63   1 H        0.926     0.043     2.415     2.430
    64   1 H        0.926     0.048     2.351     2.398
    65   1 H        0.926     0.053     2.283     2.363
    66   1 H        0.926     0.041     2.430     2.438
    67   1 H        0.926     0.043     2.409     2.427
    68   1 H        0.926     0.044     2.399     2.422
    69   1 H        0.926     0.049     2.331     2.388
    70   1 H        0.926     0.045     2.378     2.411
    71   1 H        0.926     0.046     2.369     2.407
    72   1 H        0.926     0.044     2.390     2.418
    73   1 H        0.926     0.046     2.369     2.407
    74   1 H        0.926     0.046     2.365     2.405
    75   1 H        0.926     0.046     2.369     2.407
    76   1 H        0.926     0.046     2.371     2.408
    77   1 H        0.926     0.044     2.391     2.418
    78   1 H        0.926     0.046     2.370     2.408
    79   1 H        0.926     0.045     2.378     2.411
    80   1 H        0.926     0.047     2.358     2.401
    81   1 H        0.926     0.048     2.348     2.396
    82   1 H        0.926     0.041     2.433     2.439
    83   1 H        0.926     0.048     2.341     2.393
    84   1 H        0.926     0.041     2.438     2.442
    85   1 H        0.926     0.029     2.606     2.525
    86   1 H        0.926     0.051     2.303     2.373

molecular dipole:
                 x           y           z       tot (Debye)
 q only:      -11.611      -0.294      -0.049
   full:      -11.700      -0.230      -0.051      29.745

 projected vibrational frequencies (cm⁻¹)
eigval :       -0.00    -0.00    -0.00     0.00     0.00     0.00
eigval :        3.73     9.11    12.91    15.01    21.12    28.03
eigval :       30.73    38.47    42.18    53.94    56.17    60.54
eigval :       63.66    70.89    83.96    93.54   107.64   112.09
eigval :      116.95   137.88   146.70   158.50   173.68   175.22
eigval :      181.75   188.65   208.55   218.77   225.14   232.85
eigval :      233.94   248.89   263.74   269.85   279.60   302.69
eigval :      312.03   314.47   317.12   326.71   353.71   361.18
eigval :      361.52   369.04   377.07   380.09   383.16   390.08
eigval :      392.99   394.27   410.29   415.39   427.24   432.57
eigval :      445.14   453.66   462.69   465.74   484.61   492.53
eigval :      501.53   502.84   515.78   518.75   533.22   544.86
eigval :      557.90   569.28   578.33   582.15   586.31   591.71
eigval :      597.15   611.20   627.81   635.54   650.81   660.66
eigval :      663.67   668.24   682.13   687.30   700.40   707.62
eigval :      710.66   731.56   754.58   759.33   762.99   772.12
eigval :      775.86   783.23   800.48   801.14   803.73   811.54
eigval :      823.26   829.62   842.55   845.55   862.24   865.10
eigval :      869.32   871.19   872.61   875.67   886.37   886.98
eigval :      897.78   902.06   902.82   909.09   909.64   912.33
eigval :      914.65   916.39   917.87   922.72   926.41   931.53
eigval :      932.18   933.51   955.99   960.51   961.63   963.40
eigval :      971.30  1000.80  1005.23  1010.57  1034.40  1035.47
eigval :     1036.22  1079.04  1080.56  1089.01  1119.99  1122.12
eigval :     1129.90  1135.91  1139.01  1143.22  1145.82  1163.96
eigval :     1171.19  1176.57  1177.14  1178.35  1183.75  1191.01
eigval :     1194.53  1196.31  1204.98  1208.53  1214.23  1222.55
eigval :     1226.86  1232.32  1243.49  1256.22  1264.77  1272.33
eigval :     1274.96  1276.29  1279.61  1284.18  1287.60  1291.06
eigval :     1301.78  1307.96  1316.53  1317.74  1320.72  1322.41
eigval :     1339.31  1350.28  1363.40  1371.61  1378.85  1396.23
eigval :     1400.21  1401.19  1407.32  1417.95  1425.27  1425.94
eigval :     1428.56  1433.52  1436.40  1447.51  1454.92  1456.18
eigval :     1465.53  1478.86  1479.85  1486.00  1487.41  1491.29
eigval :     1496.10  1498.32  1503.22  1508.50  1516.70  1522.93
eigval :     1537.14  1555.39  1567.30  1570.41  1574.74  1579.14
eigval :     1579.33  1582.10  1587.29  1595.46  1603.40  1616.44
eigval :     3022.72  3024.23  3027.08  3029.02  3030.57  3034.11
eigval :     3038.37  3047.59  3050.73  3069.56  3070.48  3072.85
eigval :     3073.47  3074.01  3078.98  3082.12  3082.35  3082.91
eigval :     3083.57  3084.01  3085.38  3085.96  3089.34  3089.99
eigval :     3090.71  3093.06  3093.77  3094.78  3096.17  3098.40
eigval :     3101.27  3101.53  3102.56  3106.35  3110.09  3115.33

   temp. (K)  partition function   enthalpy   heat capacity  entropy
                                   cal/mol     cal/K/mol   cal/K/mol   J/K/mol
 298.15  VIB  0.885E+21            25273.100    156.042    159.426
         ROT  0.155E+09              888.752      2.981     40.453
         INT  0.137E+30            26161.853    159.023    199.878
         TR   0.160E+29             1481.254      4.968     45.271
         TOT                       27643.1065   163.9910   245.1497  1025.7065

       T/K    H(0)-H(T)+PV         H(T)/Eh          T*S/Eh         G(T)/Eh
   ------------------------------------------------------------------------
    298.15    0.440521E-01    0.715435E+00    0.116479E+00    0.598957E+00
   ------------------------------------------------------------------------

         :::::::::::::::::::::::::::::::::::::::::::::::::::::
         ::                  THERMODYNAMIC                  ::
         :::::::::::::::::::::::::::::::::::::::::::::::::::::
         :: total free energy        -130.300553349388 Eh   ::
         ::.................................................::
         :: total energy             -130.899509992739 Eh   ::
         :: zero point energy           0.671383099214 Eh   ::
         :: G(RRHO) w/o ZPVE           -0.072426455863 Eh   ::
         :: G(RRHO) contrib.            0.598956643352 Eh   ::
         :::::::::::::::::::::::::::::::::::::::::::::::::::::

           -------------------------------------------------
          | TOTAL ENERGY             -130.899509992739 Eh   |
          | TOTAL ENTHALPY           -130.184074799318 Eh   |
          | TOTAL FREE ENERGY        -130.300553349388 Eh   |
          | GRADIENT NORM               0.000059417173 Eh/α |
          | HOMO-LUMO GAP               0.875831976770 eV   |
           -------------------------------------------------

 * finished run on 2025/08/26 at 00:14:12.352
