   * xtb version 6.7.1 (edcfbbe) compiled by 'albert@albert-system' on 2024-07-22

   ID    Z sym.   atoms
    1    6 C      1-8, 10, 12-25, 27-47, 49, 50
    2    7 N      9, 26
    3    8 O      11, 48
    4    1 H      51-86

          program call               : xtb data2507/toluene/NA-TNA/NA-TNA_toluene_T1_crest.xyz --gfn 2 --uhf 2 --gbsa toluene --ohess vtight --parallel 40 --molden --ceasefiles --namespace data2507/toluene/NA-TNA/NA-TNA_toluene_T1_finalOpt
      * Solvation model:               GBSA
        Solvent                        toluene
        Solvent mass                       9.2140E+01 g/mol
          :  Hamiltonian                  GFN2-xTB          :
 * total energy  :  -130.8991532 Eh     change       -0.3598899E-08 Eh
 * total energy  :  -130.8994225 Eh     change       -0.2693111E-03 Eh
 * total energy  :  -130.8995027 Eh     change       -0.8019021E-04 Eh
 * total energy  :  -130.8995081 Eh     change       -0.5431773E-05 Eh
 * total energy  :  -130.8995126 Eh     change       -0.4542119E-05 Eh
 * total energy  :  -130.8995157 Eh     change       -0.3039688E-05 Eh
 * total energy  :  -130.8995231 Eh     change       -0.7386817E-05 Eh
 * total energy  :  -130.8995251 Eh     change       -0.2009083E-05 Eh
 * total energy  :  -130.8995283 Eh     change       -0.3232911E-05 Eh
 * total energy  :  -130.8995315 Eh     change       -0.3146972E-05 Eh
 * total energy  :  -130.8995703 Eh     change       -0.1697193E-05 Eh
 * total energy  :  -130.8995724 Eh     change       -0.2190565E-05 Eh
 * total energy  :  -130.8995749 Eh     change       -0.2475351E-05 Eh
 * total energy  :  -130.8995773 Eh     change       -0.2372153E-05 Eh
 * total energy  :  -130.8995791 Eh     change       -0.1845115E-05 Eh
 * total energy  :  -130.8995797 Eh     change       -0.5655178E-06 Eh
 * total energy  :  -130.8995807 Eh     change       -0.1004928E-05 Eh
 * total energy  :  -130.8995812 Eh     change       -0.4498743E-06 Eh
 * total energy  :  -130.8995812 Eh     change       -0.1843082E-07 Eh
   *** GEOMETRY OPTIMIZATION CONVERGED AFTER 47 ITERATIONS ***

 final structure:
================
86
 xtb: 6.7.1 (edcfbbe)
C           12.48425556397498       -1.70363030694942       -1.66218842278424
C           12.23106902746816       -1.06555385802226       -0.28825812453431
C           13.03523694850665        0.23690226421091       -0.16200189009690
C           12.72365765150989       -2.03796596210789        0.78769048601529
C           10.74885354578177       -0.74617141098047       -0.15636419042043
C           10.15227202081612        0.12833856048900       -1.06229484138842
C            8.81077943896972        0.44708963651237       -0.98643731488707
C            8.02879875535215       -0.10330515684502        0.01589474204811
N            6.63675922015262        0.22360212773286        0.10410272848916
C            6.31272704977534        1.49657369473534        0.54027102609421
O            7.20080917460356        2.28905443367379        0.84859101032184
C            4.89395675486110        1.81487828258634        0.61438418608678
C            4.51106498802013        3.08822879335104        1.03658523252503
C            3.17150803654900        3.40747526382968        1.11098481475562
C            2.20323434123812        2.47239033903958        0.77544129291054
C            2.53426178088901        1.18121631944295        0.35260326162581
C            1.55282387886866        0.17400857609443       -0.00039041804225
C            0.17417108554131        0.43438463264383        0.08460074138016
C           -0.86023529828396       -0.43417006104910       -0.22141283185954
C           -2.24063878282580       -0.15186523381137       -0.11755236997250
C           -2.76619253987851        1.09756769949816        0.33076660521532
C           -4.10198544232382        1.31627558115751        0.41693287363283
C           -5.04304664131983        0.31025286787286        0.06030842218465
C           -6.41522612614844        0.51865814926497        0.14520383577742
C           -7.31984463810937       -0.48692759604572       -0.19438752727938
N           -8.68200553326695       -0.27052466286256       -0.10265219580901
C           -9.21310472256565        1.01213961288302       -0.30229301204030
C          -10.25697515288275        1.47249851358249        0.50152813706652
C          -10.78261026701595        2.73354356414985        0.29651814695296
C          -10.27866221748248        3.54905350206215       -0.70535748847537
C           -9.24331142991019        3.09390334228074       -1.50757527326445
C           -8.71119516322620        1.83405154106599       -1.31291577221025
C           -9.55458350333164       -1.32376039005264        0.20452747151450
C           -9.19345603130108       -2.28725368829574        1.14804672351124
C          -10.06160175932822       -3.31843898977208        1.44994311420403
C          -11.29594448493315       -3.40185693636642        0.82382177357371
C          -11.66022630566730       -2.44340434358111       -0.10967810930641
C          -10.79899359102780       -1.40941879486336       -0.42179633314777
C           -6.82265733470842       -1.73638995949266       -0.64078512091463
C           -5.48300918523932       -1.95516203850712       -0.73919285226686
C           -4.54167872642662       -0.94985843912541       -0.38841036202836
C           -3.16997401437386       -1.15172931311874       -0.46753864493177
C            2.03339272282724       -1.09387757196307       -0.42891432844740
C            3.36261528472174       -1.38563492012437       -0.50788144753158
C            4.33206813756648       -0.42499805345751       -0.16038704841971
C            3.91971752297438        0.85487566097606        0.26876597431558
C            5.73132704140612       -0.76907125228999       -0.25898203958740
O            6.14271198446063       -1.86388367352560       -0.64623494933732
C            8.59903660440956       -0.97168599161372        0.92909069483826
C            9.94329045184840       -1.28908439078497        0.83744136259712
H           13.53658791241229       -1.95904967452207       -1.76695508363071
H           12.21456642326220       -1.02778051870601       -2.46879211965440
H           11.89414722342308       -2.61183096863177       -1.76790685714622
H           12.83255355493834        0.71142280271965        0.79611799864653
H           14.10056024764249        0.02594931290045       -0.22674701504082
H           12.77744291103123        0.93952405427005       -0.94931892083546
H           12.20020090444982       -2.98900536759251        0.72322455598836
H           12.58729489006751       -1.62099160848381        1.78275394249352
H           13.78556116089552       -2.22739738279555        0.64428428049086
H           10.73737356500611        0.57461143688387       -1.85195080025013
H            8.36586554647556        1.12749028844453       -1.69869086644822
H            5.28357611567634        3.79706232918933        1.29435153527164
H            2.87054287742439        4.39337633815278        1.43310507926725
H            1.17201542227315        2.77636948848407        0.85032883409401
H           -0.10911082312140        1.41581672299643        0.42865364006133
H           -0.62256455382739       -1.42719406555935       -0.57457632040882
H           -2.08496774379750        1.88619611995602        0.60818579459103
H           -4.47882091228508        2.27000546046566        0.75802568963825
H           -6.78175353890715        1.46773431842398        0.50838256752414
H          -10.63986793229646        0.84220192660490        1.29033715330332
H          -11.58527654655144        3.08490460123132        0.92738378929939
H          -10.69178109756664        4.53392243577598       -0.86125423404334
H           -8.85345065980744        3.72030999333680       -2.29588898628700
H           -7.91655334482450        1.47227511426376       -1.94854215731616
H           -8.23990876665377       -2.21123574819469        1.64928510125129
H           -9.77629824879236       -4.05628095418973        2.18473922664117
H          -11.97116333435586       -4.20899906991515        1.06352987084526
H          -12.61838695230901       -2.50593901091048       -0.60331582165634
H          -11.07706965636070       -0.67011485156442       -1.15809556021452
H           -7.52419221907381       -2.50512951324658       -0.92792439015128
H           -5.11325657369152       -2.90294013070012       -1.10144959980473
H           -2.80130764013558       -2.11049575667521       -0.80428614839938
H            1.32294154046754       -1.85723773776368       -0.70082857423045
H            3.71235411716117       -2.35375596285614       -0.83504371980532
H            7.98748136437002       -1.40380734887017        1.70852873817456
H           10.35005777866761       -1.97154477675725        1.56538999128308

          :  Hamiltonian                  GFN2-xTB          :
         :: gradient norm              0.000190860489 Eh/a0 ::
         :: HOMO-LUMO gap              0.881513636876 eV    ::
         :: SCC energy              -133.203077949819 Eh    ::
         :: -> dispersion             -0.111642839781 Eh    ::
         :: -> Gsolv                  -0.075228792858 Eh    ::
         :: repulsion energy           2.303496770658 Eh    ::

    * Orbital Energies and Occupations

         #    Occupation            Energy/Eh            Energy/eV
      -------------------------------------------------------------
         1        2.0000           -0.6965950             -18.9553
       ...           ...                  ...                  ...
       110        2.0000           -0.4177907             -11.3687
       111        2.0000           -0.4132681             -11.2456
       112        2.0000           -0.4096973             -11.1484
       113        2.0000           -0.4063310             -11.0568
       114        2.0000           -0.4046847             -11.0120
       115        2.0000           -0.4028666             -10.9626
       116        2.0000           -0.3964498             -10.7879
       117        2.0000           -0.3938435             -10.7170
       118        2.0000           -0.3929728             -10.6933
       119        2.0000           -0.3886867             -10.5767
       120        1.9998           -0.3767716             -10.2525
       121        1.0002           -0.3606834              -9.8147
       122        1.0000           -0.3079196              -8.3789 (HOMO)
       123                         -0.2755244              -7.4974 (LUMO)
       124                         -0.2581672              -7.0251
       125                         -0.2475523              -6.7362
       126                         -0.2409917              -6.5577
       127                         -0.2394745              -6.5164
       128                         -0.2369790              -6.4485
       129                         -0.2314260              -6.2974
       130                         -0.2277669              -6.1979
       131                         -0.2212383              -6.0202
       132                         -0.2184561              -5.9445
       133                         -0.2117517              -5.7621
       ...                                ...                  ...
       236                          0.7172221              19.5166
      -------------------------------------------------------------
                  HL-Gap            0.0323952 Eh            0.8815 eV

     #   Z          covCN         q      C6AA      α(0)
     1   6 C        3.761    -0.107    22.598     6.777
     2   6 C        3.902     0.026    20.079     6.369
     3   6 C        3.761    -0.107    22.596     6.776
     4   6 C        3.761    -0.110    22.655     6.785
     5   6 C        2.972     0.011    27.757     8.642
     6   6 C        2.929    -0.035    28.868     8.811
     7   6 C        2.920    -0.034    28.854     8.809
     8   6 C        2.935     0.089    26.015     8.365
     9   7 N        2.748    -0.135    23.932     7.266
    10   6 C        2.778     0.267    22.503     7.770
    11   8 O        0.858    -0.493    23.622     6.516
    12   6 C        2.980    -0.040    28.988     8.832
    13   6 C        2.920    -0.026    28.664     8.780
    14   6 C        2.913    -0.031    28.779     8.797
    15   6 C        2.920    -0.039    28.978     8.828
    16   6 C        2.975     0.009    27.802     8.649
    17   6 C        2.961     0.002    27.978     8.676
    18   6 C        2.902    -0.028    28.688     8.782
    19   6 C        2.904    -0.045    29.120     8.848
    20   6 C        2.963     0.025    27.445     8.593
    21   6 C        2.914    -0.031    28.778     8.797
    22   6 C        2.913    -0.032    28.795     8.799
    23   6 C        2.983     0.017    27.633     8.623
    24   6 C        2.920    -0.047    29.162     8.856
    25   6 C        2.921     0.065    26.549     8.450
    26   7 N        2.753    -0.024    21.713     6.921
    27   6 C        2.927     0.062    26.615     8.460
    28   6 C        2.921    -0.039    28.980     8.828
    29   6 C        2.919    -0.025    28.618     8.772
    30   6 C        2.919    -0.028    28.700     8.785
    31   6 C        2.919    -0.025    28.623     8.773
    32   6 C        2.921    -0.039    28.978     8.828
    33   6 C        2.927     0.062    26.608     8.459
    34   6 C        2.921    -0.040    28.983     8.828
    35   6 C        2.919    -0.025    28.624     8.773
    36   6 C        2.919    -0.028    28.704     8.786
    37   6 C        2.919    -0.025    28.621     8.773
    38   6 C        2.921    -0.040    28.984     8.829
    39   6 C        2.914    -0.043    29.080     8.843
    40   6 C        2.916    -0.031    28.769     8.796
    41   6 C        2.978     0.015    27.677     8.630
    42   6 C        2.927    -0.041    29.013     8.833
    43   6 C        2.916    -0.033    28.822     8.804
    44   6 C        2.913    -0.029    28.726     8.789
    45   6 C        2.977    -0.039    28.971     8.829
    46   6 C        2.989     0.006    27.890     8.663
    47   6 C        2.777     0.263    22.576     7.782
    48   8 O        0.858    -0.498    23.734     6.532
    49   6 C        2.921    -0.034    28.852     8.808
    50   6 C        2.927    -0.039    28.974     8.827
    51   1 H        0.925     0.045     2.384     2.415
    52   1 H        0.925     0.038     2.474     2.460
    53   1 H        0.925     0.034     2.524     2.485
    54   1 H        0.925     0.034     2.528     2.486
    55   1 H        0.925     0.045     2.385     2.415
    56   1 H        0.925     0.038     2.473     2.459
    57   1 H        0.925     0.038     2.474     2.460
    58   1 H        0.925     0.038     2.477     2.461
    59   1 H        0.925     0.044     2.402     2.424
    60   1 H        0.926     0.044     2.397     2.421
    61   1 H        0.926     0.028     2.608     2.525
    62   1 H        0.926     0.042     2.425     2.435
    63   1 H        0.926     0.043     2.414     2.430
    64   1 H        0.926     0.047     2.355     2.400
    65   1 H        0.926     0.053     2.285     2.364
    66   1 H        0.926     0.041     2.435     2.440
    67   1 H        0.926     0.043     2.413     2.429
    68   1 H        0.926     0.044     2.399     2.422
    69   1 H        0.926     0.049     2.333     2.389
    70   1 H        0.926     0.046     2.376     2.411
    71   1 H        0.926     0.046     2.368     2.407
    72   1 H        0.926     0.045     2.389     2.417
    73   1 H        0.926     0.046     2.369     2.407
    74   1 H        0.926     0.046     2.367     2.406
    75   1 H        0.926     0.046     2.369     2.407
    76   1 H        0.926     0.046     2.373     2.409
    77   1 H        0.926     0.044     2.392     2.419
    78   1 H        0.926     0.046     2.372     2.408
    79   1 H        0.926     0.045     2.379     2.412
    80   1 H        0.926     0.047     2.357     2.401
    81   1 H        0.926     0.048     2.349     2.397
    82   1 H        0.926     0.041     2.435     2.440
    83   1 H        0.926     0.048     2.342     2.393
    84   1 H        0.926     0.041     2.436     2.441
    85   1 H        0.926     0.029     2.601     2.522
    86   1 H        0.926     0.051     2.307     2.375

molecular dipole:
                 x           y           z       tot (Debye)
 q only:      -11.601      -0.247      -0.121
   full:      -11.688      -0.185      -0.109      29.714

 projected vibrational frequencies (cm⁻¹)
eigval :       -0.00    -0.00    -0.00    -0.00     0.00     0.00
eigval :        1.03    10.93    15.22    17.25    20.54    29.09
eigval :       32.94    36.05    43.16    54.05    58.22    60.02
eigval :       65.22    71.73    83.89    95.18   107.98   113.01
eigval :      121.36   136.13   139.48   151.49   175.99   177.42
eigval :      182.96   189.77   205.05   218.72   223.00   232.86
eigval :      234.91   251.24   264.89   269.88   278.36   304.84
eigval :      310.92   316.56   317.14   327.92   355.46   362.14
eigval :      366.50   369.96   376.52   381.81   382.00   390.40
eigval :      391.98   394.78   409.32   415.95   429.43   434.08
eigval :      445.66   454.61   462.42   465.37   484.59   492.92
eigval :      501.05   503.15   515.75   518.13   533.14   546.69
eigval :      558.33   569.49   577.93   582.58   586.60   592.14
eigval :      596.92   610.52   627.96   636.46   651.49   660.35
eigval :      663.89   667.94   682.57   686.26   701.09   706.84
eigval :      712.02   731.58   756.19   758.99   763.31   766.20
eigval :      773.58   780.16   798.43   803.59   803.72   812.10
eigval :      819.60   829.09   839.40   845.62   859.79   866.21
eigval :      867.51   867.89   871.50   872.41   879.29   886.35
eigval :      900.14   901.15   904.77   908.75   910.85   911.21
eigval :      916.63   917.33   918.78   924.88   928.94   929.15
eigval :      932.00   932.35   956.18   960.03   962.37   964.82
eigval :      971.36  1000.86  1005.14  1010.61  1035.18  1035.92
eigval :     1036.51  1078.56  1079.95  1088.65  1120.06  1121.50
eigval :     1129.63  1135.92  1138.80  1143.04  1144.54  1164.45
eigval :     1170.92  1177.41  1177.74  1178.70  1183.55  1189.57
eigval :     1194.09  1196.61  1204.22  1207.82  1214.16  1222.88
eigval :     1226.88  1232.54  1244.21  1256.49  1264.95  1272.03
eigval :     1274.77  1276.98  1281.32  1284.49  1287.63  1292.50
eigval :     1302.64  1308.29  1316.71  1317.86  1320.95  1322.59
eigval :     1339.98  1350.16  1363.44  1371.78  1378.72  1396.46
eigval :     1400.45  1401.79  1407.71  1418.02  1425.60  1426.58
eigval :     1428.83  1433.81  1436.74  1447.74  1454.46  1455.86
eigval :     1466.14  1479.19  1480.61  1485.65  1487.08  1491.71
eigval :     1496.62  1498.22  1502.96  1508.92  1516.54  1523.81
eigval :     1537.42  1556.03  1567.51  1570.62  1575.03  1578.69
eigval :     1579.28  1582.78  1587.40  1595.79  1603.36  1616.34
eigval :     3022.73  3023.97  3026.88  3028.82  3030.35  3034.23
eigval :     3038.19  3047.32  3050.74  3070.31  3070.93  3073.04
eigval :     3073.46  3075.95  3079.14  3081.47  3082.06  3082.83
eigval :     3083.16  3083.97  3085.30  3085.78  3088.79  3089.83
eigval :     3090.74  3093.35  3093.70  3094.53  3095.90  3100.18
eigval :     3101.29  3101.95  3104.11  3108.80  3114.61  3115.10

   temp. (K)  partition function   enthalpy   heat capacity  entropy
                                   cal/mol     cal/K/mol   cal/K/mol   J/K/mol
 298.15  VIB  0.181E+22            25257.195    156.126    160.165
         ROT  0.155E+09              888.752      2.981     40.453
         INT  0.279E+30            26145.947    159.107    200.619
         TR   0.160E+29             1481.254      4.968     45.271
         TOT                       27627.2009   164.0752   245.8899  1028.8033

       T/K    H(0)-H(T)+PV         H(T)/Eh          T*S/Eh         G(T)/Eh
   ------------------------------------------------------------------------
    298.15    0.440267E-01    0.715462E+00    0.116830E+00    0.598631E+00
   ------------------------------------------------------------------------

         :::::::::::::::::::::::::::::::::::::::::::::::::::::
         ::                  THERMODYNAMIC                  ::
         :::::::::::::::::::::::::::::::::::::::::::::::::::::
         :: total free energy        -130.300949831848 Eh   ::
         ::.................................................::
         :: total energy             -130.899581174817 Eh   ::
         :: zero point energy           0.671434822616 Eh   ::
         :: G(RRHO) w/o ZPVE           -0.072803479647 Eh   ::
         :: G(RRHO) contrib.            0.598631342969 Eh   ::
         :::::::::::::::::::::::::::::::::::::::::::::::::::::

           -------------------------------------------------
          | TOTAL ENERGY             -130.899581174817 Eh   |
          | TOTAL ENTHALPY           -130.184119605189 Eh   |
          | TOTAL FREE ENERGY        -130.300949831848 Eh   |
          | GRADIENT NORM               0.000190576116 Eh/α |
          | HOMO-LUMO GAP               0.881519187038 eV   |
           -------------------------------------------------

 * finished run on 2025/08/26 at 00:21:16.840
